Title
81344
    1CHL1    C3    1   5.916   0.067  10.232 -0.6969  0.2456  0.6098
    1CHL1    H3    2   5.813   0.026  10.243 -0.5770  0.3582  2.6472
    1CHL1    O3    3   5.960   0.084  10.357 -0.0881  0.0800  0.3396
    1CHL1   H3'    4   6.054   0.104  10.357 -0.4853  2.5173  2.2914
    1CHL1    C4    5   6.003  -0.028  10.150 -0.3657 -0.1846 -0.0655
    1CHL1   H4A    6   6.105   0.016  10.155 -0.4100 -0.1251  0.3016
    1CHL1   H4B    7   6.014  -0.124  10.205  1.0933  0.0573  0.1163
    1CHL1    C5    8   5.944  -0.048  10.007  0.6832  0.4781  0.9705
    1CHL1    C6    9   5.898  -0.170   9.961  0.4715 -0.7065 -0.2346
    1CHL1    H6   10   5.895  -0.263  10.021 -1.5358 -0.2962  0.3867
    1CHL1    C7   11   5.827  -0.183   9.826 -0.5593  0.2664 -0.0154
    1CHL1   H7A   12   5.872  -0.270   9.773 -1.5386  0.2359 -0.8237
    1CHL1   H7B   13   5.716  -0.186   9.826 -0.6318  0.9142 -2.3927
    1CHL1    C8   14   5.865  -0.054   9.730  0.0287  0.0666  0.1506
    1CHL1    H8   15   5.973  -0.056   9.704 -0.1025  3.2429 -1.1759
    1CHL1   C14   16   5.780  -0.048   9.602  0.2915 -0.9993 -0.6621
    1CHL1   H14   17   5.673  -0.021   9.617  0.9533  1.7874 -0.4548
    1CHL1   C15   18   5.776  -0.181   9.526  0.3054 -0.1107  0.0948
    1CHL1  H15A   19   5.868  -0.243   9.534 -1.4438 -2.9454 -0.5281
    1CHL1  H15B   20   5.695  -0.246   9.565 -0.1520  1.6435  2.3257
    1CHL1   C16   21   5.738  -0.140   9.381 -0.2958  0.0105 -0.0565
    1CHL1  H16A   22   5.829  -0.178   9.329  1.4217 -0.1481  2.8786
    1CHL1  H16B   23   5.650  -0.195   9.341 -0.6268  0.4382  0.0752
    1CHL1   C17   24   5.727   0.013   9.372 -0.9304 -0.4930  0.0963
    1CHL1   H17   25   5.625   0.046   9.401 -1.3344 -2.0888  0.5693
    1CHL1   C13   26   5.818   0.065   9.495  0.0885  0.7200  0.8064
    1CHL1   C18   27   5.971   0.049   9.458  0.3828 -0.0843 -0.2327
    1CHL1  H18A   28   5.994   0.123   9.379 -1.4363 -1.2344 -1.9000
    1CHL1  H18B   29   6.038   0.046   9.547  1.7031  1.5030 -1.1027
    1CHL1  H18C   30   5.983  -0.053   9.417 -0.7925 -0.3902  0.1535
    1CHL1   C12   31   5.792   0.200   9.566 -0.6506  0.1905  0.4489
    1CHL1  H12A   32   5.834   0.282   9.503 -2.0267 -0.6545 -1.6930
    1CHL1  H12B   33   5.682   0.205   9.577 -0.7842  0.4657 -0.7656
    1CHL1   C11   34   5.863   0.202   9.704  0.8172 -0.4407 -0.0925
    1CHL1  H11A   35   5.969   0.196   9.670  1.3457 -1.2003  1.6033
    1CHL1  H11B   36   5.837   0.295   9.760 -0.8519 -1.9349  1.7553
    1CHL1    C9   37   5.844   0.078   9.798 -0.0302 -0.1593 -0.8274
    1CHL1    H9   38   5.741   0.082   9.837  0.2276 -2.7355  0.3281
    1CHL1   C10   39   5.931   0.088   9.927  0.4918 -0.3157 -0.1710
    1CHL1   C19   40   6.070   0.142   9.891  0.2048  0.1588 -0.0276
    1CHL1  H19A   41   6.078   0.252   9.872 -0.7319  0.3774  0.7760
    1CHL1  H19B   42   6.144   0.116   9.969  0.8544  0.5900 -0.4874
    1CHL1  H19C   43   6.112   0.092   9.801  1.9139 -1.3488  1.5211
    1CHL1    C1   44   5.866   0.189  10.019  0.6883 -0.8666 -0.2710
    1CHL1   H1A   45   5.863   0.286   9.965  2.4118 -0.2577  0.6360
    1CHL1   H1B   46   5.758   0.167  10.030  0.4615  0.7498  1.2692
    1CHL1    C2   47   5.918   0.202  10.159  0.1527  0.0106 -0.8833
    1CHL1   H2A   48   5.857   0.272  10.220 -2.7883 -1.7696 -1.5558
    1CHL1   H2B   49   6.017   0.252  10.157 -0.4275  1.2085 -0.9324
    1CHL1   C20   50   5.752   0.070   9.228  0.3337  0.3937 -0.2359
    1CHL1   H20   51   5.859   0.059   9.198  0.3654 -1.1543  0.3548
    1CHL1   C21   52   5.712   0.220   9.231 -0.2181 -0.0734 -0.3906
    1CHL1  H21A   53   5.772   0.265   9.313  0.8249 -0.7818 -0.7399
    1CHL1  H21B   54   5.603   0.229   9.250 -0.1913  3.5920 -1.2279
    1CHL1  H21C   55   5.741   0.264   9.133 -0.0405  0.9441  0.1076
    1CHL1   C22   56   5.666  -0.004   9.116 -0.7630  1.2056  0.3882
    1CHL1  H22A   57   5.682  -0.114   9.111 -0.0537  1.3725 -1.7877
    1CHL1  H22B   58   5.559   0.006   9.144 -1.1685  0.5640 -0.8938
    1CHL1   C23   59   5.664   0.058   8.976  0.3597 -0.2025 -0.7612
    1CHL1  H23A   60   5.641   0.165   8.993  2.6402 -0.2309  4.6268
    1CHL1  H23B   61   5.761   0.047   8.923  1.2590  1.9477  0.3179
    1CHL1   C24   62   5.562  -0.013   8.894 -0.6786  0.1830  1.0893
    1CHL1  H24A   63   5.612  -0.110   8.875  0.6878  1.1063 -0.2958
    1CHL1  H24B   64   5.459  -0.033   8.930 -0.7200 -2.7893 -0.4115
    1CHL1   C25   65   5.549   0.042   8.748  0.7508 -0.1033  0.3616
    1CHL1   H25   66   5.650   0.061   8.705  0.2877  1.1545 -0.2513
    1CHL1   C26   67   5.478  -0.059   8.655  0.0753 -0.3217  0.2348
    1CHL1  H26A   68   5.378  -0.085   8.698  0.1052 -0.7634  0.0409
    1CHL1  H26B   69   5.464  -0.011   8.556 -1.1152  1.4851  1.1989
    1CHL1  H26C   70   5.534  -0.154   8.646  0.8628  0.1446  0.1169
    1CHL1   C27   71   5.464   0.175   8.749 -0.2774 -0.3394  0.1025
    1CHL1  H27A   72   5.513   0.246   8.819 -2.5416  1.8671 -0.4186
    1CHL1  H27B   73   5.457   0.220   8.647  1.7965  1.0357  0.4933
    1CHL1  H27C   74   5.363   0.140   8.779 -0.2574  0.4604  1.1661
    2CHL1    C3   75   0.572   1.684  10.159  0.0839  0.5423 -0.3868
    2CHL1    H3   76   0.534   1.770  10.101  1.5385  0.0814 -2.1169
    2CHL1    O3   77   0.551   1.700  10.298  0.0665 -0.3194  0.4079
    2CHL1   H3'   78   0.605   1.637  10.347 -2.0715 -2.0318  0.7302
    2CHL1    C4   79   0.501   1.559  10.108 -0.2513  0.0701 -0.0862
    2CHL1   H4A   80   0.543   1.479  10.172  0.9987  0.0259 -0.9261
    2CHL1   H4B   81   0.394   1.573  10.136  0.1330  0.0798  1.5188
    2CHL1    C5   82   0.531   1.530   9.962  0.9442 -0.5952  0.0075
    2CHL1    C6   83   0.428   1.516   9.875 -0.3124 -0.8356  0.2368
    2CHL1    H6   84   0.324   1.517   9.913 -0.3561 -0.5670  0.1125
    2CHL1    C7   85   0.438   1.496   9.728 -1.1452  0.2856 -0.7568
    2CHL1   H7A   86   0.372   1.408   9.709  1.9171 -3.6213  4.0463
    2CHL1   H7B   87   0.401   1.581   9.667 -0.1943  1.2983  0.0445
    2CHL1    C8   88   0.581   1.472   9.681  0.1029 -0.0926 -0.5121
    2CHL1    H8   89   0.601   1.365   9.702 -2.1652 -1.0857 -2.8014
    2CHL1   C14   90   0.580   1.502   9.536 -0.3584  0.0643 -0.3038
    2CHL1   H14   91   0.545   1.607   9.528  0.6130  0.3687 -0.8376
    2CHL1   C15   92   0.492   1.424   9.442 -0.0475  0.3118  0.1481
    2CHL1  H15A   93   0.504   1.315   9.463 -0.3912  0.1446 -0.5038
    2CHL1  H15B   94   0.386   1.446   9.462 -0.0682 -1.0497  1.8299
    2CHL1   C16   95   0.536   1.456   9.303 -0.3116 -0.2757 -0.5297
    2CHL1  H16A   96   0.556   1.356   9.259  1.3781 -0.6214  0.8839
    2CHL1  H16B   97   0.462   1.510   9.241 -1.3879 -0.8584  0.2135
    2CHL1   C17   98   0.669   1.538   9.328 -0.2063 -0.3755 -0.0022
    2CHL1   H17   99   0.634   1.644   9.330 -0.1318 -0.3158  3.3345
    2CHL1   C13  100   0.719   1.508   9.467  0.4947 -0.7094  0.6046
    2CHL1   C18  101   0.784   1.364   9.468 -0.0607  0.0089  0.0008
    2CHL1  H18A  102   0.819   1.333   9.569 -1.6011 -0.5305  0.3941
    2CHL1  H18B  103   0.715   1.279   9.450 -0.9930  0.4580  1.2986
    2CHL1  H18C  104   0.875   1.355   9.404  0.2639  0.2504  0.4198
    2CHL1   C12  105   0.809   1.610   9.540  1.0808  0.3021  0.3944
    2CHL1  H12A  106   0.913   1.583   9.511  0.8413 -1.8274  1.2686
    2CHL1  H12B  107   0.780   1.711   9.506  0.1463 -0.6891 -1.9363
    2CHL1   C11  108   0.812   1.587   9.692 -0.6102  0.3500 -1.3542
    2CHL1  H11A  109   0.884   1.504   9.710 -1.2188 -0.3588 -2.1182
    2CHL1  H11B  110   0.862   1.681   9.726  0.6282 -0.6786 -0.2248
    2CHL1    C9  111   0.673   1.566   9.762 -0.3335  0.2346 -0.0956
    2CHL1    H9  112   0.634   1.669   9.744 -0.2837 -0.3080 -4.4312
    2CHL1   C10  113   0.679   1.542   9.915  0.2070 -0.1699 -0.3824
    2CHL1   C19  114   0.755   1.416   9.950  0.5264 -0.4720 -0.5390
    2CHL1  H19A  115   0.860   1.408   9.915  0.5662 -2.0137 -0.1207
    2CHL1  H19B  116   0.761   1.409  10.061  3.4468 -1.5081 -0.6821
    2CHL1  H19C  117   0.693   1.330   9.920 -3.8550  1.3903  2.1530
    2CHL1    C1  118   0.756   1.663   9.986 -0.0780  1.0951 -0.3472
    2CHL1   H1A  119   0.863   1.648   9.961 -0.3237  0.9459 -1.3582
    2CHL1   H1B  120   0.712   1.750   9.934 -1.5778 -0.1294 -1.2153
    2CHL1    C2  121   0.720   1.669  10.135 -0.5105 -0.3679  0.0426
    2CHL1   H2A  122   0.774   1.751  10.185  0.4336 -0.7595 -0.3159
    2CHL1   H2B  123   0.753   1.575  10.183  2.9671 -0.4291 -2.1560
    2CHL1   C20  124   0.767   1.524   9.202  0.3068  0.5370 -0.6138
    2CHL1   H20  125   0.779   1.416   9.181  0.1825  0.6803 -1.4229
    2CHL1   C21  126   0.904   1.592   9.239 -0.4805 -0.2903 -1.0065
    2CHL1  H21A  127   0.952   1.528   9.316 -0.0905 -0.2953 -1.2543
    2CHL1  H21B  128   0.890   1.699   9.266 -1.8874 -0.7413  0.1836
    2CHL1  H21C  129   0.972   1.585   9.152  0.0513 -0.7701 -0.5621
    2CHL1   C22  130   0.709   1.600   9.074 -0.0205  0.7320 -0.0928
    2CHL1  H22A  131   0.600   1.620   9.084 -0.4775 -1.2142 -0.7213
    2CHL1  H22B  132   0.749   1.702   9.060 -0.7035  1.1368  0.7959
    2CHL1   C23  133   0.738   1.504   8.958  0.2262 -0.2317  0.4278
    2CHL1  H23A  134   0.847   1.509   8.939  0.1749  0.6806  0.3336
    2CHL1  H23B  135   0.715   1.398   8.979 -0.8457 -0.4302 -1.4997
    2CHL1   C24  136   0.658   1.551   8.837  0.1061  0.1847  0.2960
    2CHL1  H24A  137   0.549   1.545   8.855  0.2111 -1.0433  0.6337
    2CHL1  H24B  138   0.684   1.656   8.812 -1.1568  0.2742 -0.6968
    2CHL1   C25  139   0.697   1.468   8.716 -0.3911  0.6199  0.0352
    2CHL1   H25  140   0.808   1.465   8.716 -0.3563  0.1098  2.0020
    2CHL1   C26  141   0.632   1.329   8.734 -0.0056  0.2138 -0.3716
    2CHL1  H26A  142   0.641   1.265   8.644  0.3249  0.1134 -0.2691
    2CHL1  H26B  143   0.683   1.274   8.816  2.4851 -0.3685 -2.1654
    2CHL1  H26C  144   0.522   1.330   8.749 -0.4919 -2.5340 -2.8355
    2CHL1   C27  145   0.652   1.520   8.580  0.2699  0.4807  0.0818
    2CHL1  H27A  146   0.700   1.444   8.514 -1.2696  1.0510 -1.7778
    2CHL1  H27B  147   0.543   1.526   8.560  0.1246 -0.2276  0.6217
    2CHL1  H27C  148   0.690   1.621   8.555 -0.9307  2.0314  3.8235
    3CHL1    C3  149   3.372   5.876  10.138  0.3195 -0.4012  0.6625
    3CHL1    H3  150   3.480   5.887  10.114  0.0294  0.9255 -0.1362
    3CHL1    O3  151   3.352   5.912  10.273  0.7549 -0.0289  0.1238
    3CHL1   H3'  152   3.257   5.906  10.285  0.5719  1.0375 -0.5823
    3CHL1    C4  153   3.289   5.983  10.059 -0.0000  0.3159 -0.4621
    3CHL1   H4A  154   3.184   5.995  10.093  1.0627  2.6730  2.4303
    3CHL1   H4B  155   3.341   6.082  10.062 -0.4737  0.5651 -0.3147
    3CHL1    C5  156   3.289   5.937   9.912 -0.6406  0.2893  0.3636
    3CHL1    C6  157   3.318   6.020   9.808  0.5545  0.5745  0.2400
    3CHL1    H6  158   3.341   6.126   9.825 -0.1099  1.0666 -1.7096
    3CHL1    C7  159   3.300   5.994   9.662 -0.4955 -0.5813  0.6762
    3CHL1   H7A  160   3.252   6.075   9.604  0.1193  0.8684  2.0980
    3CHL1   H7B  161   3.396   5.993   9.606 -0.6393  0.0820  0.4049
    3CHL1    C8  162   3.230   5.860   9.633 -0.3545 -0.5602  0.1230
    3CHL1    H8  163   3.121   5.875   9.644  0.0234  1.9912  1.2104
    3CHL1   C14  164   3.272   5.812   9.490 -0.2889 -0.4526  0.5770
    3CHL1   H14  165   3.382   5.800   9.491 -0.3129 -0.7111  1.7875
    3CHL1   C15  166   3.244   5.907   9.377  0.7209  0.1356 -0.1428
    3CHL1  H15A  167   3.140   5.947   9.375  0.2163 -1.0142  1.0911
    3CHL1  H15B  168   3.323   5.985   9.365  0.4734  0.5591  0.8594
    3CHL1   C16  169   3.279   5.817   9.256 -0.0248 -0.6644 -0.0826
    3CHL1  H16A  170   3.220   5.842   9.166 -1.6198 -0.5797  0.9637
    3CHL1  H16B  171   3.390   5.821   9.248 -0.0468 -0.3812 -0.2589
    3CHL1   C17  172   3.257   5.674   9.297 -0.0669  0.3637  0.1046
    3CHL1   H17  173   3.356   5.623   9.303 -0.7933 -1.1822 -0.3313
    3CHL1   C13  174   3.207   5.676   9.450 -0.2831 -0.4561  0.4936
    3CHL1   C18  175   3.053   5.690   9.451  0.9605 -0.0718  0.3722
    3CHL1  H18A  176   2.993   5.607   9.409 -0.2649  0.5616  0.8352
    3CHL1  H18B  177   3.014   5.715   9.552  0.1886 -0.6941  0.2359
    3CHL1  H18C  178   3.033   5.779   9.387 -0.5260 -0.5210  0.1832
    3CHL1   C12  179   3.275   5.575   9.545 -0.4946 -0.6993 -0.2583
    3CHL1  H12A  180   3.256   5.466   9.535 -1.2449 -0.8139  1.7995
    3CHL1  H12B  181   3.383   5.592   9.527 -1.1141  2.1406 -1.9213
    3CHL1   C11  182   3.247   5.611   9.691 -0.3518  0.4479 -0.2485
    3CHL1  H11A  183   3.139   5.600   9.717 -0.9227  0.7330 -2.2881
    3CHL1  H11B  184   3.301   5.531   9.746  2.1989  0.8927 -1.9202
    3CHL1    C9  185   3.286   5.757   9.731 -0.3595  0.1660 -0.0261
    3CHL1    H9  186   3.397   5.747   9.724 -0.5026 -1.0898 -0.7337
    3CHL1   C10  187   3.253   5.789   9.875  0.5824 -0.5859  0.0133
    3CHL1   C19  188   3.094   5.785   9.903 -1.2960  0.1038  0.2037
    3CHL1  H19A  189   3.075   5.814  10.008  2.2669  0.2874  0.9098
    3CHL1  H19B  190   3.044   5.859   9.837 -0.5766  1.4755  1.1471
    3CHL1  H19C  191   3.058   5.681   9.886 -0.2088 -0.0826 -1.1726
    3CHL1    C1  192   3.327   5.691   9.974 -0.0207 -0.6201 -0.2179
    3CHL1   H1A  193   3.293   5.586   9.970  0.8987 -0.9811  0.9104
    3CHL1   H1B  194   3.433   5.701   9.944 -0.3569 -0.6900 -1.4877
    3CHL1    C2  195   3.316   5.735  10.117 -0.1474 -0.2577 -0.4843
    3CHL1   H2A  196   3.373   5.659  10.173  1.0700 -0.1276 -1.5142
    3CHL1   H2B  197   3.211   5.738  10.154  1.3638  0.8196  4.4860
    3CHL1   C20  198   3.166   5.592   9.190  1.0103  0.2334 -0.1164
    3CHL1   H20  199   3.065   5.634   9.208  0.6290 -0.8467  0.3597
    3CHL1   C21  200   3.161   5.437   9.230 -0.6350  0.5507  0.5336
    3CHL1  H21A  201   3.086   5.378   9.174 -0.4393  2.3217 -1.7444
    3CHL1  H21B  202   3.118   5.435   9.333 -0.0466 -0.5895  0.7695
    3CHL1  H21C  203   3.265   5.400   9.222 -1.0528 -0.9455  1.5976
    3CHL1   C22  204   3.213   5.612   9.042  0.2712  0.2204 -0.4581
    3CHL1  H22A  205   3.211   5.718   9.009 -1.2829  0.8358  1.4405
    3CHL1  H22B  206   3.318   5.575   9.041  0.9772  2.0254  0.8820
    3CHL1   C23  207   3.139   5.525   8.943  0.2499 -0.3700  0.7864
    3CHL1  H23A  208   3.152   5.418   8.969 -3.7236 -1.0590  0.5526
    3CHL1  H23B  209   3.029   5.542   8.948  0.5333  3.5870 -1.8642
    3CHL1   C24  210   3.189   5.554   8.796  0.2177 -0.4535  0.1275
    3CHL1  H24A  211   3.190   5.663   8.775 -0.5808 -0.5281 -0.3882
    3CHL1  H24B  212   3.295   5.530   8.774  0.7605  2.6907 -1.2436
    3CHL1   C25  213   3.107   5.482   8.686  0.1506 -0.2390 -0.7360
    3CHL1   H25  214   3.082   5.378   8.715 -0.3710 -0.5174 -2.1125
    3CHL1   C26  215   2.978   5.557   8.676 -0.2731 -0.6175 -0.5103
    3CHL1  H26A  216   2.899   5.510   8.738 -0.0040  0.0176  0.3189
    3CHL1  H26B  217   2.999   5.664   8.694  1.1892 -1.2791  2.1700
    3CHL1  H26C  218   2.949   5.551   8.569  1.6988 -0.8550 -1.0664
    3CHL1   C27  219   3.189   5.480   8.555  0.5325 -0.9270  0.5097
    3CHL1  H27A  220   3.276   5.411   8.548  0.9432 -0.2710 -1.6057
    3CHL1  H27B  221   3.119   5.452   8.472  1.3280 -1.3550 -0.0337
    3CHL1  H27C  222   3.221   5.584   8.532 -1.9095  0.0131  1.0846
    4CHL1    C3  223   1.660   1.507  10.527  0.2162 -0.4836  0.2334
    4CHL1    H3  224   1.587   1.423  10.531 -1.7107  1.1355  3.1547
    4CHL1    O3  225   1.663   1.562  10.662 -0.5959  0.0165 -0.5005
    4CHL1   H3'  226   1.670   1.658  10.656  0.0077 -0.0385 -0.7675
    4CHL1    C4  227   1.795   1.450  10.488  0.4122  0.5230 -0.6045
    4CHL1   H4A  228   1.869   1.533  10.497 -0.7752  1.4641  1.1528
    4CHL1   H4B  229   1.816   1.377  10.570 -0.0077  1.3993  0.3120
    4CHL1    C5  230   1.794   1.390  10.352 -0.1634  0.2838  0.1528
    4CHL1    C6  231   1.802   1.260  10.324 -0.6321 -0.5467  0.3274
    4CHL1    H6  232   1.820   1.181  10.398  1.6102 -0.4868 -0.0877
    4CHL1    C7  233   1.800   1.204  10.182  0.2996  1.0098  0.1951
    4CHL1   H7A  234   1.894   1.147  10.166  0.4189  0.5102  2.3716
    4CHL1   H7B  235   1.718   1.131  10.167  1.4707 -0.2118 -0.5034
    4CHL1    C8  236   1.797   1.310  10.074 -0.5102  0.1754  0.0363
    4CHL1    H8  237   1.901   1.349  10.065 -0.5826  0.1624 -0.8627
    4CHL1   C14  238   1.747   1.261   9.943 -0.3529 -0.0177  0.1968
    4CHL1   H14  239   1.651   1.209   9.964 -0.0342 -0.1114  1.5766
    4CHL1   C15  240   1.828   1.140   9.878  0.8089  0.1763 -0.4147
    4CHL1  H15A  241   1.934   1.160   9.851  0.1835  0.4745 -2.8162
    4CHL1  H15B  242   1.830   1.058   9.953 -0.9062 -1.7055 -2.2986
    4CHL1   C16  243   1.748   1.117   9.750 -0.4290  0.2293 -0.2474
    4CHL1  H16A  244   1.817   1.095   9.665 -0.0620 -2.7851  0.7143
    4CHL1  H16B  245   1.675   1.034   9.756 -1.5331  1.0535 -1.5772
    4CHL1   C17  246   1.682   1.260   9.715  0.2592  0.4418 -0.1189
    4CHL1   H17  247   1.573   1.237   9.719 -0.1246  2.2625  0.9892
    4CHL1   C13  248   1.724   1.354   9.822  0.4175  0.3894 -0.0032
    4CHL1   C18  249   1.866   1.413   9.767  0.2495  0.2867 -0.1663
    4CHL1  H18A  250   1.927   1.335   9.717  0.7966  0.3040  0.4512
    4CHL1  H18B  251   1.834   1.491   9.694 -3.2970 -0.4702  0.4161
    4CHL1  H18C  252   1.940   1.464   9.834 -0.8479  0.5857  0.8510
    4CHL1   C12  253   1.623   1.457   9.870 -0.4155  0.3869 -0.3178
    4CHL1  H12A  254   1.606   1.527   9.785 -2.0268  0.6505  0.1935
    4CHL1  H12B  255   1.531   1.397   9.884  1.1421 -2.5200 -1.7243
    4CHL1   C11  256   1.681   1.528   9.990  0.5488  0.0576 -0.9946
    4CHL1  H11A  257   1.779   1.575   9.965  0.6138  0.6878  0.3683
    4CHL1  H11B  258   1.599   1.600  10.011 -0.8609 -2.0179  1.1233
    4CHL1    C9  259   1.700   1.427  10.110 -0.1648  0.3035  1.0756
    4CHL1    H9  260   1.604   1.374  10.123 -0.0679  0.4183  2.3654
    4CHL1   C10  261   1.742   1.488  10.245  0.7588 -0.5002  0.0859
    4CHL1   C19  262   1.857   1.586  10.220 -0.8697 -0.2700 -0.4609
    4CHL1  H19A  263   1.946   1.541  10.169  1.0535  0.3141  2.1719
    4CHL1  H19B  264   1.824   1.678  10.168  0.0143 -0.6995 -1.8566
    4CHL1  H19C  265   1.890   1.635  10.314 -1.1661 -0.2367 -0.3755
    4CHL1    C1  266   1.616   1.563  10.295 -0.2039 -0.0411  0.2668
    4CHL1   H1A  267   1.592   1.652  10.233 -0.3673 -1.1711 -1.3754
    4CHL1   H1B  268   1.532   1.490  10.285  0.9817 -1.5123  0.6171
    4CHL1    C2  269   1.614   1.618  10.438 -0.0712  0.0363  0.7103
    4CHL1   H2A  270   1.519   1.668  10.462 -0.2756  1.1068 -1.9544
    4CHL1   H2B  271   1.691   1.698  10.441  1.0953 -1.0834  2.6989
    4CHL1   C20  272   1.698   1.300   9.569 -0.2737 -0.3024  0.0536
    4CHL1   H20  273   1.803   1.322   9.542 -0.3795 -0.0785 -0.1787
    4CHL1   C21  274   1.614   1.433   9.543 -0.5648  0.5528 -0.1338
    4CHL1  H21A  275   1.513   1.425   9.589 -0.0438  0.2853  0.9917
    4CHL1  H21B  276   1.604   1.466   9.437  1.3438  2.7612  0.3020
    4CHL1  H21C  277   1.657   1.525   9.587  0.4511  0.3778 -0.7287
    4CHL1   C22  278   1.647   1.198   9.465  1.0080  0.4162  0.3648
    4CHL1  H22A  279   1.680   1.098   9.500 -2.1732 -0.3165  1.6501
    4CHL1  H22B  280   1.536   1.191   9.471  1.0754 -1.4013 -0.1025
    4CHL1   C23  281   1.686   1.234   9.322  0.3972 -0.1303  0.3964
    4CHL1  H23A  282   1.623   1.319   9.288  0.1733 -0.5809 -0.3460
    4CHL1  H23B  283   1.792   1.269   9.319 -0.0744  1.3620  0.4934
    4CHL1   C24  284   1.655   1.124   9.226  0.0487  0.3963 -0.6878
    4CHL1  H24A  285   1.727   1.040   9.217 -1.2472 -1.1375  1.8752
    4CHL1  H24B  286   1.555   1.080   9.245 -0.3772  1.8732  0.7185
    4CHL1   C25  287   1.647   1.175   9.077  0.7289  0.2549 -0.8427
    4CHL1   H25  288   1.739   1.233   9.054 -0.0575  0.5395 -3.6178
    4CHL1   C26  289   1.623   1.048   8.995 -0.0542  0.5210  0.2435
    4CHL1  H26A  290   1.614   1.067   8.886 -3.0615 -1.9560 -0.0880
    4CHL1  H26B  291   1.709   0.979   9.006  0.0093  0.1076 -2.2726
    4CHL1  H26C  292   1.529   0.996   9.022  0.2515  0.4397  1.1941
    4CHL1   C27  293   1.533   1.270   9.041 -0.2524 -0.1661  0.4863
    4CHL1  H27A  294   1.524   1.285   8.931  0.4478  3.4930  0.8188
    4CHL1  H27B  295   1.434   1.232   9.073  0.8980 -3.3092  0.6403
    4CHL1  H27C  296   1.553   1.371   9.082  0.7504  0.4628 -1.4130
    5CHL1    C3  297   1.774   4.732  10.118  0.1987 -0.9562 -0.0456
    5CHL1    H3  298   1.696   4.656  10.142  0.0269 -0.5820  0.5897
    5CHL1    O3  299   1.811   4.805  10.240 -0.2993  0.0873  0.0375
    5CHL1   H3'  300   1.880   4.751  10.279  0.1814  0.5903 -0.1155
    5CHL1    C4  301   1.897   4.664  10.049 -0.3540 -0.0526 -0.6672
    5CHL1   H4A  302   1.985   4.731  10.055  0.0847 -0.7468  1.7609
    5CHL1   H4B  303   1.936   4.585  10.116  2.0742  1.7419  0.1516
    5CHL1    C5  304   1.888   4.620   9.911 -1.1783 -0.0123  0.3177
    5CHL1    C6  305   1.917   4.496   9.875  0.1333  0.2978  0.0023
    5CHL1    H6  306   1.971   4.432   9.948 -0.4367 -0.7171 -0.4438
    5CHL1    C7  307   1.906   4.446   9.739  0.2040  0.1189 -0.0399
    5CHL1   H7A  308   1.994   4.380   9.721  1.4680  1.6168  0.3869
    5CHL1   H7B  309   1.823   4.372   9.737  2.3070 -2.4043 -0.3095
    5CHL1    C8  310   1.874   4.550   9.629 -0.2235 -0.6698 -0.1011
    5CHL1    H8  311   1.971   4.603   9.620  0.5324 -2.2713 -1.7592
    5CHL1   C14  312   1.824   4.491   9.499  0.4273 -0.1825 -0.9775
    5CHL1   H14  313   1.730   4.441   9.530 -0.8972  2.6977  0.0375
    5CHL1   C15  314   1.896   4.376   9.433 -0.3824  0.8206 -0.0170
    5CHL1  H15A  315   1.998   4.419   9.420 -0.7770  1.1873 -2.2450
    5CHL1  H15B  316   1.886   4.283   9.493 -1.3259  1.2095  0.4541
    5CHL1   C16  317   1.834   4.367   9.291  0.0024  0.4841  0.0606
    5CHL1  H16A  318   1.910   4.368   9.209  0.7842 -1.4251  0.7048
    5CHL1  H16B  319   1.781   4.270   9.287  2.4832 -1.0656  1.7021
    5CHL1   C17  320   1.741   4.494   9.281  0.7891 -0.8809 -0.3856
    5CHL1   H17  321   1.641   4.451   9.304  0.8479 -1.7479 -1.6382
    5CHL1   C13  322   1.781   4.589   9.393 -0.6713 -0.1832  0.7432
    5CHL1   C18  323   1.903   4.669   9.335 -0.9495 -0.7081  0.1076
    5CHL1  H18A  324   1.858   4.747   9.269 -0.1551 -2.0114 -2.0731
    5CHL1  H18B  325   1.961   4.712   9.420  0.3129 -0.4863 -0.8370
    5CHL1  H18C  326   1.968   4.609   9.268  0.1022  1.6007 -1.0859
    5CHL1   C12  327   1.671   4.683   9.448 -1.1367  0.9323  0.1089
    5CHL1  H12A  328   1.647   4.763   9.376 -1.4903  1.7318  1.0909
    5CHL1  H12B  329   1.584   4.620   9.476 -0.8898  0.4559 -0.1750
    5CHL1   C11  330   1.720   4.750   9.577 -0.3839 -0.5252 -0.6169
    5CHL1  H11A  331   1.807   4.812   9.546 -1.5430  1.4082 -0.1948
    5CHL1  H11B  332   1.647   4.816   9.627 -0.3245 -2.1355  1.7298
    5CHL1    C9  333   1.764   4.646   9.679 -0.1006  0.3189 -1.4584
    5CHL1    H9  334   1.680   4.577   9.696  1.4082 -0.7400  3.0602
    5CHL1   C10  335   1.813   4.707   9.817  0.3800 -0.6440  0.2381
    5CHL1   C19  336   1.917   4.824   9.787 -0.2713  0.0075  0.4753
    5CHL1  H19A  337   1.976   4.841   9.880 -3.2249  0.5462  2.3573
    5CHL1  H19B  338   1.988   4.788   9.709 -0.7817  0.8187 -0.3790
    5CHL1  H19C  339   1.865   4.918   9.761 -0.8770 -0.5582 -0.3967
    5CHL1    C1  340   1.691   4.776   9.885 -0.2102 -0.5765 -0.2316
    5CHL1   H1A  341   1.653   4.856   9.818  0.1281  0.2898  0.6010
    5CHL1   H1B  342   1.622   4.691   9.905 -3.6709  2.5536  2.7277
    5CHL1    C2  343   1.709   4.839  10.030  0.2088  0.2456 -0.2849
    5CHL1   H2A  344   1.616   4.886  10.070 -0.8690 -1.4677 -0.6492
    5CHL1   H2B  345   1.785   4.919  10.026  0.6269 -0.0153  1.5225
    5CHL1   C20  346   1.731   4.541   9.135  0.1903 -0.0856  0.2505
    5CHL1   H20  347   1.813   4.607   9.101  0.6078 -0.6150  0.2150
    5CHL1   C21  348   1.606   4.631   9.131  0.3713 -0.2424 -0.5573
    5CHL1  H21A  349   1.608   4.722   9.195  3.9120 -1.2345  1.0004
    5CHL1  H21B  350   1.519   4.563   9.144  0.7245 -0.5056  0.5291
    5CHL1  H21C  351   1.606   4.674   9.029 -1.8085 -2.4995 -1.6259
    5CHL1   C22  352   1.723   4.417   9.037 -0.5736 -0.0542  0.4594
    5CHL1  H22A  353   1.813   4.351   9.033  1.0054  2.0371 -1.3497
    5CHL1  H22B  354   1.641   4.351   9.071 -0.1547 -0.4784  0.6656
    5CHL1   C23  355   1.695   4.464   8.892 -0.7833 -0.3359  0.7584
    5CHL1  H23A  356   1.607   4.531   8.889 -0.6729 -0.1290  1.7456
    5CHL1  H23B  357   1.779   4.530   8.859 -1.6020  0.5982  0.5166
    5CHL1   C24  358   1.698   4.351   8.793 -1.0515  0.1658  0.4185
    5CHL1  H24A  359   1.801   4.308   8.791 -0.6421  1.0893 -2.2963
    5CHL1  H24B  360   1.622   4.279   8.830 -0.7867 -0.0716  0.5090
    5CHL1   C25  361   1.657   4.392   8.647  0.4282 -0.0119  0.2431
    5CHL1   H25  362   1.721   4.478   8.619  0.4095 -0.0035  0.2255
    5CHL1   C26  363   1.686   4.280   8.548 -0.2239 -0.0184 -0.3292
    5CHL1  H26A  364   1.787   4.235   8.562 -0.5569 -0.6724 -0.0381
    5CHL1  H26B  365   1.633   4.183   8.559  0.9162 -0.7218 -0.8629
    5CHL1  H26C  366   1.700   4.307   8.440  4.8576 -0.7760 -0.1354
    5CHL1   C27  367   1.506   4.436   8.630  0.4973 -0.1715 -0.1580
    5CHL1  H27A  368   1.497   4.488   8.533 -0.7585  1.6050  0.8481
    5CHL1  H27B  369   1.435   4.350   8.634 -1.0880  1.0870  3.4986
    5CHL1  H27C  370   1.476   4.512   8.705 -0.6308 -0.1087 -0.6560
    6CHL1    C3  371   1.523   2.140  10.430  0.0528 -0.2788 -0.0627
    6CHL1    H3  372   1.441   2.191  10.375 -0.9140 -3.1113 -1.4375
    6CHL1    O3  373   1.510   2.138  10.570  0.7015 -0.3720 -1.2807
    6CHL1   H3'  374   1.457   2.061  10.592 -0.2050  0.9109  1.4937
    6CHL1    C4  375   1.524   1.995  10.382 -0.0169 -0.0257  0.0742
    6CHL1   H4A  376   1.611   1.946  10.431  0.5297  0.3579 -0.5015
    6CHL1   H4B  377   1.434   1.946  10.424  0.6204 -0.0141  1.5134
    6CHL1    C5  378   1.538   2.000  10.232 -0.7339 -0.2808 -0.2753
    6CHL1    C6  379   1.440   1.955  10.154 -0.3345 -0.7985 -0.6824
    6CHL1    H6  380   1.347   1.925  10.204  0.0601 -0.2282  0.4119
    6CHL1    C7  381   1.464   1.940  10.004  0.0007  0.4257 -0.1362
    6CHL1   H7A  382   1.434   1.837   9.974  0.6582  0.6596 -1.6808
    6CHL1   H7B  383   1.391   2.002   9.949  0.5926  0.6490 -0.6839
    6CHL1    C8  384   1.611   1.967   9.949  0.0375 -0.5561 -0.3801
    6CHL1    H8  385   1.677   1.879   9.959  0.7326  0.0100  0.0592
    6CHL1   C14  386   1.609   1.989   9.802 -0.5160 -0.0164  0.5732
    6CHL1   H14  387   1.557   2.086   9.787  0.9361  0.5099 -1.4215
    6CHL1   C15  388   1.526   1.892   9.709  0.3508  0.5386 -0.0991
    6CHL1  H15A  389   1.565   1.793   9.739 -1.8524  0.0680  1.4611
    6CHL1  H15B  390   1.414   1.889   9.709  0.3448 -2.7244 -0.2420
    6CHL1   C16  391   1.588   1.923   9.573  0.3140 -0.2530  0.2314
    6CHL1  H16A  392   1.642   1.831   9.542 -2.0969 -1.5879 -0.2406
    6CHL1  H16B  393   1.516   1.951   9.493  2.9206 -1.3801 -2.7399
    6CHL1   C17  394   1.706   2.033   9.592  0.3673  0.4241  0.5451
    6CHL1   H17  395   1.663   2.135   9.587 -0.5976  0.0732  1.3731
    6CHL1   C13  396   1.746   2.021   9.737 -0.1175 -0.2960  0.1396
    6CHL1   C18  397   1.851   1.908   9.771 -0.3780  0.2072 -0.1890
    6CHL1  H18A  398   1.951   1.926   9.727 -0.2164 -0.9010 -0.3028
    6CHL1  H18B  399   1.858   1.909   9.882 -0.9605 -0.6683 -0.1269
    6CHL1  H18C  400   1.816   1.807   9.738 -1.1479  1.2027 -2.6136
    6CHL1   C12  401   1.799   2.159   9.801  0.0151  0.0622 -0.3115
    6CHL1  H12A  402   1.903   2.182   9.767  0.4116 -0.0992  0.7774
    6CHL1  H12B  403   1.730   2.241   9.773 -0.5650 -0.5389 -0.6604
    6CHL1   C11  404   1.805   2.154   9.957  0.0678  0.7110 -0.1827
    6CHL1  H11A  405   1.898   2.109   9.999 -0.9370 -0.6816  0.6219
    6CHL1  H11B  406   1.797   2.259   9.992 -2.4225  0.4728  0.1160
    6CHL1    C9  407   1.671   2.089  10.020  0.2538 -0.7537 -0.2814
    6CHL1    H9  408   1.595   2.169  10.011 -0.2050 -1.2031 -0.5025
    6CHL1   C10  409   1.676   2.060  10.178 -0.1329  0.1776  0.1659
    6CHL1   C19  410   1.803   1.970  10.209  0.7318  0.2273  0.8291
    6CHL1  H19A  411   1.897   2.026  10.187  0.5441 -0.6319 -2.8632
    6CHL1  H19B  412   1.807   1.942  10.317 -0.4705 -3.3352  0.0960
    6CHL1  H19C  413   1.803   1.888  10.134 -0.0428  2.5116 -1.8565
    6CHL1    C1  414   1.694   2.200  10.249 -0.1953  0.3034  0.3668
    6CHL1   H1A  415   1.786   2.249  10.210 -0.9246  1.5403  0.1241
    6CHL1   H1B  416   1.621   2.265  10.196 -0.3007 -0.3802 -0.3441
    6CHL1    C2  417   1.662   2.204  10.397 -0.2453  0.3120  0.2410
    6CHL1   H2A  418   1.647   2.309  10.430 -3.2930  0.6420 -1.7970
    6CHL1   H2B  419   1.747   2.150  10.446 -1.3151 -1.0340  0.6752
    6CHL1   C20  420   1.815   2.021   9.489 -0.2208 -0.2331  0.1158
    6CHL1   H20  421   1.853   1.917   9.501  1.2473  0.1523 -0.9303
    6CHL1   C21  422   1.927   2.128   9.514  0.9068 -0.3660 -0.1158
    6CHL1  H21A  423   1.979   2.114   9.612 -0.8641  2.0768  1.3149
    6CHL1  H21B  424   1.889   2.232   9.513  0.3520 -0.5421  1.0439
    6CHL1  H21C  425   1.998   2.128   9.429  0.7054 -0.9232 -0.2879
    6CHL1   C22  426   1.759   2.027   9.342 -0.2010 -0.2486  0.0539
    6CHL1  H22A  427   1.689   1.942   9.325  1.7890 -1.7362 -1.1907
    6CHL1  H22B  428   1.715   2.128   9.335  0.9847  0.2519 -0.4518
    6CHL1   C23  429   1.847   2.021   9.225 -0.1575  0.6722 -0.0075
    6CHL1  H23A  430   1.922   2.102   9.241  0.0466  0.5346 -0.2559
    6CHL1  H23B  431   1.899   1.925   9.205  1.2972  1.4930 -0.3210
    6CHL1   C24  432   1.776   2.050   9.097 -0.3667 -0.1882  0.4867
    6CHL1  H24A  433   1.727   1.966   9.043  0.3871 -1.1617  1.2686
    6CHL1  H24B  434   1.700   2.125   9.125  1.0845  1.4138  0.2851
    6CHL1   C25  435   1.883   2.122   9.001 -0.3035 -0.5005 -0.1691
    6CHL1   H25  436   1.921   2.213   9.050  0.3646  0.4832 -2.4137
    6CHL1   C26  437   2.000   2.030   8.970  0.5596 -0.1331 -0.6019
    6CHL1  H26A  438   2.071   2.091   8.910 -0.6550  1.6690 -0.3019
    6CHL1  H26B  439   2.058   2.001   9.060 -1.1454  0.1569  0.6494
    6CHL1  H26C  440   1.979   1.933   8.920  0.2773 -0.3636 -0.0393
    6CHL1   C27  441   1.804   2.174   8.875 -0.2681 -0.1741 -0.8673
    6CHL1  H27A  442   1.866   2.230   8.802  1.0023 -1.9385 -1.2124
    6CHL1  H27B  443   1.762   2.096   8.808 -0.3824 -0.1027 -0.8804
    6CHL1  H27C  444   1.720   2.240   8.906 -0.0153 -0.9090  1.5878
    7CHL1    C3  445   2.308   5.095  10.061  0.4342 -0.1080  1.0821
    7CHL1    H3  446   2.320   4.987  10.042  0.8742  0.3307 -1.4832
    7CHL1    O3  447   2.328   5.118  10.198  0.2033 -0.0459 -0.6791
    7CHL1   H3'  448   2.408   5.071  10.224  0.2967  0.4595 -0.0447
    7CHL1    C4  449   2.411   5.174   9.974 -0.2451  0.1963 -0.1002
    7CHL1   H4A  450   2.392   5.282   9.992 -0.0083  0.4246 -1.1103
    7CHL1   H4B  451   2.511   5.150  10.015 -0.9760 -1.3425  0.8943
    7CHL1    C5  452   2.390   5.149   9.822  0.3525 -0.7334 -0.1663
    7CHL1    C6  453   2.495   5.110   9.752 -0.1194  0.2590 -0.1407
    7CHL1    H6  454   2.593   5.103   9.802 -0.5562  1.0088  0.8628
    7CHL1    C7  455   2.486   5.078   9.606  0.5773 -0.0226 -0.1765
    7CHL1   H7A  456   2.570   5.120   9.548  1.1132  0.2427  0.7750
    7CHL1   H7B  457   2.498   4.968   9.596  0.8894  0.1958 -2.8689
    7CHL1    C8  458   2.348   5.113   9.541 -0.4886 -0.4217 -0.9542
    7CHL1    H8  459   2.354   5.221   9.518  2.6497 -0.3128 -0.0855
    7CHL1   C14  460   2.319   5.042   9.410 -0.5220 -0.2127  0.9585
    7CHL1   H14  461   2.300   4.934   9.430 -1.3497 -0.3655 -0.5407
    7CHL1   C15  462   2.437   5.038   9.302  0.0055  0.7469 -0.2710
    7CHL1  H15A  463   2.471   5.143   9.298  1.5040  0.5004  2.7849
    7CHL1  H15B  464   2.530   4.990   9.339  0.3680  1.6517  0.0229
    7CHL1   C16  465   2.367   4.991   9.175  0.4649  0.1824  0.1352
    7CHL1  H16A  466   2.396   5.059   9.092  0.5609 -1.7667 -1.5174
    7CHL1  H16B  467   2.390   4.886   9.147  1.3805  0.4090  0.0269
    7CHL1   C17  468   2.211   5.000   9.207 -0.3232 -0.7267 -0.2567
    7CHL1   H17  469   2.174   4.902   9.244  0.9887 -1.8236 -1.7340
    7CHL1   C13  470   2.192   5.093   9.333 -0.4271 -0.1543 -0.2103
    7CHL1   C18  471   2.201   5.238   9.287  0.3914  0.3179  0.0966
    7CHL1  H18A  472   2.118   5.262   9.217  1.2881  2.1399 -0.4018
    7CHL1  H18B  473   2.194   5.305   9.374  0.3597  0.3466  0.0716
    7CHL1  H18C  474   2.289   5.259   9.222  0.2634 -2.3384 -1.1044
    7CHL1   C12  475   2.075   5.061   9.423  0.7139 -0.5413  0.0258
    7CHL1  H12A  476   1.984   5.105   9.377  1.9875  3.3685  0.9027
    7CHL1  H12B  477   2.055   4.951   9.429  1.6821 -0.6509  1.4934
    7CHL1   C11  478   2.097   5.117   9.565 -0.1602  0.3121  0.7904
    7CHL1  H11A  479   2.077   5.226   9.552  2.4142  0.6327 -1.1764
    7CHL1  H11B  480   2.005   5.083   9.618  0.2187 -1.3297  0.4538
    7CHL1    C9  481   2.229   5.090   9.640 -0.0631  0.2402 -0.5817
    7CHL1    H9  482   2.232   4.981   9.658 -0.5949  0.2327 -0.5438
    7CHL1   C10  483   2.242   5.161   9.777 -0.1628  0.0326  0.1784
    7CHL1   C19  484   2.207   5.309   9.746  0.6271 -0.5427 -0.4307
    7CHL1  H19A  485   2.097   5.320   9.737  0.6279  1.4201  1.0269
    7CHL1  H19B  486   2.237   5.376   9.830 -3.1402  1.1247 -0.2007
    7CHL1  H19C  487   2.252   5.348   9.652  0.7631 -0.1495 -0.2048
    7CHL1    C1  488   2.139   5.099   9.876  0.1642  1.1146  0.2459
    7CHL1   H1A  489   2.035   5.118   9.845 -0.4329 -2.7537 -0.6181
    7CHL1   H1B  490   2.153   4.989   9.866  0.4909  1.1713  0.0352
    7CHL1    C2  491   2.162   5.136  10.023  0.9518  0.2369 -0.2228
    7CHL1   H2A  492   2.105   5.065  10.086  0.8560  1.2657  0.8834
    7CHL1   H2B  493   2.147   5.241  10.057  0.9937  0.6102 -1.3194
    7CHL1   C20  494   2.131   5.033   9.078 -0.1326  0.2098  0.4383
    7CHL1   H20  495   2.164   5.133   9.042 -1.4735  0.5524  0.1008
    7CHL1   C21  496   1.982   5.037   9.106  0.0442 -0.5955  1.3433
    7CHL1  H21A  497   1.958   5.134   9.155  0.4582  0.3195 -0.1731
    7CHL1  H21B  498   1.942   4.956   9.171  1.1500 -0.8458  1.7178
    7CHL1  H21C  499   1.927   5.051   9.010  0.8863 -0.5743  0.8589
    7CHL1   C22  500   2.157   4.918   8.965  0.3272 -0.1061 -0.0241
    7CHL1  H22A  501   2.264   4.891   8.963  0.7101  1.3253 -0.7654
    7CHL1  H22B  502   2.105   4.827   9.002 -1.8968  1.7860  1.8290
    7CHL1   C23  503   2.107   4.954   8.825 -0.1191  0.4442 -0.0429
    7CHL1  H23A  504   2.016   5.018   8.829 -0.1205  0.4018  0.9854
    7CHL1  H23B  505   2.187   5.019   8.785  1.3177 -0.9391  0.4889
    7CHL1   C24  506   2.091   4.829   8.733  0.4044 -0.0109 -0.0333
    7CHL1  H24A  507   2.185   4.770   8.746  1.0760  0.7333 -1.2620
    7CHL1  H24B  508   2.006   4.767   8.769 -0.4955  1.7556  0.9813
    7CHL1   C25  509   2.053   4.859   8.584  1.8176 -0.0974  0.0525
    7CHL1   H25  510   2.132   4.925   8.542  1.9111  0.4995  1.1311
    7CHL1   C26  511   2.049   4.732   8.494 -0.1647 -0.3095  0.0832
    7CHL1  H26A  512   1.958   4.672   8.515  0.7461 -1.6364  0.3829
    7CHL1  H26B  513   2.057   4.766   8.389 -0.7858  2.0692  0.7236
    7CHL1  H26C  514   2.138   4.668   8.510 -0.6050 -1.1866 -0.9323
    7CHL1   C27  515   1.920   4.928   8.559 -0.7326 -0.4784  0.1372
    7CHL1  H27A  516   1.915   4.936   8.448  0.4503 -0.2699  0.0834
    7CHL1  H27B  517   1.835   4.863   8.588 -0.0260 -1.1644  0.7114
    7CHL1  H27C  518   1.922   5.025   8.613  2.6733  0.9080 -2.0988
    8CHL1    C3  519   4.070   1.394  10.225  0.1934 -0.4662 -0.0516
    8CHL1    H3  520   3.972   1.351  10.197 -0.8763  0.4919  2.0041
    8CHL1    O3  521   4.116   1.353  10.350  0.3944 -0.0596 -0.1812
    8CHL1   H3'  522   4.210   1.375  10.348  0.4507 -0.1899  0.5888
    8CHL1    C4  523   4.175   1.361  10.121  0.2783  0.0327  0.1054
    8CHL1   H4A  524   4.275   1.404  10.143  0.8833 -0.0708 -2.1906
    8CHL1   H4B  525   4.177   1.250  10.118 -0.7497  0.0272 -0.7254
    8CHL1    C5  526   4.138   1.408   9.978 -0.9441 -0.3449  0.1485
    8CHL1    C6  527   4.124   1.323   9.872 -0.3530 -0.3541  0.5873
    8CHL1    H6  528   4.151   1.217   9.881 -0.8361 -0.7377 -1.9002
    8CHL1    C7  529   4.085   1.372   9.737 -0.3663  0.6505  0.2944
    8CHL1   H7A  530   4.155   1.327   9.664  0.4117 -0.4788  1.7006
    8CHL1   H7B  531   3.983   1.345   9.701  0.2505  1.8191 -2.6015
    8CHL1    C8  532   4.089   1.523   9.717 -0.1533  0.4882 -0.5855
    8CHL1    H8  533   4.198   1.540   9.714  0.0381 -0.6764 -1.0300
    8CHL1   C14  534   4.020   1.563   9.592  0.1936 -0.0348 -0.8973
    8CHL1   H14  535   3.912   1.544   9.608  0.2978 -0.1897 -0.3415
    8CHL1   C15  536   4.062   1.492   9.461  0.4821 -0.2698  0.4571
    8CHL1  H15A  537   4.172   1.483   9.465  0.4773 -0.6585 -0.1843
    8CHL1  H15B  538   4.017   1.390   9.460  1.1150 -0.6359  2.9284
    8CHL1   C16  539   4.017   1.585   9.343  0.1612  0.1624 -0.5515
    8CHL1  H16A  540   4.107   1.609   9.282  0.2644 -0.4429 -0.6436
    8CHL1  H16B  541   3.936   1.529   9.291  0.6372 -0.9125 -0.1802
    8CHL1   C17  542   3.966   1.715   9.416  0.1541  0.5612  0.9144
    8CHL1   H17  543   3.858   1.701   9.437 -0.7452  2.8850 -1.4810
    8CHL1   C13  544   4.025   1.716   9.558  0.3579 -0.6360  0.0240
    8CHL1   C18  545   4.174   1.765   9.552  0.0475 -0.0200  0.7335
    8CHL1  H18A  546   4.227   1.740   9.646  1.7042 -0.9282 -0.3957
    8CHL1  H18B  547   4.231   1.715   9.471 -0.7172  0.9637 -0.4444
    8CHL1  H18C  548   4.177   1.872   9.521 -1.8211  0.1965  1.1367
    8CHL1   C12  549   3.961   1.785   9.680 -0.0870 -0.4462 -0.3829
    8CHL1  H12A  550   3.958   1.895   9.669 -0.0600 -0.6625 -4.0925
    8CHL1  H12B  551   3.854   1.756   9.682 -0.9615  2.5244  0.4286
    8CHL1   C11  552   4.027   1.756   9.814  0.2073  0.1211 -0.1693
    8CHL1  H11A  553   4.124   1.809   9.819 -0.8588  2.5527 -2.5945
    8CHL1  H11B  554   3.965   1.795   9.898 -2.0360 -1.3428 -1.0643
    8CHL1    C9  555   4.029   1.601   9.832 -0.5076 -1.1073 -0.4821
    8CHL1    H9  556   3.925   1.562   9.837 -0.8533 -0.0964  0.9642
    8CHL1   C10  557   4.099   1.557   9.971  0.3472 -0.2334 -0.3544
    8CHL1   C19  558   4.224   1.643   9.989  0.5558  0.1666  0.5572
    8CHL1  H19A  559   4.285   1.640   9.896 -1.8099 -2.1439 -1.0531
    8CHL1  H19B  560   4.191   1.747  10.011  1.8448  0.9804 -1.1210
    8CHL1  H19C  561   4.284   1.614  10.078  1.6601 -0.3795 -0.3397
    8CHL1    C1  562   4.005   1.590  10.090  0.6419  0.1490 -0.0566
    8CHL1   H1A  563   3.999   1.701  10.097  0.5133  0.2341 -1.3001
    8CHL1   H1B  564   3.907   1.544  10.066  0.8795  0.2611 -1.3035
    8CHL1    C2  565   4.043   1.550  10.228 -0.8975  0.1846  0.1287
    8CHL1   H2A  566   3.965   1.576  10.303  0.5443  2.4102  0.9384
    8CHL1   H2B  567   4.131   1.613  10.252 -1.4519  1.0627 -0.0777
    8CHL1   C20  568   3.975   1.852   9.334  0.3765 -0.1585 -0.0636
    8CHL1   H20  569   4.074   1.899   9.352  0.5874 -0.7420  0.2949
    8CHL1   C21  570   3.874   1.959   9.387 -0.0505 -0.0384  0.4397
    8CHL1  H21A  571   3.776   1.910   9.405  0.2768 -0.6875  0.4891
    8CHL1  H21B  572   3.858   2.056   9.335 -0.0750  0.2344  0.9478
    8CHL1  H21C  573   3.905   1.984   9.491 -1.4273  1.6823  0.4841
    8CHL1   C22  574   3.966   1.832   9.183 -0.1895  0.8491 -0.4982
    8CHL1  H22A  575   3.980   1.926   9.126 -1.8756 -0.2541 -2.9164
    8CHL1  H22B  576   4.055   1.773   9.153  2.5886  4.7023 -0.4797
    8CHL1   C23  577   3.836   1.770   9.123 -0.2936  0.0921  0.5428
    8CHL1  H23A  578   3.824   1.668   9.165  2.6366  0.0446  1.4730
    8CHL1  H23B  579   3.743   1.820   9.159 -1.9415 -3.0215  0.9378
    8CHL1   C24  580   3.833   1.747   8.969 -0.0174 -1.1665 -0.0179
    8CHL1  H24A  581   3.734   1.706   8.939  0.4508 -1.4326 -1.2776
    8CHL1  H24B  582   3.840   1.846   8.920 -0.8644 -0.5854  1.0043
    8CHL1   C25  583   3.940   1.648   8.921  0.0862 -0.2167 -0.0166
    8CHL1   H25  584   4.031   1.710   8.935  0.4784 -1.1669  1.9556
    8CHL1   C26  585   3.956   1.516   8.999  0.1327 -0.2540  0.7979
    8CHL1  H26A  586   3.992   1.544   9.101 -0.1952  1.3361  0.5032
    8CHL1  H26B  587   3.859   1.463   9.008 -0.0811 -0.6831 -2.7318
    8CHL1  H26C  588   4.025   1.442   8.954 -1.8924 -2.7975  1.6440
    8CHL1   C27  589   3.913   1.622   8.769 -0.7853  0.7193 -0.2905
    8CHL1  H27A  590   3.991   1.562   8.717 -2.1388 -0.0556 -1.4764
    8CHL1  H27B  591   3.814   1.575   8.751 -1.1652  1.5224 -0.3204
    8CHL1  H27C  592   3.910   1.720   8.717  2.2608  0.1446 -1.7995
    9CHL1    C3  593   2.484   2.822  10.325  0.1034  0.5236  0.3711
    9CHL1    H3  594   2.536   2.727  10.297 -0.8040 -0.4407  1.8503
    9CHL1    O3  595   2.472   2.828  10.466  0.7588 -0.0115  1.1959
    9CHL1   H3'  596   2.387   2.785  10.476  0.2784  0.5331 -0.2578
    9CHL1    C4  597   2.574   2.940  10.280  0.2895 -0.1946  0.4296
    9CHL1   H4A  598   2.534   3.040  10.310  0.6776  0.5958 -1.5241
    9CHL1   H4B  599   2.673   2.919  10.324 -0.3326 -2.1396  0.9856
    9CHL1    C5  600   2.573   2.946  10.132  0.0426  0.2652  0.1151
    9CHL1    C6  601   2.689   2.938  10.066 -0.2365 -0.6366  0.1242
    9CHL1    H6  602   2.781   2.930  10.124 -0.0961 -1.8494 -0.2269
    9CHL1    C7  603   2.710   2.932   9.918  0.4766 -0.6237 -0.9216
    9CHL1   H7A  604   2.802   2.992   9.898  1.6436 -1.3554  1.8171
    9CHL1   H7B  605   2.730   2.830   9.877  0.0399 -1.4394  0.8044
    9CHL1    C8  606   2.589   2.997   9.858  0.0807 -0.3159  0.1130
    9CHL1    H8  607   2.585   3.104   9.890 -0.5750  0.5358 -2.5021
    9CHL1   C14  608   2.601   2.979   9.709 -0.3587 -0.1810 -0.0482
    9CHL1   H14  609   2.615   2.869   9.699  0.6849 -0.2136  1.4541
    9CHL1   C15  610   2.712   3.053   9.637 -0.1050 -0.3820  0.5451
    9CHL1  H15A  611   2.723   3.150   9.690 -2.8762  0.2047  0.1680
    9CHL1  H15B  612   2.811   3.002   9.646 -0.5757 -1.3172  0.5330
    9CHL1   C16  613   2.674   3.056   9.493 -0.7258 -0.4952 -0.9606
    9CHL1  H16A  614   2.670   3.157   9.445  0.4367 -0.3946 -0.8755
    9CHL1  H16B  615   2.742   2.997   9.427 -0.5936 -1.4598  0.0234
    9CHL1   C17  616   2.529   2.999   9.487 -0.5768 -0.0800  0.3277
    9CHL1   H17  617   2.531   2.889   9.470  1.6603  0.2588 -2.2465
    9CHL1   C13  618   2.479   3.021   9.627  0.8114 -0.7355 -0.4632
    9CHL1   C18  619   2.448   3.170   9.652  0.4540  0.2058  0.0782
    9CHL1  H18A  620   2.426   3.172   9.761  0.5913  0.5196  0.0996
    9CHL1  H18B  621   2.529   3.240   9.623  0.4514  0.4486  0.6571
    9CHL1  H18C  622   2.351   3.195   9.604  1.1675  0.5061 -1.2429
    9CHL1   C12  623   2.361   2.935   9.674 -0.4734 -0.0268  0.1759
    9CHL1  H12A  624   2.263   2.957   9.626 -0.8638 -1.8569  0.0592
    9CHL1  H12B  625   2.375   2.826   9.657 -0.4663  0.1410 -0.9648
    9CHL1   C11  626   2.335   2.936   9.823  0.0949 -0.2305 -0.0944
    9CHL1  H11A  627   2.287   3.034   9.843 -1.4547 -0.3033 -3.0026
    9CHL1  H11B  628   2.265   2.852   9.841  1.0881 -0.8631  0.9590
    9CHL1    C9  629   2.462   2.919   9.912  0.5919 -0.1159  0.6013
    9CHL1    H9  630   2.486   2.814   9.884  0.2997  0.2528 -1.1485
    9CHL1   C10  631   2.442   2.937  10.065  0.6703  0.7760 -1.1521
    9CHL1   C19  632   2.364   3.065  10.092  1.0273  0.1109  0.3329
    9CHL1  H19A  633   2.367   3.111  10.193  1.5700 -0.8278  0.7644
    9CHL1  H19B  634   2.392   3.141  10.017  1.9439 -1.2753 -0.7850
    9CHL1  H19C  635   2.256   3.050  10.070  1.2770 -0.8826 -0.2701
    9CHL1    C1  636   2.355   2.821  10.113 -0.0200  0.0558  0.0493
    9CHL1   H1A  637   2.255   2.809  10.065  1.6273 -1.9428 -3.2421
    9CHL1   H1B  638   2.408   2.728  10.086 -1.0451 -0.0380 -1.7977
    9CHL1    C2  639   2.345   2.821  10.267  0.1451  0.5923  0.2134
    9CHL1   H2A  640   2.294   2.726  10.293 -0.8456  1.1600  0.3603
    9CHL1   H2B  641   2.281   2.911  10.273  0.0809  0.7533 -2.0556
    9CHL1   C20  642   2.454   3.061   9.372 -0.9434  0.1697  0.4715
    9CHL1   H20  643   2.433   3.168   9.392  0.8448  0.3693  1.5860
    9CHL1   C21  644   2.316   2.987   9.355  0.0543 -0.2823 -0.7714
    9CHL1  H21A  645   2.267   3.006   9.257 -1.2738 -0.6762 -0.2099
    9CHL1  H21B  646   2.244   3.016   9.436 -0.6431 -2.1556 -0.6796
    9CHL1  H21C  647   2.318   2.877   9.370 -0.0027 -0.0256  1.5874
    9CHL1   C22  648   2.530   3.050   9.232  0.2938  0.3416  0.2809
    9CHL1  H22A  649   2.458   3.072   9.150 -1.6989 -1.9662  1.2655
    9CHL1  H22B  650   2.608   3.129   9.234  1.0528 -0.3906  0.1455
    9CHL1   C23  651   2.592   2.912   9.209  0.0250  0.0347 -0.0250
    9CHL1  H23A  652   2.695   2.911   9.252 -0.2382 -1.1055  0.6218
    9CHL1  H23B  653   2.538   2.833   9.265 -0.5534  0.9131  0.6641
    9CHL1   C24  654   2.598   2.861   9.058  0.1284  0.3772  0.7320
    9CHL1  H24A  655   2.619   2.752   9.047  0.8274  0.6462 -0.8212
    9CHL1  H24B  656   2.495   2.865   9.016  0.8700 -0.5610 -1.2974
    9CHL1   C25  657   2.687   2.935   8.962 -0.0485  0.0281 -0.2601
    9CHL1   H25  658   2.640   3.034   8.978 -0.2434 -0.2580  1.0387
    9CHL1   C26  659   2.833   2.954   9.022  0.8370  0.0941  0.3296
    9CHL1  H26A  660   2.899   2.996   8.943  2.3194 -2.5554  0.0372
    9CHL1  H26B  661   2.829   3.011   9.117 -1.8436 -1.4244  1.2332
    9CHL1  H26C  662   2.879   2.855   9.044  0.7214  0.1966  1.0276
    9CHL1   C27  663   2.681   2.886   8.814 -0.0139  0.5331 -0.8131
    9CHL1  H27A  664   2.578   2.900   8.775  0.1471  0.8138 -1.1335
    9CHL1  H27B  665   2.738   2.962   8.758 -0.1744 -0.0696 -1.8228
    9CHL1  H27C  666   2.722   2.783   8.808 -1.2010 -0.1012  0.9432
   10CHL1    C3  667   0.553   4.140  10.028  0.3253 -0.4735  0.1732
   10CHL1    H3  668   0.443   4.133  10.013  0.4859 -1.3891 -0.6019
   10CHL1    O3  669   0.585   4.230  10.139  0.7092 -0.1335 -0.4383
   10CHL1   H3'  670   0.681   4.231  10.140  0.7692 -2.1971 -1.0149
   10CHL1    C4  671   0.613   4.000  10.058 -0.2305 -0.2798  0.0717
   10CHL1   H4A  672   0.714   4.007  10.102 -1.4841 -0.6131  3.2524
   10CHL1   H4B  673   0.553   3.956  10.140 -1.1713  0.4961 -0.1697
   10CHL1    C5  674   0.608   3.895   9.943  0.5086  0.2203 -0.0544
   10CHL1    C6  675   0.545   3.778   9.951 -0.7215  0.2521 -0.1927
   10CHL1    H6  676   0.508   3.744  10.049 -0.4059  0.9292  0.1652
   10CHL1    C7  677   0.513   3.682   9.840 -0.4833 -0.5928  0.3223
   10CHL1   H7A  678   0.533   3.576   9.869  0.0136 -0.5923 -0.0130
   10CHL1   H7B  679   0.406   3.690   9.809 -0.3547 -0.4325 -0.0921
   10CHL1    C8  680   0.604   3.705   9.717 -0.3988  0.8056 -0.1262
   10CHL1    H8  681   0.708   3.677   9.743 -0.6896 -0.1712  0.0666
   10CHL1   C14  682   0.551   3.636   9.592 -0.3449 -0.4045 -0.2465
   10CHL1   H14  683   0.446   3.669   9.576  0.0729  0.8085 -0.5843
   10CHL1   C15  684   0.536   3.482   9.596 -0.1665 -0.2440 -0.1844
   10CHL1  H15A  685   0.630   3.431   9.625 -0.2083 -0.5180 -0.5142
   10CHL1  H15B  686   0.463   3.448   9.673  0.1710 -0.2043  0.1575
   10CHL1   C16  687   0.484   3.455   9.451 -0.5246  0.6462 -0.3569
   10CHL1  H16A  688   0.524   3.357   9.416 -1.3330  1.1022 -2.7700
   10CHL1  H16B  689   0.377   3.429   9.440 -0.4440  1.1902 -3.0686
   10CHL1   C17  690   0.541   3.572   9.360 -0.5723  0.2333 -0.1329
   10CHL1   H17  691   0.448   3.625   9.330 -0.6998  0.2969  0.3591
   10CHL1   C13  692   0.618   3.663   9.459  0.3324 -0.3595  0.2563
   10CHL1   C18  693   0.767   3.617   9.476 -0.9614  0.4021 -0.2524
   10CHL1  H18A  694   0.813   3.652   9.571 -0.9796  0.4819 -0.2731
   10CHL1  H18B  695   0.765   3.507   9.494 -1.6691  0.6522  1.3375
   10CHL1  H18C  696   0.834   3.650   9.393  0.5079  0.1688  0.7970
   10CHL1   C12  697   0.616   3.815   9.429 -0.1161  0.4284  0.5166
   10CHL1  H12A  698   0.679   3.835   9.340  1.1800 -0.2118  1.2484
   10CHL1  H12B  699   0.513   3.850   9.409 -1.1133 -1.6737  1.5942
   10CHL1   C11  700   0.680   3.893   9.545  0.0641 -0.2433 -0.4988
   10CHL1  H11A  701   0.789   3.871   9.555  0.0329 -0.3949 -0.4976
   10CHL1  H11B  702   0.668   4.003   9.541  1.7694 -0.0019  0.0476
   10CHL1    C9  703   0.603   3.857   9.680 -0.5621 -0.3294  0.6062
   10CHL1    H9  704   0.494   3.875   9.665 -0.8269 -2.6260 -0.7608
   10CHL1   C10  705   0.647   3.947   9.801 -0.9664  0.4701  0.2684
   10CHL1   C19  706   0.802   3.959   9.808  0.0446 -0.3125 -0.6486
   10CHL1  H19A  707   0.833   4.024   9.723 -0.6304  0.3455 -0.4040
   10CHL1  H19B  708   0.841   4.006   9.900 -0.7333  2.9060 -1.8460
   10CHL1  H19C  709   0.852   3.864   9.778  1.1716  0.1909 -0.3901
   10CHL1    C1  710   0.584   4.089   9.787  0.1131 -0.3346 -0.7381
   10CHL1   H1A  711   0.634   4.126   9.695  1.3243 -2.3632 -0.9546
   10CHL1   H1B  712   0.473   4.098   9.779  0.1267  0.8101  0.1135
   10CHL1    C2  713   0.614   4.190   9.903  0.2191 -0.5487  0.8385
   10CHL1   H2A  714   0.561   4.287   9.891  1.3372  0.1044  1.0513
   10CHL1   H2B  715   0.723   4.209   9.908  0.1403 -0.2037  1.4792
   10CHL1   C20  716   0.607   3.533   9.228  0.0097  0.0398 -0.3557
   10CHL1   H20  717   0.702   3.484   9.259 -0.9169 -0.3051  2.1573
   10CHL1   C21  718   0.634   3.649   9.135  0.3755 -0.5155 -0.4132
   10CHL1  H21A  719   0.651   3.612   9.032 -2.5282  1.6631 -1.8440
   10CHL1  H21B  720   0.725   3.699   9.175 -1.0550  0.8003  1.3666
   10CHL1  H21C  721   0.546   3.717   9.143  1.3582  0.6995  0.6495
   10CHL1   C22  722   0.537   3.421   9.156  0.3878 -0.6510  0.1164
   10CHL1  H22A  723   0.574   3.403   9.053 -0.3207  0.6070 -0.3793
   10CHL1  H22B  724   0.543   3.329   9.217  0.4364 -0.1476  0.8803
   10CHL1   C23  725   0.382   3.443   9.141  0.4302  0.1646 -0.0666
   10CHL1  H23A  726   0.331   3.441   9.240 -2.4224 -2.0305 -1.4384
   10CHL1  H23B  727   0.370   3.535   9.079  0.6400  0.2685  0.0461
   10CHL1   C24  728   0.320   3.329   9.065 -0.3971 -0.4076  0.2742
   10CHL1  H24A  729   0.365   3.324   8.964  0.3350  3.0836  0.3108
   10CHL1  H24B  730   0.341   3.233   9.116 -1.4918 -0.4932  0.6049
   10CHL1   C25  731   0.162   3.323   9.044  0.0324  0.3460  0.3650
   10CHL1   H25  732   0.126   3.427   9.026  1.2639  0.5355 -1.3076
   10CHL1   C26  733   0.135   3.232   8.920 -0.2482  0.5330  0.8092
   10CHL1  H26A  734   0.027   3.225   8.896  0.0307  0.9139 -0.6517
   10CHL1  H26B  735   0.197   3.266   8.835 -1.0930  2.4841  0.9078
   10CHL1  H26C  736   0.164   3.128   8.947 -1.4511 -0.4003 -1.3104
   10CHL1   C27  737   0.089   3.262   9.162  0.8223  0.2412 -0.8747
   10CHL1  H27A  738   0.119   3.155   9.171 -0.4262  0.0325  1.5704
   10CHL1  H27B  739   0.109   3.313   9.259 -1.7559  0.8619 -0.6058
   10CHL1  H27C  740  -0.020   3.257   9.143  0.5544 -2.9129  0.8556
   11CHL1    C3  741   2.318   4.583  10.140  0.8048 -0.2782  0.1642
   11CHL1    H3  742   2.234   4.512  10.158  2.1201 -1.6502  1.0310
   11CHL1    O3  743   2.357   4.615  10.269  0.1598 -0.2943 -0.1600
   11CHL1   H3'  744   2.448   4.648  10.268  0.7988 -1.9463  0.4909
   11CHL1    C4  745   2.435   4.501  10.079  0.8544  0.1155  0.0777
   11CHL1   H4A  746   2.527   4.558  10.101  0.9576  0.8026 -1.8924
   11CHL1   H4B  747   2.423   4.406  10.135  0.5701 -0.0814 -0.3049
   11CHL1    C5  748   2.422   4.478   9.927 -0.2655  0.8114 -0.2568
   11CHL1    C6  749   2.446   4.359   9.862  0.3651 -0.3347 -0.7787
   11CHL1    H6  750   2.479   4.278   9.928 -3.6832 -0.8814  0.8924
   11CHL1    C7  751   2.439   4.330   9.717  0.0093  0.2992  0.0036
   11CHL1   H7A  752   2.533   4.282   9.685 -0.9376 -0.5228 -1.6781
   11CHL1   H7B  753   2.359   4.255   9.699  0.7777 -0.2679 -1.0984
   11CHL1    C8  754   2.410   4.455   9.631 -0.1482  0.0231 -0.3459
   11CHL1    H8  755   2.510   4.502   9.623  0.8537 -1.9114  0.1544
   11CHL1   C14  756   2.355   4.415   9.496 -0.9196  0.8540 -0.1881
   11CHL1   H14  757   2.253   4.375   9.516 -0.5941 -0.5135 -1.1706
   11CHL1   C15  758   2.418   4.294   9.422 -0.8164 -0.0564  0.0284
   11CHL1  H15A  759   2.526   4.317   9.420 -0.9254  0.4487 -0.8204
   11CHL1  H15B  760   2.393   4.200   9.475 -0.9781  0.7293  1.3694
   11CHL1   C16  761   2.363   4.319   9.277 -0.4643  0.8415  0.2389
   11CHL1  H16A  762   2.449   4.345   9.212 -1.2347 -0.0030 -1.1541
   11CHL1  H16B  763   2.311   4.230   9.237 -0.9034  1.0678  0.2972
   11CHL1   C17  764   2.280   4.452   9.274 -0.1760 -0.0695 -0.6063
   11CHL1   H17  765   2.172   4.427   9.286 -0.4445 -0.4971 -3.1690
   11CHL1   C13  766   2.334   4.531   9.393  0.1064  0.4158 -0.0210
   11CHL1   C18  767   2.472   4.597   9.354 -0.1551  0.1132 -0.2898
   11CHL1  H18A  768   2.554   4.529   9.325  1.7106  2.2304 -0.3053
   11CHL1  H18B  769   2.466   4.675   9.275 -0.0366 -0.3453 -0.7511
   11CHL1  H18C  770   2.511   4.651   9.443 -2.6409 -0.5325  1.2902
   11CHL1   C12  771   2.237   4.629   9.463  0.4143 -0.0500  0.0106
   11CHL1  H12A  772   2.219   4.717   9.397  0.6734  0.6883  0.9107
   11CHL1  H12B  773   2.144   4.569   9.472  0.3132 -0.1354 -1.3419
   11CHL1   C11  774   2.287   4.679   9.601 -0.2649 -0.7163 -0.1769
   11CHL1  H11A  775   2.370   4.748   9.573 -1.2823  0.7621  0.2995
   11CHL1  H11B  776   2.201   4.742   9.632  0.2349 -0.9308  1.7974
   11CHL1    C9  777   2.315   4.558   9.700 -0.4849  0.5159  0.2386
   11CHL1    H9  778   2.219   4.507   9.719 -0.2166  0.0491  0.3591
   11CHL1   C10  779   2.360   4.595   9.844 -0.1318 -0.0159 -0.2461
   11CHL1   C19  780   2.478   4.694   9.827 -0.1794  0.1593  0.2207
   11CHL1  H19A  781   2.428   4.788   9.793 -1.9690 -1.3726 -1.6346
   11CHL1  H19B  782   2.535   4.704   9.922 -0.7255 -0.1363  0.5857
   11CHL1  H19C  783   2.543   4.659   9.744 -1.1485 -0.4711 -0.2988
   11CHL1    C1  784   2.246   4.670   9.917 -0.2101 -0.1554  0.7742
   11CHL1   H1A  785   2.221   4.755   9.851  1.2519  0.3603  0.8571
   11CHL1   H1B  786   2.159   4.602   9.930  1.2648 -1.5370  5.1657
   11CHL1    C2  787   2.283   4.714  10.059  0.4813 -0.0567 -0.5748
   11CHL1   H2A  788   2.197   4.773  10.097 -0.5797 -1.0643 -1.3469
   11CHL1   H2B  789   2.363   4.791  10.065  0.6633 -0.2445 -0.5923
   11CHL1   C20  790   2.258   4.528   9.145 -0.3621  0.0532  0.1167
   11CHL1   H20  791   2.241   4.637   9.157  1.2635  0.8977 -3.8989
   11CHL1   C21  792   2.134   4.483   9.059 -0.5520  0.3062  0.5401
   11CHL1  H21A  793   2.090   4.579   9.025  0.5332  0.8994  0.7393
   11CHL1  H21B  794   2.059   4.431   9.123  0.6695  0.3175  2.0320
   11CHL1  H21C  795   2.167   4.422   8.972  0.5088 -0.3045  1.3418
   11CHL1   C22  796   2.386   4.519   9.056 -0.3979  0.3532  0.0604
   11CHL1  H22A  797   2.484   4.522   9.109  0.3680  0.5687 -1.3191
   11CHL1  H22B  798   2.384   4.419   9.008 -1.9487  1.4794 -2.4439
   11CHL1   C23  799   2.383   4.622   8.942  0.7557 -1.4864  0.3740
   11CHL1  H23A  800   2.285   4.633   8.892  2.2933  1.7517 -2.3080
   11CHL1  H23B  801   2.409   4.724   8.976  0.3257 -0.3372 -2.4891
   11CHL1   C24  802   2.478   4.583   8.824  0.4421 -1.1174 -0.1564
   11CHL1  H24A  803   2.581   4.564   8.860  0.5484 -0.7481 -0.2605
   11CHL1  H24B  804   2.436   4.486   8.791  0.6287 -2.3770  2.9679
   11CHL1   C25  805   2.495   4.684   8.710  0.6590  0.2879  0.3450
   11CHL1   H25  806   2.401   4.687   8.651  0.3240 -0.1650  0.8371
   11CHL1   C26  807   2.515   4.830   8.754 -0.3167  0.2831 -0.4042
   11CHL1  H26A  808   2.432   4.863   8.820 -0.0957  0.3701 -0.1658
   11CHL1  H26B  809   2.605   4.841   8.818 -0.3445  2.7302 -0.6959
   11CHL1  H26C  810   2.533   4.891   8.663 -1.2984  0.4068 -0.5240
   11CHL1   C27  811   2.616   4.648   8.616 -0.2820 -0.8431 -0.2316
   11CHL1  H27A  812   2.587   4.558   8.558 -1.5785  0.2966 -1.4221
   11CHL1  H27B  813   2.634   4.724   8.537 -1.9048 -0.8413 -0.6359
   11CHL1  H27C  814   2.700   4.626   8.685 -1.4510  0.4381  1.7167
   12CHL1    C3  815   5.104   1.233  10.213 -0.4322  0.2846 -0.5194
   12CHL1    H3  816   5.167   1.148  10.181 -0.9372  0.1086 -1.0764
   12CHL1    O3  817   5.115   1.267  10.352  0.1280  0.1607  0.2760
   12CHL1   H3'  818   5.060   1.197  10.387 -0.7600  0.3986 -0.5956
   12CHL1    C4  819   5.149   1.354  10.130 -0.0090 -0.3205  0.1083
   12CHL1   H4A  820   5.092   1.441  10.169  1.5473  1.1757 -0.8016
   12CHL1   H4B  821   5.257   1.369  10.153  0.4931 -1.0000 -1.6525
   12CHL1    C5  822   5.140   1.333   9.980 -0.5865  0.1091 -0.5632
   12CHL1    C6  823   5.249   1.331   9.912 -0.5631 -0.0917 -0.3075
   12CHL1    H6  824   5.343   1.353   9.964  0.1456  0.2690 -1.6725
   12CHL1    C7  825   5.254   1.299   9.769  0.0654 -0.4473 -0.1773
   12CHL1   H7A  826   5.336   1.354   9.718 -0.7928 -1.4521 -2.8056
   12CHL1   H7B  827   5.276   1.191   9.755 -0.3148 -0.2842 -2.2480
   12CHL1    C8  828   5.117   1.325   9.704  0.0018 -0.5319 -0.1513
   12CHL1    H8  829   5.086   1.432   9.700 -1.8147 -1.0552 -1.5367
   12CHL1   C14  830   5.126   1.289   9.552  0.2327 -0.3105 -0.4105
   12CHL1   H14  831   5.159   1.183   9.551 -0.1369 -0.4369  0.3212
   12CHL1   C15  832   5.225   1.366   9.466  0.4214 -0.5959 -0.2811
   12CHL1  H15A  833   5.226   1.476   9.476 -0.2135 -0.6677  0.7953
   12CHL1  H15B  834   5.333   1.339   9.476  0.0676 -1.7422  0.8838
   12CHL1   C16  835   5.172   1.333   9.325  0.3991 -0.1212 -0.1801
   12CHL1  H16A  836   5.145   1.418   9.259  1.6493 -0.2702 -0.9196
   12CHL1  H16B  837   5.240   1.268   9.265  0.5726  0.5910 -0.7645
   12CHL1   C17  838   5.034   1.252   9.335 -0.4960  0.1151  0.6546
   12CHL1   H17  839   5.054   1.143   9.341 -2.2108 -0.1455  4.2535
   12CHL1   C13  840   4.986   1.289   9.482  0.0735  0.3503 -0.4569
   12CHL1   C18  841   4.926   1.433   9.479  0.0888 -0.1419 -0.1401
   12CHL1  H18A  842   4.888   1.467   9.578  0.2213  1.4759 -0.6182
   12CHL1  H18B  843   5.001   1.499   9.430 -0.7198  0.1852 -0.9663
   12CHL1  H18C  844   4.831   1.428   9.421  0.2467 -0.4774 -0.3777
   12CHL1   C12  845   4.898   1.185   9.554  0.0620  0.0794  0.4811
   12CHL1  H12A  846   4.798   1.162   9.512 -0.0087 -2.6226  1.9199
   12CHL1  H12B  847   4.959   1.093   9.560 -0.1917 -0.2072 -0.9696
   12CHL1   C11  848   4.871   1.231   9.700 -0.3946  0.0772  0.1985
   12CHL1  H11A  849   4.821   1.330   9.704  1.6450  1.1465  2.2036
   12CHL1  H11B  850   4.805   1.158   9.751 -1.1957 -0.5507 -1.6783
   12CHL1    C9  851   5.006   1.249   9.779 -0.2399  0.5289 -0.5088
   12CHL1    H9  852   5.053   1.149   9.779  2.3923  1.6710  0.5970
   12CHL1   C10  853   5.006   1.295   9.930 -0.2606  0.1841 -0.8995
   12CHL1   C19  854   4.935   1.428   9.941  0.3513  0.3203  0.2049
   12CHL1  H19A  855   4.956   1.486   9.849 -1.3539  0.5059 -0.1013
   12CHL1  H19B  856   4.827   1.410   9.925  0.9331 -1.2062 -2.5748
   12CHL1  H19C  857   4.957   1.502  10.021  3.3104 -0.4191  0.1727
   12CHL1    C1  858   4.941   1.190  10.024 -0.4230 -0.5071  0.5585
   12CHL1   H1A  859   4.833   1.173  10.004 -0.0715 -2.2388 -0.0619
   12CHL1   H1B  860   4.986   1.088  10.015 -1.0779 -0.7612  0.1097
   12CHL1    C2  861   4.952   1.211  10.182 -0.2994 -0.7955  0.1807
   12CHL1   H2A  862   4.909   1.124  10.236 -2.1505  0.8955  1.5935
   12CHL1   H2B  863   4.906   1.308  10.210 -1.1685 -0.2939 -2.7094
   12CHL1   C20  864   4.944   1.275   9.212 -0.0146  0.5734 -0.2672
   12CHL1   H20  865   4.898   1.376   9.209  1.4736  1.3739  2.0185
   12CHL1   C21  866   4.819   1.182   9.227  0.0620  0.4368  0.3729
   12CHL1  H21A  867   4.854   1.087   9.274 -0.6265 -1.1260 -2.1080
   12CHL1  H21B  868   4.763   1.161   9.134 -0.5081  1.6455  0.4367
   12CHL1  H21C  869   4.751   1.219   9.306  0.1821  0.4644  0.4645
   12CHL1   C22  870   5.011   1.257   9.074  0.1921 -0.2345 -0.1089
   12CHL1  H22A  871   5.104   1.319   9.069 -0.3820  0.8361  1.5924
   12CHL1  H22B  872   5.038   1.150   9.066 -1.5656 -0.6349 -1.0951
   12CHL1   C23  873   4.929   1.301   8.954  0.0587  0.3608  0.1427
   12CHL1  H23A  874   4.853   1.223   8.931  2.6350 -1.3184 -3.5064
   12CHL1  H23B  875   4.886   1.399   8.985 -0.8072  0.8465 -2.3762
   12CHL1   C24  876   5.000   1.329   8.820  0.4687  0.4432  0.3975
   12CHL1  H24A  877   5.085   1.399   8.833  1.3029 -0.3732 -0.4666
   12CHL1  H24B  878   5.034   1.235   8.772  0.6714  1.0102 -0.5989
   12CHL1   C25  879   4.913   1.390   8.705 -0.2507  0.0977 -0.2256
   12CHL1   H25  880   4.818   1.332   8.699 -0.0565 -0.2083 -0.3090
   12CHL1   C26  881   4.878   1.534   8.743  0.6318  0.2621  0.5538
   12CHL1  H26A  882   4.974   1.586   8.762  1.5405 -1.2142  0.1155
   12CHL1  H26B  883   4.833   1.595   8.662  1.2782 -0.6747 -0.5291
   12CHL1  H26C  884   4.816   1.532   8.836 -0.4455 -3.4879 -0.0906
   12CHL1   C27  885   4.986   1.390   8.573  0.0694  0.0055  0.1493
   12CHL1  H27A  886   5.076   1.455   8.572  1.0685 -1.3186 -1.6536
   12CHL1  H27B  887   5.009   1.285   8.546  2.6167  0.1044  1.6456
   12CHL1  H27C  888   4.923   1.437   8.494 -0.2269 -1.2492 -0.3799
   13CHL1    C3  889   5.113   2.708  10.040 -0.2469 -0.4098  0.1938
   13CHL1    H3  890   5.036   2.784  10.019  0.0560 -0.8373 -2.8262
   13CHL1    O3  891   5.168   2.743  10.170 -0.0077  0.7148  0.6476
   13CHL1   H3'  892   5.189   2.659  10.213 -0.8406  0.2458  0.1696
   13CHL1    C4  893   5.053   2.565  10.048  0.3136 -0.7716 -0.3102
   13CHL1   H4A  894   5.130   2.492  10.082 -1.0042 -2.3609 -0.5820
   13CHL1   H4B  895   4.970   2.566  10.122  0.4373 -0.1245 -0.1718
   13CHL1    C5  896   5.000   2.527   9.904  0.0390 -0.4834 -0.8024
   13CHL1    C6  897   4.873   2.499   9.894  0.5545 -0.1967 -0.0194
   13CHL1    H6  898   4.803   2.518   9.976  0.6293 -0.3724  0.0843
   13CHL1    C7  899   4.803   2.453   9.768  0.3067 -1.0260  0.5196
   13CHL1   H7A  900   4.740   2.366   9.797 -1.8249  0.3864  0.4178
   13CHL1   H7B  901   4.734   2.535   9.738  0.4671 -0.7385  0.9230
   13CHL1    C8  902   4.912   2.407   9.659 -0.3935 -0.0181 -0.4049
   13CHL1    H8  903   4.955   2.309   9.691 -1.4282 -0.4518 -0.2914
   13CHL1   C14  904   4.863   2.399   9.517 -1.0474  0.4292  0.0862
   13CHL1   H14  905   4.853   2.504   9.481  3.4121  1.2914  0.7270
   13CHL1   C15  906   4.736   2.315   9.512  0.6868 -0.6593  0.9902
   13CHL1  H15A  907   4.749   2.221   9.571 -1.7200 -1.2416  0.7139
   13CHL1  H15B  908   4.653   2.381   9.542 -0.4465 -1.2520 -0.6942
   13CHL1   C16  909   4.718   2.295   9.363 -0.2049  0.1513  0.9419
   13CHL1  H16A  910   4.685   2.191   9.338 -0.2653  0.9253 -2.7308
   13CHL1  H16B  911   4.642   2.357   9.312 -0.1018 -0.7568 -0.3605
   13CHL1   C17  912   4.856   2.321   9.294 -0.3906 -0.4577 -0.1789
   13CHL1   H17  913   4.849   2.423   9.252  4.4232  1.0445  1.8907
   13CHL1   C13  914   4.957   2.336   9.412 -0.1617  1.2235 -0.1078
   13CHL1   C18  915   4.989   2.181   9.467  0.0902  0.1688  0.7027
   13CHL1  H18A  916   4.893   2.125   9.457 -0.9519  2.1333 -1.4987
   13CHL1  H18B  917   5.059   2.136   9.393 -3.0626 -0.1782 -2.3644
   13CHL1  H18C  918   5.034   2.182   9.568  0.5389 -0.6577  0.5141
   13CHL1   C12  919   5.082   2.430   9.401  0.2447 -0.0557  0.7006
   13CHL1  H12A  920   5.160   2.391   9.332 -0.7946  0.2842 -0.6968
   13CHL1  H12B  921   5.053   2.529   9.360  0.1760 -0.1891  0.4233
   13CHL1   C11  922   5.145   2.457   9.542  0.0688 -0.0367  0.3741
   13CHL1  H11A  923   5.181   2.358   9.578 -1.4470 -0.6615  0.2693
   13CHL1  H11B  924   5.235   2.521   9.527  0.7310 -0.6389  1.6028
   13CHL1    C9  925   5.034   2.498   9.649 -0.3033  0.5299 -0.6755
   13CHL1    H9  926   4.994   2.595   9.611  0.1312 -0.1239 -2.9373
   13CHL1   C10  927   5.103   2.528   9.787 -0.1500  0.7216 -0.1350
   13CHL1   C19  928   5.210   2.425   9.824  0.2203  0.2419 -0.7035
   13CHL1  H19A  929   5.297   2.417   9.755 -0.0949 -0.9193 -0.9894
   13CHL1  H19B  930   5.266   2.449   9.916  0.5636 -0.7722 -0.6343
   13CHL1  H19C  931   5.163   2.324   9.824 -1.7964  0.9969 -4.2937
   13CHL1    C1  932   5.163   2.672   9.790 -0.3162  0.8138  0.4318
   13CHL1   H1A  933   5.239   2.682   9.709  1.7956 -0.7085  2.1042
   13CHL1   H1B  934   5.083   2.744   9.762 -2.3669 -1.0161  1.3074
   13CHL1    C2  935   5.215   2.719   9.928 -1.0214 -0.4604  0.8163
   13CHL1   H2A  936   5.256   2.822   9.924 -0.9393 -0.4095  2.4887
   13CHL1   H2B  937   5.300   2.652   9.952  0.5185  0.4146 -1.7380
   13CHL1   C20  938   4.901   2.224   9.180  0.3366  0.4743 -0.1802
   13CHL1   H20  939   4.924   2.121   9.213  1.1920  1.4145  2.4319
   13CHL1   C21  940   5.020   2.289   9.105 -0.1949  0.0296  0.0200
   13CHL1  H21A  941   5.050   2.231   9.015 -1.8544 -0.2113 -0.4154
   13CHL1  H21B  942   5.105   2.286   9.176 -0.0928 -2.1383 -0.1154
   13CHL1  H21C  943   4.996   2.392   9.070  2.1040 -0.1318 -2.3801
   13CHL1   C22  944   4.793   2.212   9.077  0.0769 -0.1679  0.3781
   13CHL1  H22A  945   4.713   2.167   9.139 -0.2512  2.5314  2.1085
   13CHL1  H22B  946   4.760   2.314   9.047 -1.6169  0.3079  3.4308
   13CHL1   C23  947   4.818   2.121   8.956 -0.2706  0.2408 -0.3022
   13CHL1  H23A  948   4.853   2.171   8.863 -2.4131  0.4898 -1.0189
   13CHL1  H23B  949   4.904   2.051   8.971 -1.5080 -1.4979 -1.0494
   13CHL1   C24  950   4.700   2.027   8.921  1.1807  0.2698 -0.9126
   13CHL1  H24A  951   4.713   1.938   8.986 -0.9725 -0.7539 -1.7998
   13CHL1  H24B  952   4.606   2.080   8.947  2.5897  1.2823  3.0051
   13CHL1   C25  953   4.700   1.969   8.783 -0.7844  0.4993  0.2604
   13CHL1   H25  954   4.809   1.956   8.768 -0.3629  1.0745  2.4408
   13CHL1   C26  955   4.636   1.828   8.779  0.2558  0.7462 -1.0015
   13CHL1  H26A  956   4.671   1.768   8.865  1.8101  1.1651 -1.3140
   13CHL1  H26B  957   4.528   1.855   8.779 -0.2159 -0.9381 -2.3336
   13CHL1  H26C  958   4.643   1.770   8.684  1.2635  0.9265 -1.0510
   13CHL1   C27  959   4.636   2.061   8.679  0.2531  0.3813  0.0776
   13CHL1  H27A  960   4.697   2.150   8.652  1.6969 -0.3254  0.8482
   13CHL1  H27B  961   4.605   2.002   8.590 -0.5428  0.0212  0.5910
   13CHL1  H27C  962   4.541   2.105   8.715 -1.0743 -2.2874  0.0258
   14CHL1    C3  963   3.942   5.999  10.217  0.5085 -0.6350 -0.2782
   14CHL1    H3  964   4.018   6.080  10.208  0.4179 -0.3311  1.3028
   14CHL1    O3  965   3.921   5.976  10.358 -0.1693 -0.5691  0.5097
   14CHL1   H3'  966   3.879   5.890  10.360  1.7314 -1.5382  0.9214
   14CHL1    C4  967   3.813   6.052  10.154  0.2931  0.2106  0.3584
   14CHL1   H4A  968   3.749   5.968  10.188  2.7788 -1.8858  0.1611
   14CHL1   H4B  969   3.786   6.149  10.202 -1.0131  0.7966 -1.4576
   14CHL1    C5  970   3.806   6.074  10.004 -0.1857  0.4152  0.6632
   14CHL1    C6  971   3.768   6.191   9.948  0.3611 -0.5471 -0.4061
   14CHL1    H6  972   3.741   6.269  10.021  3.0463  1.2368 -1.1739
   14CHL1    C7  973   3.758   6.219   9.802 -0.1687 -0.4576  0.5226
   14CHL1   H7A  974   3.667   6.282   9.787 -0.2276 -0.7365 -0.3601
   14CHL1   H7B  975   3.844   6.275   9.760 -1.5025  0.4589 -1.1740
   14CHL1    C8  976   3.748   6.081   9.721  0.0549  0.1622 -0.5141
   14CHL1    H8  977   3.651   6.030   9.744 -0.5835  0.9025 -1.4971
   14CHL1   C14  978   3.756   6.121   9.577 -0.1291 -1.0416  0.0392
   14CHL1   H14  979   3.856   6.166   9.562 -0.7137  0.0725 -0.7618
   14CHL1   C15  980   3.653   6.219   9.518  0.7192  0.5330 -0.2351
   14CHL1  H15A  981   3.551   6.192   9.553  0.9343 -1.0907 -0.7936
   14CHL1  H15B  982   3.687   6.321   9.546 -1.4750  0.6459  2.3894
   14CHL1   C16  983   3.662   6.191   9.360  0.6282 -0.1156  0.5354
   14CHL1  H16A  984   3.564   6.169   9.313  1.1667 -0.7245 -0.3263
   14CHL1  H16B  985   3.697   6.280   9.305 -0.9002  0.5084  0.5118
   14CHL1   C17  986   3.770   6.075   9.347  0.0217  0.2875  0.0246
   14CHL1   H17  987   3.871   6.122   9.354  0.2518 -0.0828 -0.7363
   14CHL1   C13  988   3.758   6.001   9.487 -0.0795 -0.4960  0.6139
   14CHL1   C18  989   3.624   5.924   9.485 -0.6853 -0.2489 -0.0948
   14CHL1  H18A  990   3.630   5.836   9.417  1.5137 -1.8666  2.0420
   14CHL1  H18B  991   3.606   5.883   9.587 -1.5770 -0.2372 -0.2332
   14CHL1  H18C  992   3.541   5.989   9.449  0.9674  1.4317 -1.0640
   14CHL1   C12  993   3.874   5.905   9.525 -0.6906 -0.4432  0.4938
   14CHL1  H12A  994   3.885   5.812   9.465  2.3510 -1.9098  3.0663
   14CHL1  H12B  995   3.970   5.959   9.511  0.7266 -2.7257  0.9405
   14CHL1   C11  996   3.873   5.865   9.677 -0.0345  0.4370 -0.1417
   14CHL1  H11A  997   3.780   5.803   9.679  1.1305 -1.6043 -2.9556
   14CHL1  H11B  998   3.956   5.795   9.699 -0.6597  0.5443  2.9305
   14CHL1    C9  999   3.865   5.985   9.766  0.0117  0.9350 -0.3577
   14CHL1    H9 1000   3.956   6.049   9.758  0.5352  0.6770  2.4428
   14CHL1   C10 1001   3.848   5.949   9.920 -0.8621  0.1023  0.2925
   14CHL1   C19 1002   3.741   5.836   9.937 -0.3612 -0.4414 -0.6577
   14CHL1  H19A 1003   3.771   5.753   9.869 -1.0873 -0.5445 -0.8607
   14CHL1  H19B 1004   3.738   5.796  10.040 -1.3557  1.2163  0.0047
   14CHL1  H19C 1005   3.637   5.875   9.931 -0.4431 -0.3347  1.0292
   14CHL1    C1 1006   3.980   5.902   9.979 -0.4944  0.3934  0.6077
   14CHL1   H1A 1007   4.001   5.809   9.922 -4.1816  0.5444 -1.3115
   14CHL1   H1B 1008   4.058   5.981   9.972 -0.6801  0.6346  1.1662
   14CHL1    C2 1009   3.984   5.881  10.133  0.2147 -0.4137 -0.0076
   14CHL1   H2A 1010   4.092   5.863  10.149 -0.1175 -1.2730  1.4398
   14CHL1   H2B 1011   3.914   5.798  10.156 -2.4275  0.6640 -3.3567
   14CHL1   C20 1012   3.773   6.005   9.212 -0.1823 -0.1895  0.0851
   14CHL1   H20 1013   3.689   5.932   9.213  1.2010 -1.8709  2.1070
   14CHL1   C21 1014   3.910   5.926   9.206 -0.0851  0.3171 -1.1830
   14CHL1  H21A 1015   3.898   5.835   9.269 -2.6973  1.7580  0.5835
   14CHL1  H21B 1016   3.983   6.001   9.243  0.1150 -1.3249  2.1256
   14CHL1  H21C 1017   3.933   5.880   9.108 -0.8972  0.0015 -1.2296
   14CHL1   C22 1018   3.754   6.105   9.089  0.1899 -1.2465 -1.0204
   14CHL1  H22A 1019   3.657   6.155   9.110 -0.2813 -1.9607 -1.4849
   14CHL1  H22B 1020   3.838   6.178   9.096 -0.3618 -0.6634 -0.3008
   14CHL1   C23 1021   3.759   6.042   8.948 -0.0368 -0.0850  0.3951
   14CHL1  H23A 1022   3.771   6.120   8.869  1.5503 -0.8666 -0.1813
   14CHL1  H23B 1023   3.848   5.976   8.936  0.1627 -0.1372  1.9718
   14CHL1   C24 1024   3.624   5.982   8.922  0.3961 -0.1201  0.0692
   14CHL1  H24A 1025   3.600   5.911   9.003 -3.3192  1.2349  0.3558
   14CHL1  H24B 1026   3.539   6.052   8.939 -0.5836 -1.3732  0.4891
   14CHL1   C25 1027   3.606   5.927   8.775  0.0155 -0.1175 -0.2558
   14CHL1   H25 1028   3.653   5.999   8.705  1.3027 -1.8452 -1.2463
   14CHL1   C26 1029   3.689   5.793   8.769 -0.1868  0.3402  0.5044
   14CHL1  H26A 1030   3.689   5.756   8.664 -2.4029  0.7200  0.3266
   14CHL1  H26B 1031   3.793   5.800   8.808 -0.0401  1.2767 -0.0499
   14CHL1  H26C 1032   3.636   5.721   8.836 -2.4502  1.1325 -0.3404
   14CHL1   C27 1033   3.462   5.908   8.731 -0.3813 -0.9589 -0.7168
   14CHL1  H27A 1034   3.406   5.845   8.803 -0.5231  0.5334  0.5317
   14CHL1  H27B 1035   3.416   6.009   8.736 -1.6248 -1.5002 -0.6677
   14CHL1  H27C 1036   3.451   5.878   8.624  0.3423 -1.4642 -0.6535
   15CHL1    C3 1037   4.895   5.904  10.126  0.6469 -0.1982  0.0666
   15CHL1    H3 1038   4.865   5.797  10.129  0.6068 -0.3840 -3.4694
   15CHL1    O3 1039   4.908   5.944  10.264  0.3867 -0.3970  0.3625
   15CHL1   H3' 1040   4.824   5.931  10.309 -0.2170  3.0536  0.4501
   15CHL1    C4 1041   5.030   5.933  10.061 -0.4834  0.5000 -0.1636
   15CHL1   H4A 1042   5.042   6.043  10.067  0.5604  0.6168 -3.1458
   15CHL1   H4B 1043   5.110   5.887  10.123  0.9080  0.7696 -1.6921
   15CHL1    C5 1044   5.030   5.888   9.915 -0.3881 -0.4574 -0.4471
   15CHL1    C6 1045   5.122   5.807   9.865 -0.1211  1.1282 -0.8268
   15CHL1    H6 1046   5.202   5.765   9.928 -0.8461 -0.7974 -1.1308
   15CHL1    C7 1047   5.135   5.766   9.726  0.5325 -0.1163 -0.3158
   15CHL1   H7A 1048   5.234   5.802   9.689  1.0496  1.3202  2.2712
   15CHL1   H7B 1049   5.126   5.655   9.720 -0.3307 -0.0583 -0.2505
   15CHL1    C8 1050   5.035   5.839   9.627 -0.0220  0.3257  0.4922
   15CHL1    H8 1051   5.079   5.937   9.598  2.2819 -0.9311 -0.5822
   15CHL1   C14 1052   5.022   5.755   9.502  1.1810  0.2634 -0.4265
   15CHL1   H14 1053   4.977   5.660   9.538 -0.0576  0.6044 -1.0183
   15CHL1   C15 1054   5.149   5.704   9.428 -0.4913  0.5512  0.0610
   15CHL1  H15A 1055   5.234   5.774   9.442  0.8117 -1.3711  2.2188
   15CHL1  H15B 1056   5.167   5.599   9.459 -2.4608 -0.4719 -1.9616
   15CHL1   C16 1057   5.108   5.694   9.280 -0.2671 -0.2697 -0.1398
   15CHL1  H16A 1058   5.144   5.777   9.216 -1.9506  0.5161 -0.1188
   15CHL1  H16B 1059   5.141   5.603   9.226 -2.4065 -1.3954  0.3421
   15CHL1   C17 1060   4.954   5.712   9.274 -0.6404  0.4650  0.1273
   15CHL1   H17 1061   4.906   5.617   9.306  2.0513 -1.7167 -1.7570
   15CHL1   C13 1062   4.923   5.809   9.395 -0.0454 -0.1356  0.3420
   15CHL1   C18 1063   4.963   5.951   9.343  0.0447  0.4972  0.0239
   15CHL1  H18A 1064   4.903   5.979   9.254 -1.2680 -0.1485  0.6644
   15CHL1  H18B 1065   4.955   6.029   9.421  2.0903  0.3076  0.4704
   15CHL1  H18C 1066   5.068   5.948   9.308  0.1830 -0.8539  0.4865
   15CHL1   C12 1067   4.788   5.817   9.464 -0.2568  0.1888 -0.1883
   15CHL1  H12A 1068   4.716   5.855   9.389 -0.8890 -0.8824 -0.1434
   15CHL1  H12B 1069   4.766   5.710   9.481 -0.3225  0.3562  0.8707
   15CHL1   C11 1070   4.792   5.897   9.593 -0.5618  0.5539  0.1340
   15CHL1  H11A 1071   4.808   6.002   9.562  1.2177  0.3915  0.4094
   15CHL1  H11B 1072   4.693   5.909   9.642  0.0836  1.1871  1.3281
   15CHL1    C9 1073   4.900   5.853   9.695 -1.0486  0.1126 -0.2854
   15CHL1    H9 1074   4.867   5.752   9.724  1.7294 -0.2781  1.9699
   15CHL1   C10 1075   4.913   5.937   9.825 -0.2460 -0.2486  0.4419
   15CHL1   C19 1076   4.947   6.084   9.791 -0.1601 -0.0872 -0.4385
   15CHL1  H19A 1077   4.866   6.126   9.727 -0.4696  0.7037  0.4657
   15CHL1  H19B 1078   4.968   6.150   9.878 -0.9007 -1.7138  1.0345
   15CHL1  H19C 1079   5.039   6.080   9.728  1.2167 -1.5871  1.5548
   15CHL1    C1 1080   4.781   5.934   9.902  0.8324 -0.0981  0.4431
   15CHL1   H1A 1081   4.717   6.004   9.844 -0.6221 -1.5201  0.2831
   15CHL1   H1B 1082   4.730   5.836   9.898 -1.0225  0.7821  1.3129
   15CHL1    C2 1083   4.785   5.980  10.044  0.4976  0.2659  0.5666
   15CHL1   H2A 1084   4.684   5.976  10.091  0.1463 -0.5021 -0.2430
   15CHL1   H2B 1085   4.812   6.088  10.052  2.4109  0.0261 -1.7071
   15CHL1   C20 1086   4.907   5.741   9.127 -0.1416  0.1387 -0.7814
   15CHL1   H20 1087   4.934   5.845   9.102 -0.1940 -0.0737 -1.7524
   15CHL1   C21 1088   4.756   5.720   9.121  0.0094  0.4526 -0.2076
   15CHL1  H21A 1089   4.724   5.623   9.163 -2.3591  1.6309  0.9232
   15CHL1  H21B 1090   4.726   5.734   9.015 -4.0066 -1.1282  0.5491
   15CHL1  H21C 1091   4.714   5.804   9.181 -1.5217  0.6050 -1.4400
   15CHL1   C22 1092   4.979   5.652   9.019 -0.1716  0.0414 -0.4962
   15CHL1  H22A 1093   5.088   5.664   9.037 -0.2003  2.8114 -1.7629
   15CHL1  H22B 1094   4.949   5.545   9.020 -0.0174 -0.0368  2.1254
   15CHL1   C23 1095   4.965   5.696   8.874  0.3821  0.3809 -0.2063
   15CHL1  H23A 1096   4.862   5.676   8.836  0.6391 -1.4074 -0.0354
   15CHL1  H23B 1097   4.988   5.803   8.856  1.2059  0.4648  1.2542
   15CHL1   C24 1098   5.055   5.624   8.772  0.0973  0.1489  0.2257
   15CHL1  H24A 1099   5.158   5.625   8.814 -0.3789  1.3530  1.4215
   15CHL1  H24B 1100   5.041   5.514   8.757  1.3575 -0.0654  0.4950
   15CHL1   C25 1101   5.074   5.688   8.630  0.0371  0.3912 -0.6516
   15CHL1   H25 1102   5.108   5.790   8.658  1.1049 -0.0489 -0.2778
   15CHL1   C26 1103   5.190   5.621   8.557 -0.1134  0.1944  0.6439
   15CHL1  H26A 1104   5.185   5.514   8.585  1.5837  0.5706  2.6102
   15CHL1  H26B 1105   5.194   5.630   8.446  0.6648  0.8855  0.7160
   15CHL1  H26C 1106   5.289   5.653   8.596  0.2199  0.0286 -0.0429
   15CHL1   C27 1107   4.941   5.696   8.554 -0.1377  0.0768 -0.4043
   15CHL1  H27A 1108   4.971   5.721   8.450  1.7396 -1.3396 -0.2550
   15CHL1  H27B 1109   4.890   5.597   8.558 -1.0629  0.5840  0.8343
   15CHL1  H27C 1110   4.872   5.765   8.606  1.2774 -0.8998  3.0261
   16CHL1    C3 1111   4.223   0.037  10.232 -0.3267 -0.4139  0.5835
   16CHL1    H3 1112   4.182  -0.065  10.212  1.5192 -0.9531 -0.7036
   16CHL1    O3 1113   4.248   0.048  10.365 -0.3043 -0.9021 -0.0324
   16CHL1   H3' 1114   4.167   0.028  10.412 -0.2437 -1.8229 -0.2976
   16CHL1    C4 1115   4.365   0.058  10.167  0.5610  0.3150  0.0320
   16CHL1   H4A 1116   4.409   0.155  10.198 -1.2221  1.4475 -0.8622
   16CHL1   H4B 1117   4.434  -0.020  10.206 -0.2599 -0.1980  0.4911
   16CHL1    C5 1118   4.341   0.042  10.019  0.0594 -0.5935 -0.2608
   16CHL1    C6 1119   4.395  -0.063   9.951  0.2534 -0.3893 -0.5053
   16CHL1    H6 1120   4.457  -0.134  10.008  2.8035  0.6062 -1.8638
   16CHL1    C7 1121   4.390  -0.072   9.802  0.0387  0.3243  0.3976
   16CHL1   H7A 1122   4.487  -0.093   9.752 -0.2747  1.2495 -0.6215
   16CHL1   H7B 1123   4.313  -0.146   9.771  1.3798  0.0627 -2.6917
   16CHL1    C8 1124   4.343   0.062   9.738 -0.1089 -1.2060 -0.1315
   16CHL1    H8 1125   4.418   0.144   9.734 -1.3130 -0.0643 -0.3796
   16CHL1   C14 1126   4.319   0.025   9.589  0.1645 -0.7970  0.0866
   16CHL1   H14 1127   4.237  -0.050   9.590  0.4128 -1.0983  2.1079
   16CHL1   C15 1128   4.430  -0.028   9.510  0.7164  0.5215  0.4764
   16CHL1  H15A 1129   4.525   0.022   9.537  0.6131 -0.7725  3.7103
   16CHL1  H15B 1130   4.450  -0.137   9.516 -2.0031 -0.0068  1.0392
   16CHL1   C16 1131   4.390   0.012   9.364  0.2441 -0.2030 -0.1947
   16CHL1  H16A 1132   4.468   0.078   9.321  1.3891 -2.9308 -2.7058
   16CHL1  H16B 1133   4.387  -0.073   9.292 -0.7094 -1.6268  1.4374
   16CHL1   C17 1134   4.254   0.084   9.365  0.5213 -0.8823 -0.5476
   16CHL1   H17 1135   4.189  -0.007   9.357 -1.5338  0.5066 -0.3193
   16CHL1   C13 1136   4.257   0.143   9.511 -0.0525  0.2622  0.1606
   16CHL1   C18 1137   4.347   0.265   9.508 -0.0878 -0.3105 -0.2778
   16CHL1  H18A 1138   4.297   0.346   9.452  0.4384  1.4461  1.6576
   16CHL1  H18B 1139   4.357   0.310   9.609  1.8680  1.3761 -1.1467
   16CHL1  H18C 1140   4.443   0.231   9.462 -0.6924 -2.4111 -0.0926
   16CHL1   C12 1141   4.119   0.176   9.575 -0.4858 -0.2912  0.5864
   16CHL1  H12A 1142   4.072   0.261   9.521  2.1458  1.7808  1.3735
   16CHL1  H12B 1143   4.054   0.089   9.552 -1.3034  0.9327 -2.2988
   16CHL1   C11 1144   4.126   0.204   9.729 -0.4203  0.3220  0.0638
   16CHL1  H11A 1145   4.172   0.305   9.742 -0.8598  0.8028 -1.7885
   16CHL1  H11B 1146   4.026   0.202   9.777 -1.0436 -0.2151 -1.2121
   16CHL1    C9 1147   4.214   0.105   9.805  0.0856 -0.2255 -0.3866
   16CHL1    H9 1148   4.157   0.010   9.804  0.9639 -0.7946  0.7753
   16CHL1   C10 1149   4.246   0.144   9.954  0.2313  0.4694  0.2188
   16CHL1   C19 1150   4.316   0.282   9.963  0.2744 -0.1913  0.3861
   16CHL1  H19A 1151   4.336   0.315  10.068 -1.7652 -0.4065  0.8993
   16CHL1  H19B 1152   4.415   0.278   9.914  1.0744 -0.0908  1.9323
   16CHL1  H19C 1153   4.257   0.365   9.920  0.4712  0.5968  1.5708
   16CHL1    C1 1154   4.112   0.144  10.031  0.5264  0.2261  0.7448
   16CHL1   H1A 1155   4.041   0.226  10.005 -0.9552 -1.1863  0.1284
   16CHL1   H1B 1156   4.065   0.046  10.008  0.0268  0.4828  0.6632
   16CHL1    C2 1157   4.131   0.145  10.183  0.0611 -0.0132 -0.2835
   16CHL1   H2A 1158   4.033   0.119  10.229  0.3016  1.7022  1.3147
   16CHL1   H2B 1159   4.170   0.242  10.218 -0.8535  0.6005 -0.9316
   16CHL1   C20 1160   4.233   0.176   9.239  1.1751  0.2053  0.7300
   16CHL1   H20 1161   4.295   0.267   9.249 -0.6938  1.4888  1.1309
   16CHL1   C21 1162   4.083   0.215   9.233 -0.5770 -0.0951 -0.6571
   16CHL1  H21A 1163   4.047   0.266   9.140  0.8114  1.6663 -0.2941
   16CHL1  H21B 1164   4.071   0.294   9.311  2.0821 -1.6494  1.4817
   16CHL1  H21C 1165   4.017   0.127   9.249 -1.0365  0.0075 -1.8770
   16CHL1   C22 1166   4.277   0.105   9.110 -0.7771 -0.4205  0.0061
   16CHL1  H22A 1167   4.386   0.123   9.107 -0.9335  0.5617 -2.4581
   16CHL1  H22B 1168   4.259  -0.005   9.109 -0.9039 -0.4242 -2.0157
   16CHL1   C23 1169   4.223   0.161   8.972 -0.1986  0.0098 -0.5607
   16CHL1  H23A 1170   4.132   0.100   8.952  0.5020 -2.3515  2.5437
   16CHL1  H23B 1171   4.199   0.269   8.970 -0.9252 -0.1327 -3.4886
   16CHL1   C24 1172   4.320   0.138   8.851 -0.1068 -0.2179 -0.1624
   16CHL1  H24A 1173   4.421   0.171   8.884 -0.1235 -0.7341  0.4261
   16CHL1  H24B 1174   4.317   0.029   8.825  0.5727  0.0261 -1.3584
   16CHL1   C25 1175   4.283   0.222   8.719 -0.0127 -0.0417  0.2200
   16CHL1   H25 1176   4.302   0.326   8.753 -0.0764 -0.7431  2.5859
   16CHL1   C26 1177   4.386   0.186   8.612 -0.0371 -0.1935  0.0991
   16CHL1  H26A 1178   4.371   0.255   8.526  4.5433  0.7973 -0.2041
   16CHL1  H26B 1179   4.487   0.211   8.653  0.0796  0.2965 -0.4801
   16CHL1  H26C 1180   4.379   0.081   8.578  0.5369 -0.7392  1.5663
   16CHL1   C27 1181   4.141   0.196   8.668  0.2188 -0.3223  0.4901
   16CHL1  H27A 1182   4.130   0.089   8.644 -3.0415 -0.1255  0.6954
   16CHL1  H27B 1183   4.061   0.234   8.735  1.2451  2.0855  0.4926
   16CHL1  H27C 1184   4.138   0.241   8.567  1.9260 -1.3586 -0.0715
   17CHL1    C3 1185   6.376   2.786  10.368  0.0842  0.3091 -1.0562
   17CHL1    H3 1186   6.329   2.887  10.376 -0.3984  0.5098 -4.7176
   17CHL1    O3 1187   6.414   2.745  10.500  0.3458  0.2130 -0.2849
   17CHL1   H3' 1188   6.405   2.650  10.492 -0.2271  0.3285 -1.1557
   17CHL1    C4 1189   6.264   2.697  10.309  0.2028  0.3852 -0.4780
   17CHL1   H4A 1190   6.284   2.588  10.321 -2.2766 -0.0599  0.3228
   17CHL1   H4B 1191   6.172   2.706  10.371  0.7188  0.6405  0.2637
   17CHL1    C5 1192   6.229   2.735  10.164 -0.0470 -0.0664 -0.0210
   17CHL1    C6 1193   6.104   2.770  10.125  0.4554 -0.0877 -0.1558
   17CHL1    H6 1194   6.019   2.776  10.194 -1.5567  3.4951 -2.6505
   17CHL1    C7 1195   6.057   2.782   9.980 -0.0802 -0.2785 -0.1038
   17CHL1   H7A 1196   5.975   2.710   9.961  0.2628 -0.2352 -1.8945
   17CHL1   H7B 1197   6.021   2.881   9.947  1.1723 -0.0335 -0.8139
   17CHL1    C8 1198   6.172   2.738   9.887  0.2640 -0.1217  0.7561
   17CHL1    H8 1199   6.171   2.627   9.894 -3.1589 -0.1812  1.1089
   17CHL1   C14 1200   6.140   2.772   9.743  0.4451 -0.7683 -0.3278
   17CHL1   H14 1201   6.132   2.883   9.743 -0.1696 -0.6938 -3.8205
   17CHL1   C15 1202   6.008   2.730   9.678  0.2217 -0.1381  0.4901
   17CHL1  H15A 1203   5.973   2.629   9.711 -0.4780  0.3237  1.2158
   17CHL1  H15B 1204   5.940   2.810   9.715  1.0636  1.9681 -2.2207
   17CHL1   C16 1205   6.030   2.732   9.523  0.4817 -0.2533  1.1997
   17CHL1  H16A 1206   6.023   2.628   9.486  1.3770  0.2610 -0.5198
   17CHL1  H16B 1207   5.959   2.800   9.470  3.2848  0.0852 -2.5048
   17CHL1   C17 1208   6.174   2.788   9.508  0.1617  0.4115  0.2600
   17CHL1   H17 1209   6.165   2.898   9.518  0.3914  0.6561 -1.7781
   17CHL1   C13 1210   6.245   2.744   9.644 -0.2058  0.7563  0.4779
   17CHL1   C18 1211   6.276   2.592   9.622  0.7624  0.3872 -0.4665
   17CHL1  H18A 1212   6.179   2.538   9.618 -0.2517  2.1711 -2.9238
   17CHL1  H18B 1213   6.348   2.581   9.539  1.7888 -2.1872  0.6740
   17CHL1  H18C 1214   6.341   2.553   9.703  2.5331  1.7679 -1.1584
   17CHL1   C12 1215   6.370   2.824   9.682 -0.8629 -0.2198 -0.9760
   17CHL1  H12A 1216   6.453   2.808   9.611  0.5928  0.6749  0.4502
   17CHL1  H12B 1217   6.343   2.931   9.677  0.1835  0.1139  0.0661
   17CHL1   C11 1218   6.417   2.778   9.822  0.1262  0.1549  0.8985
   17CHL1  H11A 1219   6.460   2.676   9.809  1.8897  1.1666 -2.1990
   17CHL1  H11B 1220   6.501   2.846   9.848  1.9588 -1.4367 -0.5697
   17CHL1    C9 1221   6.303   2.794   9.933 -0.4112  0.3522  0.2448
   17CHL1    H9 1222   6.290   2.903   9.947 -1.3502  0.3298 -0.4076
   17CHL1   C10 1223   6.349   2.734  10.071  0.1840  0.2176  0.1088
   17CHL1   C19 1224   6.412   2.591  10.048  0.0280  0.1454 -0.5184
   17CHL1  H19A 1225   6.420   2.532  10.142  1.6414 -0.2231 -0.8583
   17CHL1  H19B 1226   6.344   2.529   9.986 -1.2433  2.3446 -1.4213
   17CHL1  H19C 1227   6.516   2.592  10.009  0.3624  0.3747  0.3567
   17CHL1    C1 1228   6.463   2.814  10.133  1.1130 -0.1120  0.0978
   17CHL1   H1A 1229   6.558   2.794  10.080  1.7192  0.3016  0.9993
   17CHL1   H1B 1230   6.443   2.923  10.139  1.5536 -0.0795  1.3044
   17CHL1    C2 1231   6.497   2.781  10.280  0.7987  0.0917  0.1516
   17CHL1   H2A 1232   6.586   2.834  10.320  1.7456 -1.5844  0.3859
   17CHL1   H2B 1233   6.529   2.674  10.278 -0.8846 -0.5011  1.5626
   17CHL1   C20 1234   6.238   2.753   9.373 -0.1782  0.2356  0.2801
   17CHL1   H20 1235   6.235   2.642   9.371  1.2729  0.1573  1.2221
   17CHL1   C21 1236   6.376   2.820   9.363  0.1740  0.6123  0.6780
   17CHL1  H21A 1237   6.447   2.745   9.404  1.3885  1.6665  0.6067
   17CHL1  H21B 1238   6.387   2.929   9.383 -0.4281  0.4057  2.2575
   17CHL1  H21C 1239   6.396   2.817   9.254 -0.7691  2.6779  0.3955
   17CHL1   C22 1240   6.151   2.781   9.258  0.4259 -0.2916  0.7130
   17CHL1  H22A 1241   6.059   2.721   9.271 -1.0306  1.5500 -0.5995
   17CHL1  H22B 1242   6.119   2.887   9.266  0.7451 -0.3204  2.9599
   17CHL1   C23 1243   6.198   2.749   9.110  0.7091 -0.3005  0.8838
   17CHL1  H23A 1244   6.109   2.766   9.045  0.6982  0.4992  1.0964
   17CHL1  H23B 1245   6.271   2.827   9.080  0.6060 -1.5763 -3.3434
   17CHL1   C24 1246   6.245   2.600   9.091  0.4248 -0.2407 -0.2115
   17CHL1  H24A 1247   6.308   2.569   9.177  0.4818  0.8351  0.1537
   17CHL1  H24B 1248   6.157   2.533   9.096  1.4385 -1.9359 -2.9175
   17CHL1   C25 1249   6.324   2.560   8.964  0.6703  0.8606  0.1789
   17CHL1   H25 1250   6.403   2.638   8.955  1.4631  0.1276  0.6667
   17CHL1   C26 1251   6.370   2.414   8.966 -0.0713 -0.3650  0.2888
   17CHL1  H26A 1252   6.287   2.341   8.957  0.7378 -1.1744 -1.0740
   17CHL1  H26B 1253   6.430   2.405   8.872 -0.4826  0.9227 -0.1132
   17CHL1  H26C 1254   6.416   2.394   9.065 -0.1635 -0.8741  0.2293
   17CHL1   C27 1255   6.221   2.571   8.847  0.7015 -0.2538 -0.1252
   17CHL1  H27A 1256   6.271   2.557   8.749 -0.3399  1.4701 -0.9512
   17CHL1  H27B 1257   6.147   2.488   8.855 -0.3072  0.6431  0.0954
   17CHL1  H27C 1258   6.170   2.669   8.858 -0.5871 -0.8398 -0.7271
   18CHL1    C3 1259   6.228   3.232  10.146  0.1095 -0.2499  0.5740
   18CHL1    H3 1260   6.322   3.173  10.146 -0.2794 -0.9087 -0.7471
   18CHL1    O3 1261   6.190   3.253  10.279 -0.2182  0.5189  0.0175
   18CHL1   H3' 1262   6.125   3.323  10.268  0.4842  1.0239 -1.1110
   18CHL1    C4 1263   6.265   3.370  10.095  0.2113 -0.2921 -0.3561
   18CHL1   H4A 1264   6.172   3.426  10.118 -0.0190 -0.8244  0.0247
   18CHL1   H4B 1265   6.349   3.417  10.151  0.4440  0.9935 -1.7069
   18CHL1    C5 1266   6.294   3.386   9.943  0.1807  0.6989  0.6288
   18CHL1    C6 1267   6.400   3.458   9.898  0.9119 -0.1856 -0.2867
   18CHL1    H6 1268   6.468   3.505   9.971 -2.4306  1.7754  1.8747
   18CHL1    C7 1269   6.430   3.466   9.755 -0.0099 -0.0857  0.3250
   18CHL1   H7A 1270   6.461   3.565   9.715  2.3635 -1.1468 -0.6490
   18CHL1   H7B 1271   6.517   3.398   9.746 -1.2170 -1.6400 -0.0386
   18CHL1    C8 1272   6.312   3.417   9.654 -0.0691  0.5191  0.3983
   18CHL1    H8 1273   6.232   3.493   9.664  0.7585  1.2847  1.4242
   18CHL1   C14 1274   6.361   3.391   9.510  1.0734  0.6547 -0.2114
   18CHL1   H14 1275   6.431   3.306   9.525  0.5790 -0.0387 -1.5975
   18CHL1   C15 1276   6.434   3.500   9.439 -0.1879  0.2442  0.0376
   18CHL1  H15A 1277   6.396   3.603   9.461  2.3719  1.3145 -0.2298
   18CHL1  H15B 1278   6.541   3.500   9.468  0.5620 -0.0406 -2.5121
   18CHL1   C16 1279   6.415   3.477   9.287 -0.5472  0.0240 -0.2329
   18CHL1  H16A 1280   6.355   3.558   9.240 -0.3514  1.7251  2.2423
   18CHL1  H16B 1281   6.514   3.472   9.237 -0.3143 -0.6775  0.2827
   18CHL1   C17 1282   6.337   3.344   9.274  0.5996 -0.1431  0.8259
   18CHL1   H17 1283   6.405   3.258   9.289 -1.4016 -1.3197  4.0798
   18CHL1   C13 1284   6.255   3.342   9.410  0.3683 -0.5521 -0.2058
   18CHL1   C18 1285   6.140   3.442   9.397  0.3887 -0.2820 -0.4047
   18CHL1  H18A 1286   6.086   3.464   9.491  1.7658  1.0563  0.1077
   18CHL1  H18B 1287   6.188   3.540   9.372 -0.8221  0.0389 -1.6441
   18CHL1  H18C 1288   6.066   3.405   9.322  0.7836 -2.1560  0.0878
   18CHL1   C12 1289   6.202   3.208   9.460 -0.6617 -0.0866  0.4046
   18CHL1  H12A 1290   6.115   3.176   9.398 -0.3016 -0.5491  0.1262
   18CHL1  H12B 1291   6.281   3.130   9.455  1.2143  1.8494 -2.3100
   18CHL1   C11 1292   6.153   3.222   9.612  0.3644 -0.5874  0.5820
   18CHL1  H11A 1293   6.057   3.276   9.596 -1.4031 -3.2948  1.3768
   18CHL1  H11B 1294   6.116   3.130   9.661  1.8660 -1.9853 -0.7881
   18CHL1    C9 1295   6.250   3.292   9.709 -0.2761  1.2821 -0.1224
   18CHL1    H9 1296   6.336   3.222   9.720 -1.6153 -0.1532  1.8412
   18CHL1   C10 1297   6.198   3.305   9.852  0.1603  0.2598  0.5542
   18CHL1   C19 1298   6.066   3.382   9.847  0.4285  0.1742 -0.5312
   18CHL1  H19A 1299   6.059   3.477   9.790 -0.2124 -0.1676 -1.0315
   18CHL1  H19B 1300   5.985   3.325   9.797 -0.6623  0.1620  1.1759
   18CHL1  H19C 1301   6.034   3.415   9.948 -2.4077 -0.3655 -1.1572
   18CHL1    C1 1302   6.164   3.165   9.914  0.0383 -0.2398 -0.4580
   18CHL1   H1A 1303   6.078   3.117   9.864  1.0486  0.3464 -2.8889
   18CHL1   H1B 1304   6.256   3.105   9.896 -0.1381 -0.5452 -0.3504
   18CHL1    C2 1305   6.117   3.167  10.066  0.2756  0.8040 -0.0673
   18CHL1   H2A 1306   6.086   3.068  10.105  1.4294  0.5039  0.1326
   18CHL1   H2B 1307   6.028   3.233  10.079 -1.0200 -0.6780 -1.2024
   18CHL1   C20 1308   6.262   3.325   9.137  0.4164 -0.2655 -0.3947
   18CHL1   H20 1309   6.159   3.368   9.132 -0.9295 -2.9706  1.4453
   18CHL1   C21 1310   6.253   3.172   9.107 -0.3837  0.3130  0.0486
   18CHL1  H21A 1311   6.214   3.124   9.199  0.6183  1.5015  1.1369
   18CHL1  H21B 1312   6.354   3.129   9.086 -1.2122 -1.0119 -1.3892
   18CHL1  H21C 1313   6.184   3.146   9.024 -0.6982  0.8339  0.1446
   18CHL1   C22 1314   6.341   3.394   9.018 -0.0604 -0.5965  0.0527
   18CHL1  H22A 1315   6.341   3.503   9.039 -0.4623 -1.1376  3.4690
   18CHL1  H22B 1316   6.450   3.374   9.022  0.1987  0.8344  1.2775
   18CHL1   C23 1317   6.290   3.369   8.874 -0.3809  0.1361 -0.7046
   18CHL1  H23A 1318   6.292   3.261   8.849  1.2032 -0.3187  1.2134
   18CHL1  H23B 1319   6.187   3.411   8.875 -0.8949 -1.0530  1.6712
   18CHL1   C24 1320   6.381   3.448   8.779  0.0333 -0.1126 -0.0725
   18CHL1  H24A 1321   6.381   3.550   8.822  0.2560 -0.8685  1.8126
   18CHL1  H24B 1322   6.482   3.407   8.797  0.2084 -0.3307 -1.4015
   18CHL1   C25 1323   6.337   3.444   8.629  0.4151  0.2374 -0.2734
   18CHL1   H25 1324   6.413   3.485   8.559  1.1935  0.1933  0.5259
   18CHL1   C26 1325   6.326   3.296   8.579  0.4861 -0.3589  0.2787
   18CHL1  H26A 1326   6.312   3.285   8.470 -0.3437 -1.8033  0.5063
   18CHL1  H26B 1327   6.423   3.249   8.606  0.1676 -0.4332  1.3617
   18CHL1  H26C 1328   6.249   3.243   8.638 -2.4585  1.7093 -1.4385
   18CHL1   C27 1329   6.194   3.505   8.612  0.3647  0.1830 -0.2146
   18CHL1  H27A 1330   6.198   3.613   8.640  1.1738 -0.0869  0.7760
   18CHL1  H27B 1331   6.163   3.501   8.505 -1.7242 -1.9319  0.3861
   18CHL1  H27C 1332   6.120   3.445   8.668  0.8839  0.4325  0.7526
   19CHL1    C3 1333   2.896   2.369  10.197  0.1349 -0.2112  0.3576
   19CHL1    H3 1334   2.978   2.313  10.146  0.1106 -0.5374  0.6744
   19CHL1    O3 1335   2.908   2.385  10.337 -0.3776 -0.4146  0.8610
   19CHL1   H3' 1336   2.992   2.431  10.341 -0.9600  1.4367 -3.0805
   19CHL1    C4 1337   2.906   2.515  10.148 -0.1288 -0.0555  0.2338
   19CHL1   H4A 1338   2.834   2.585  10.196  0.0316  1.5524 -1.7527
   19CHL1   H4B 1339   3.005   2.553  10.181  0.1856 -1.2153  0.6741
   19CHL1    C5 1340   2.884   2.524   9.998  0.2145  0.1119 -0.1872
   19CHL1    C6 1341   2.977   2.589   9.923  0.0591 -0.9855 -0.7275
   19CHL1    H6 1342   3.057   2.650   9.969 -0.6476 -0.3319 -0.3400
   19CHL1    C7 1343   2.967   2.603   9.776  0.2191  0.6383  0.4057
   19CHL1   H7A 1344   2.993   2.708   9.749  0.1514  0.5882  0.1439
   19CHL1   H7B 1345   3.046   2.540   9.730  1.1382  1.9178  0.1721
   19CHL1    C8 1346   2.830   2.556   9.723  0.1782  0.0769 -0.0222
   19CHL1    H8 1347   2.753   2.635   9.731 -1.3764 -1.5032  1.9139
   19CHL1   C14 1348   2.838   2.522   9.574  0.1630  0.1201 -0.2023
   19CHL1   H14 1349   2.884   2.421   9.568  0.0463  0.0166  0.4991
   19CHL1   C15 1350   2.916   2.619   9.484 -0.3321  0.4111 -0.0570
   19CHL1  H15A 1351   2.885   2.722   9.512  0.4043  0.5532  0.2377
   19CHL1  H15B 1352   3.025   2.604   9.496 -0.3458  1.0856  1.0502
   19CHL1   C16 1353   2.862   2.579   9.349 -0.5645  0.0307 -0.5878
   19CHL1  H16A 1354   2.823   2.676   9.311 -2.7914 -0.4092  0.3701
   19CHL1  H16B 1355   2.942   2.532   9.288 -0.4235  1.2249 -1.3461
   19CHL1   C17 1356   2.745   2.479   9.370 -0.2591  0.9047  0.1788
   19CHL1   H17 1357   2.800   2.382   9.371 -0.4516  0.7443 -1.4576
   19CHL1   C13 1358   2.702   2.502   9.515  0.2082 -0.0099 -0.1698
   19CHL1   C18 1359   2.615   2.628   9.508  0.4351 -0.6782  0.1378
   19CHL1  H18A 1360   2.518   2.624   9.453 -0.9389 -0.9738  2.4405
   19CHL1  H18B 1361   2.573   2.661   9.606 -1.7381  1.1097 -1.2896
   19CHL1  H18C 1362   2.668   2.721   9.480  1.6948 -1.4611 -0.1543
   19CHL1   C12 1363   2.624   2.392   9.580 -0.0667  0.5951 -0.2620
   19CHL1  H12A 1364   2.518   2.382   9.547 -0.5520  0.8929  1.1448
   19CHL1  H12B 1365   2.669   2.294   9.554  1.0470  1.3347 -1.1995
   19CHL1   C11 1366   2.612   2.418   9.731 -0.4640 -0.9214 -0.0569
   19CHL1  H11A 1367   2.542   2.504   9.732  1.7235  0.9819 -1.4625
   19CHL1  H11B 1368   2.556   2.338   9.784 -0.8647  0.2943  1.4139
   19CHL1    C9 1369   2.758   2.435   9.785 -0.1827 -0.5208 -0.6511
   19CHL1    H9 1370   2.822   2.346   9.767  1.6171 -0.1720  2.9479
   19CHL1   C10 1371   2.760   2.448   9.939 -0.4390  0.0033 -0.1495
   19CHL1   C19 1372   2.642   2.539   9.980  0.4366 -0.3179  0.7129
   19CHL1  H19A 1373   2.639   2.635   9.924 -0.1850  0.1661  1.5431
   19CHL1  H19B 1374   2.544   2.494   9.952  0.4098  0.7463 -1.0744
   19CHL1  H19C 1375   2.648   2.571  10.086  1.1631  1.7688  0.0828
   19CHL1    C1 1376   2.759   2.302   9.999 -0.3370 -0.2637  0.5277
   19CHL1   H1A 1377   2.661   2.260   9.968 -0.3267  1.3756 -2.1099
   19CHL1   H1B 1378   2.846   2.249   9.954 -0.6462  0.3398 -0.8521
   19CHL1    C2 1379   2.764   2.300  10.155  0.4249  0.2553 -0.3368
   19CHL1   H2A 1380   2.758   2.195  10.193  1.9974  0.4776  0.6195
   19CHL1   H2B 1381   2.673   2.353  10.189 -0.5895 -1.6299  0.0453
   19CHL1   C20 1382   2.653   2.465   9.249  0.8369 -0.3297 -0.4623
   19CHL1   H20 1383   2.593   2.558   9.250 -1.7770 -1.9131 -0.6373
   19CHL1   C21 1384   2.558   2.349   9.278 -0.1046  0.4399 -0.0927
   19CHL1  H21A 1385   2.485   2.386   9.353  1.2291 -0.5671  1.7879
   19CHL1  H21B 1386   2.609   2.260   9.320 -1.2004 -0.7932 -1.2780
   19CHL1  H21C 1387   2.504   2.309   9.189 -0.7764 -0.6130  0.7740
   19CHL1   C22 1388   2.729   2.446   9.114  0.0456 -0.2649 -0.1786
   19CHL1  H22A 1389   2.813   2.519   9.114  0.8616 -0.9261  4.3002
   19CHL1  H22B 1390   2.764   2.341   9.123  1.0210  0.0122 -0.5940
   19CHL1   C23 1391   2.644   2.469   8.994 -0.0758 -0.3777  0.3175
   19CHL1  H23A 1392   2.571   2.387   8.976 -1.4999  1.1863 -1.4584
   19CHL1  H23B 1393   2.577   2.558   9.008 -0.1007 -0.3315 -0.0855
   19CHL1   C24 1394   2.724   2.477   8.866  0.7729 -0.2821 -0.0401
   19CHL1  H24A 1395   2.804   2.553   8.876  1.1479 -0.4011 -1.7748
   19CHL1  H24B 1396   2.783   2.386   8.845 -0.5198 -1.0349 -0.5779
   19CHL1   C25 1397   2.625   2.515   8.740  0.5593 -1.0122  0.3061
   19CHL1   H25 1398   2.558   2.593   8.780 -0.5098 -0.6303 -2.0415
   19CHL1   C26 1399   2.684   2.568   8.610  0.4566 -0.2675  0.4887
   19CHL1  H26A 1400   2.746   2.494   8.555  0.3088  1.5111 -2.2197
   19CHL1  H26B 1401   2.615   2.592   8.527  0.0803  0.3152  0.9583
   19CHL1  H26C 1402   2.747   2.657   8.630 -0.7155  0.8557 -0.6478
   19CHL1   C27 1403   2.534   2.400   8.702  0.4541 -0.8030 -0.5866
   19CHL1  H27A 1404   2.447   2.439   8.644 -1.2138 -0.4229  1.9915
   19CHL1  H27B 1405   2.591   2.326   8.642  1.1874  1.0125 -2.2388
   19CHL1  H27C 1406   2.496   2.345   8.791 -0.6396  1.1616  0.2081
   20CHL1    C3 1407   5.380   6.632  10.398 -0.4051  0.4612  0.6734
   20CHL1    H3 1408   5.277   6.672  10.403  0.1241  2.3968 -1.8828
   20CHL1    O3 1409   5.427   6.615  10.532 -0.2550  0.0636 -0.0988
   20CHL1   H3' 1410   5.516   6.581  10.537 -0.2370 -0.1523 -1.6306
   20CHL1    C4 1411   5.378   6.494  10.333 -0.4593  0.1891 -0.5777
   20CHL1   H4A 1412   5.484   6.461  10.340 -0.5863 -0.0446  0.3030
   20CHL1   H4B 1413   5.319   6.427  10.399 -0.6086  0.2000 -0.6983
   20CHL1    C5 1414   5.326   6.515  10.195  0.2173 -0.2860  0.4298
   20CHL1    C6 1415   5.214   6.448  10.156  0.2420  0.0238  0.5109
   20CHL1    H6 1416   5.171   6.370  10.221  1.7717 -1.3280 -0.0506
   20CHL1    C7 1417   5.150   6.451  10.016  0.5889  0.2318 -0.1719
   20CHL1   H7A 1418   5.125   6.346   9.990 -0.5010 -0.3058  2.6905
   20CHL1   H7B 1419   5.060   6.516  10.018  0.3717 -0.0816  1.4974
   20CHL1    C8 1420   5.260   6.508   9.919  0.3441  0.6876 -0.3372
   20CHL1    H8 1421   5.340   6.432   9.902 -2.8491 -2.5944 -2.2145
   20CHL1   C14 1422   5.185   6.541   9.783 -0.5513  0.4001 -0.1651
   20CHL1   H14 1423   5.113   6.620   9.813  1.0543  1.8480  0.0392
   20CHL1   C15 1424   5.113   6.428   9.702  0.4342  0.0382  0.9298
   20CHL1  H15A 1425   5.175   6.340   9.677  1.3007  0.7112  0.6571
   20CHL1  H15B 1426   5.020   6.388   9.747 -1.3707  1.0222 -1.6568
   20CHL1   C16 1427   5.085   6.498   9.563 -0.4036 -0.0012 -0.3906
   20CHL1  H16A 1428   5.107   6.421   9.486 -1.2054 -1.4990  0.8181
   20CHL1  H16B 1429   4.978   6.528   9.554 -0.4896  0.4698  1.7257
   20CHL1   C17 1430   5.175   6.621   9.552 -0.4210  0.0300 -0.6994
   20CHL1   H17 1431   5.119   6.715   9.569 -2.0401 -0.8187 -1.0802
   20CHL1   C13 1432   5.275   6.605   9.674  0.5815 -0.4353 -0.7218
   20CHL1   C18 1433   5.398   6.514   9.649  0.3708 -0.1931  0.4234
   20CHL1  H18A 1434   5.472   6.556   9.578  0.5654 -2.8650 -1.0776
   20CHL1  H18B 1435   5.462   6.479   9.734  0.8125 -0.8563 -0.1668
   20CHL1  H18C 1436   5.367   6.422   9.595  2.4279  0.6906 -2.5156
   20CHL1   C12 1437   5.323   6.740   9.735  0.1079  0.5654 -0.4033
   20CHL1  H12A 1438   5.377   6.812   9.670 -2.2531  1.7066 -1.2020
   20CHL1  H12B 1439   5.235   6.805   9.756 -0.6845 -1.0383  1.6181
   20CHL1   C11 1440   5.401   6.720   9.868 -0.1716 -0.4526 -0.2366
   20CHL1  H11A 1441   5.505   6.687   9.844  0.5547  1.0406  0.7389
   20CHL1  H11B 1442   5.421   6.824   9.900  3.7037 -0.9895 -0.4075
   20CHL1    C9 1443   5.322   6.639   9.978 -0.5789  0.1651 -0.0778
   20CHL1    H9 1444   5.239   6.705  10.010  0.4162  0.6140  1.6524
   20CHL1   C10 1445   5.397   6.618  10.115  0.1602 -0.5674 -0.4962
   20CHL1   C19 1446   5.543   6.573  10.097  0.6745 -0.1809 -0.7636
   20CHL1  H19A 1447   5.611   6.578  10.184  0.0611  1.3732 -0.3429
   20CHL1  H19B 1448   5.544   6.467  10.061  0.9576 -0.2961 -0.4216
   20CHL1  H19C 1449   5.595   6.635  10.021  0.7463 -0.0414 -0.6011
   20CHL1    C1 1450   5.413   6.760  10.183  0.3037  0.6968  0.6949
   20CHL1   H1A 1451   5.466   6.831  10.116 -1.8037  1.2189 -0.5272
   20CHL1   H1B 1452   5.308   6.796  10.175  0.5425  1.5360  1.2731
   20CHL1    C2 1453   5.468   6.741  10.326  0.0273 -0.2908  0.4260
   20CHL1   H2A 1454   5.457   6.841  10.373  1.2560 -0.4778  1.1430
   20CHL1   H2B 1455   5.574   6.711  10.325  0.3905  0.9246 -0.2571
   20CHL1   C20 1456   5.242   6.630   9.408 -0.4391 -0.4130  0.2455
   20CHL1   H20 1457   5.288   6.533   9.382  0.9926 -0.3276  2.2815
   20CHL1   C21 1458   5.339   6.749   9.402 -0.2568  0.2124  0.7426
   20CHL1  H21A 1459   5.295   6.839   9.451  3.9749  2.2058  1.3157
   20CHL1  H21B 1460   5.361   6.767   9.295 -2.4481 -1.6160 -0.1048
   20CHL1  H21C 1461   5.434   6.727   9.455 -0.3993 -0.4027  0.7459
   20CHL1   C22 1462   5.131   6.635   9.302 -0.1340  0.1341  0.0952
   20CHL1  H22A 1463   5.038   6.577   9.319 -1.2651  1.5696 -0.9487
   20CHL1  H22B 1464   5.091   6.738   9.289  1.1539  0.4042 -2.1039
   20CHL1   C23 1465   5.189   6.599   9.163 -0.5828  0.4170  0.2851
   20CHL1  H23A 1466   5.285   6.649   9.139 -0.3169  0.2733  1.0266
   20CHL1  H23B 1467   5.207   6.490   9.171  0.7228  0.6862  1.6414
   20CHL1   C24 1468   5.086   6.625   9.045 -0.6442  0.3172 -0.3523
   20CHL1  H24A 1469   5.125   6.577   8.953  2.1233 -0.0084  0.8825
   20CHL1  H24B 1470   4.991   6.573   9.070 -1.0275  1.0625 -0.2260
   20CHL1   C25 1471   5.048   6.771   9.018 -0.5776 -0.4036  0.2974
   20CHL1   H25 1472   4.986   6.809   9.102 -0.7362  2.4690 -0.9983
   20CHL1   C26 1473   5.179   6.858   8.999  0.4691  0.2987 -0.5619
   20CHL1  H26A 1474   5.233   6.809   8.916  2.1081 -1.0332  1.1932
   20CHL1  H26B 1475   5.144   6.957   8.963 -0.4851 -0.9666 -3.4164
   20CHL1  H26C 1476   5.247   6.870   9.086 -2.3917  1.0127  1.7747
   20CHL1   C27 1477   4.970   6.786   8.886 -0.3119  0.0419  0.2155
   20CHL1  H27A 1478   5.040   6.775   8.800 -1.0442 -1.3478 -0.2229
   20CHL1  H27B 1479   4.900   6.701   8.888  0.7396 -0.8488  2.5181
   20CHL1  H27C 1480   4.913   6.881   8.873 -0.4585  0.2782  2.2773
   21CHL1    C3 1481   4.085   3.591  10.146 -0.3825 -0.1609  0.2780
   21CHL1    H3 1482   4.051   3.491  10.112 -3.5831  1.7641 -2.8581
   21CHL1    O3 1483   4.037   3.615  10.281 -0.8531 -0.2940  0.4653
   21CHL1   H3' 1484   4.059   3.707  10.300 -1.3201 -0.3325  1.2020
   21CHL1    C4 1485   4.234   3.622  10.128 -0.2799 -0.0435  0.4428
   21CHL1   H4A 1486   4.263   3.725  10.160 -1.4208  0.1359  0.9293
   21CHL1   H4B 1487   4.288   3.555  10.197  1.1156  1.2786  0.6868
   21CHL1    C5 1488   4.270   3.598   9.977 -0.5051  0.1686  0.0780
   21CHL1    C6 1489   4.372   3.515   9.946  0.1298  1.1231  0.7253
   21CHL1    H6 1490   4.428   3.459  10.023 -0.2043 -0.2763 -0.0137
   21CHL1    C7 1491   4.414   3.489   9.804  0.5766 -0.4650  0.4710
   21CHL1   H7A 1492   4.525   3.487   9.792  0.7430 -1.0269  1.8059
   21CHL1   H7B 1493   4.376   3.390   9.771 -1.6785  0.8848 -1.2036
   21CHL1    C8 1494   4.355   3.599   9.703  0.0176  0.6089 -0.2076
   21CHL1    H8 1495   4.406   3.695   9.724 -1.2592  1.0536  1.0316
   21CHL1   C14 1496   4.374   3.555   9.559  1.0057  1.0616 -0.0311
   21CHL1   H14 1497   4.324   3.456   9.547 -2.7404  2.5899  1.2704
   21CHL1   C15 1498   4.519   3.533   9.510  0.0406  0.0574  0.5269
   21CHL1  H15A 1499   4.582   3.621   9.535  0.6447 -0.5836  1.3392
   21CHL1  H15B 1500   4.556   3.441   9.559  0.0177  0.2916  0.9873
   21CHL1   C16 1501   4.493   3.513   9.360 -0.0875  0.4251 -0.2661
   21CHL1  H16A 1502   4.581   3.549   9.301  0.4997  1.4877  1.1880
   21CHL1  H16B 1503   4.479   3.403   9.350 -2.3569  0.6660 -0.1548
   21CHL1   C17 1504   4.352   3.567   9.323  0.4700 -0.1673  0.1271
   21CHL1   H17 1505   4.271   3.492   9.310  0.5456 -0.0917 -0.8742
   21CHL1   C13 1506   4.305   3.641   9.455 -0.5796 -0.6892  0.0533
   21CHL1   C18 1507   4.372   3.782   9.456  0.1168 -0.1826 -0.9645
   21CHL1  H18A 1508   4.375   3.820   9.561 -1.3486  2.6797 -1.8538
   21CHL1  H18B 1509   4.475   3.778   9.416 -0.4438  0.1360 -2.5022
   21CHL1  H18C 1510   4.313   3.850   9.392 -0.0484 -1.1153 -1.8295
   21CHL1   C12 1511   4.150   3.631   9.481 -0.7825  0.1870  0.1893
   21CHL1  H12A 1512   4.090   3.696   9.413 -0.7993  0.1144  0.1343
   21CHL1  H12B 1513   4.113   3.527   9.473  2.0763 -0.7728 -2.2267
   21CHL1   C11 1514   4.124   3.685   9.621  0.2199 -0.3407  0.0548
   21CHL1  H11A 1515   4.149   3.793   9.624 -0.5752 -0.1485  0.2540
   21CHL1  H11B 1516   4.016   3.680   9.648  0.8440 -0.0220  2.8846
   21CHL1    C9 1517   4.203   3.619   9.731 -0.8250  0.1071 -0.3600
   21CHL1    H9 1518   4.164   3.516   9.739  2.2980 -1.0829  1.2073
   21CHL1   C10 1519   4.181   3.673   9.872 -0.4968  0.1893  0.5948
   21CHL1   C19 1520   4.220   3.819   9.890 -0.1655  0.4775  0.8068
   21CHL1  H19A 1521   4.174   3.888   9.816  0.9970 -0.5380 -0.9126
   21CHL1  H19B 1522   4.187   3.861   9.988  0.5248  1.1169  0.7781
   21CHL1  H19C 1523   4.331   3.826   9.885 -0.0258 -1.6240  0.0035
   21CHL1    C1 1524   4.030   3.672   9.902 -0.0309  0.1586 -0.0865
   21CHL1   H1A 1525   3.981   3.748   9.839 -1.8325  0.1394  1.2143
   21CHL1   H1B 1526   4.002   3.569   9.872  1.9266 -0.6078  0.5186
   21CHL1    C2 1527   3.999   3.683  10.052  0.1410  0.3436  0.3027
   21CHL1   H2A 1528   3.893   3.656  10.066  0.1863  0.2076  0.3871
   21CHL1   H2B 1529   4.016   3.789  10.082  1.9981  0.4405 -0.8753
   21CHL1   C20 1530   4.365   3.635   9.189 -0.4384  0.1117 -0.0075
   21CHL1   H20 1531   4.445   3.711   9.189 -1.9858  1.8133 -0.0485
   21CHL1   C21 1532   4.227   3.701   9.153 -0.6721  0.3579  0.3049
   21CHL1  H21A 1533   4.146   3.625   9.156 -1.8030  1.5553  1.7640
   21CHL1  H21B 1534   4.243   3.748   9.054 -0.0016 -0.4661  0.0053
   21CHL1  H21C 1535   4.208   3.783   9.225  3.5726  1.4997  0.4105
   21CHL1   C22 1536   4.396   3.527   9.077  0.3408  0.2031 -0.0845
   21CHL1  H22A 1537   4.483   3.462   9.099  0.0267  0.0750  0.8360
   21CHL1  H22B 1538   4.312   3.455   9.093 -0.5076  0.9291 -1.1331
   21CHL1   C23 1539   4.412   3.568   8.929  0.9342 -0.0819  0.0287
   21CHL1  H23A 1540   4.329   3.627   8.885  1.3682  0.2087 -0.4052
   21CHL1  H23B 1541   4.492   3.645   8.943  2.1782 -1.1811 -0.7733
   21CHL1   C24 1542   4.465   3.462   8.843  0.2644 -0.1595  0.5369
   21CHL1  H24A 1543   4.545   3.403   8.893  0.0996  1.0633  2.3387
   21CHL1  H24B 1544   4.380   3.393   8.826  1.3766 -1.2917 -0.5566
   21CHL1   C25 1545   4.511   3.515   8.698 -0.0607  0.7470  0.3598
   21CHL1   H25 1546   4.535   3.421   8.643  3.0665  0.9184  1.2645
   21CHL1   C26 1547   4.401   3.581   8.613  0.5585  0.3500  0.8651
   21CHL1  H26A 1548   4.425   3.606   8.508  1.0595  0.1354  0.9237
   21CHL1  H26B 1549   4.303   3.529   8.611  1.2185 -0.9232 -1.5822
   21CHL1  H26C 1550   4.372   3.678   8.660  1.6476  1.1032  0.0413
   21CHL1   C27 1551   4.639   3.598   8.708  0.1868 -0.5786  0.1592
   21CHL1  H27A 1552   4.620   3.692   8.763  1.3940  0.7385 -1.5859
   21CHL1  H27B 1553   4.726   3.549   8.758 -0.3292 -0.4336  1.2319
   21CHL1  H27C 1554   4.674   3.630   8.608  1.5264 -0.9802  0.4661
   22CHL1    C3 1555   3.445   2.843   9.846 -0.1909  0.1738  0.0672
   22CHL1    H3 1556   3.383   2.934   9.863  0.2092  0.0982  2.2300
   22CHL1    O3 1557   3.468   2.775   9.970 -0.4119  0.0898  0.1104
   22CHL1   H3' 1558   3.553   2.732   9.967 -0.2890  0.2763  0.7278
   22CHL1    C4 1559   3.373   2.754   9.752 -0.2582  1.0251  0.1909
   22CHL1   H4A 1560   3.426   2.657   9.747 -0.8879  0.6671  0.3347
   22CHL1   H4B 1561   3.273   2.727   9.791 -0.1295 -1.5540 -1.0237
   22CHL1    C5 1562   3.363   2.817   9.619 -0.2238  0.1144 -0.0598
   22CHL1    C6 1563   3.251   2.828   9.551  0.8012  0.2107  0.4870
   22CHL1    H6 1564   3.156   2.796   9.596 -0.8346  3.7908 -0.0456
   22CHL1    C7 1565   3.237   2.888   9.409 -0.1028 -0.5702  0.2729
   22CHL1   H7A 1566   3.162   2.825   9.355  1.2683 -0.9029 -1.3165
   22CHL1   H7B 1567   3.188   2.987   9.420  0.6729 -0.1225 -0.2768
   22CHL1    C8 1568   3.371   2.904   9.335  0.7727 -0.7606  0.5489
   22CHL1    H8 1569   3.398   2.804   9.294  1.7546  0.3632 -1.7146
   22CHL1   C14 1570   3.347   2.986   9.215 -0.9052  0.2319  0.0145
   22CHL1   H14 1571   3.322   3.088   9.252  1.6889  1.0185 -0.1861
   22CHL1   C15 1572   3.245   2.930   9.109  0.6166 -0.2705 -0.3695
   22CHL1  H15A 1573   3.257   2.820   9.107  0.9089 -0.2749  0.7350
   22CHL1  H15B 1574   3.144   2.958   9.143  0.7937  1.7300 -1.3460
   22CHL1   C16 1575   3.282   3.006   8.977  0.3728  0.8039 -0.3327
   22CHL1  H16A 1576   3.297   2.918   8.911  0.6886 -1.2638  2.2974
   22CHL1  H16B 1577   3.208   3.080   8.939  0.6512  1.1550 -0.1922
   22CHL1   C17 1578   3.418   3.083   9.011 -0.1486  0.1007 -0.1249
   22CHL1   H17 1579   3.390   3.184   9.047 -0.9814  0.3386 -1.3549
   22CHL1   C13 1580   3.475   3.006   9.136 -0.2995  0.6297  0.6752
   22CHL1   C18 1581   3.543   2.869   9.093  0.9701  0.2579  0.2330
   22CHL1  H18A 1582   3.569   2.814   9.185  0.0149  0.3763  0.5796
   22CHL1  H18B 1583   3.483   2.801   9.029 -1.3207 -1.3241  3.7757
   22CHL1  H18C 1584   3.640   2.886   9.040  0.3850  0.2075 -0.8831
   22CHL1   C12 1585   3.574   3.083   9.218  0.0261 -0.1261 -0.3337
   22CHL1  H12A 1586   3.672   3.090   9.165 -0.4330  0.6507 -1.1018
   22CHL1  H12B 1587   3.541   3.189   9.228  2.7434  0.6338  2.4824
   22CHL1   C11 1588   3.597   3.017   9.360 -0.2287 -0.2118 -0.1649
   22CHL1  H11A 1589   3.677   2.939   9.355  0.1682  0.2077 -0.4503
   22CHL1  H11B 1590   3.648   3.094   9.423  0.9290 -0.2296 -1.0357
   22CHL1    C9 1591   3.468   2.962   9.429  0.3320 -0.0702  0.0612
   22CHL1    H9 1592   3.423   3.060   9.457 -1.1177  0.3386 -3.2372
   22CHL1   C10 1593   3.496   2.874   9.556  0.3653  0.5738  0.5175
   22CHL1   C19 1594   3.586   2.748   9.523 -0.2027  0.1306 -0.6013
   22CHL1  H19A 1595   3.541   2.680   9.448 -2.7125  0.4078  0.5503
   22CHL1  H19B 1596   3.685   2.779   9.483  0.6754  0.6528  1.7656
   22CHL1  H19C 1597   3.595   2.682   9.612 -0.9858  1.1888  0.2911
   22CHL1    C1 1598   3.567   2.961   9.663  0.6410 -0.3180  0.2053
   22CHL1   H1A 1599   3.666   2.990   9.624  0.4110  0.9405  0.5323
   22CHL1   H1B 1600   3.497   3.047   9.675  0.2797 -0.5031 -0.5372
   22CHL1    C2 1601   3.578   2.900   9.802 -0.0640 -0.9304  0.0977
   22CHL1   H2A 1602   3.624   2.974   9.872 -0.4410  0.6882 -1.2991
   22CHL1   H2B 1603   3.648   2.814   9.814  2.5732  1.2535  1.5756
   22CHL1   C20 1604   3.513   3.099   8.886  0.6361  0.0321 -0.8023
   22CHL1   H20 1605   3.530   2.994   8.856 -0.5257 -0.8135  1.2885
   22CHL1   C21 1606   3.648   3.171   8.915 -0.0334  0.3132 -0.4059
   22CHL1  H21A 1607   3.631   3.275   8.949  1.5177  0.1536  0.9606
   22CHL1  H21B 1608   3.714   3.168   8.825  0.8366 -0.5889  0.2315
   22CHL1  H21C 1609   3.703   3.105   8.985 -2.7236 -0.6860  0.9004
   22CHL1   C22 1610   3.439   3.167   8.764  0.2987 -0.5099  0.7031
   22CHL1  H22A 1611   3.330   3.145   8.759  0.7891 -2.7094 -2.1569
   22CHL1  H22B 1612   3.443   3.276   8.787 -1.7212 -0.2765  0.1783
   22CHL1   C23 1613   3.496   3.141   8.628 -0.2742 -0.7702  0.3033
   22CHL1  H23A 1614   3.431   3.190   8.553 -2.1096 -2.5115  0.6731
   22CHL1  H23B 1615   3.603   3.169   8.615 -0.2052 -1.7764 -1.7290
   22CHL1   C24 1616   3.477   2.991   8.580 -0.0674  0.6919  0.0175
   22CHL1  H24A 1617   3.503   2.916   8.657 -1.2110 -0.1268 -0.3628
   22CHL1  H24B 1618   3.370   2.977   8.551  0.2233  1.5572 -1.5944
   22CHL1   C25 1619   3.562   2.970   8.462 -0.5529  0.3553  0.8041
   22CHL1   H25 1620   3.665   2.988   8.500 -0.4547  0.0519  0.6855
   22CHL1   C26 1621   3.547   2.816   8.420  0.5410 -0.1393 -0.1444
   22CHL1  H26A 1622   3.587   2.753   8.502 -1.8819  0.4571  1.6375
   22CHL1  H26B 1623   3.437   2.799   8.414  0.7977 -1.5871 -1.2607
   22CHL1  H26C 1624   3.601   2.791   8.327  1.7688  2.0944 -0.0910
   22CHL1   C27 1625   3.539   3.054   8.328 -0.0717 -0.6243 -0.2247
   22CHL1  H27A 1626   3.527   3.163   8.347 -1.8557 -0.4404 -1.9998
   22CHL1  H27B 1627   3.623   3.044   8.255  1.7743  1.0740  1.5381
   22CHL1  H27C 1628   3.452   3.013   8.272  1.4498 -0.5916 -2.7673
   23CHL1    C3 1629   2.024   4.144  10.052 -0.2193  0.3945 -0.6585
   23CHL1    H3 1630   1.969   4.238  10.030 -0.8750  0.7785  2.2329
   23CHL1    O3 1631   2.045   4.148  10.193  0.6627  0.1958 -0.6045
   23CHL1   H3' 1632   2.137   4.130  10.211  0.7461  1.1797  0.0278
   23CHL1    C4 1633   1.935   4.022  10.024  0.4633  0.2108  0.1158
   23CHL1   H4A 1634   1.980   3.923  10.043 -0.8756 -1.0417 -2.6778
   23CHL1   H4B 1635   1.845   4.021  10.089  0.6769 -0.1907  0.4066
   23CHL1    C5 1636   1.900   4.011   9.880  0.1299 -0.3622 -0.3654
   23CHL1    C6 1637   1.770   4.010   9.842  0.6498 -0.2361 -0.1957
   23CHL1    H6 1638   1.687   4.018   9.912  0.5140  1.2550 -0.5024
   23CHL1    C7 1639   1.730   3.981   9.701 -0.8067  0.0883 -0.2536
   23CHL1   H7A 1640   1.642   3.913   9.690  0.1344 -1.7936  2.7206
   23CHL1   H7B 1641   1.701   4.077   9.654 -0.2072  0.5182  0.2319
   23CHL1    C8 1642   1.847   3.935   9.609 -0.4444 -0.2924 -0.0441
   23CHL1    H8 1643   1.854   3.825   9.624 -0.5384 -0.1692  0.9905
   23CHL1   C14 1644   1.813   3.954   9.455 -0.5156 -0.4987  0.2900
   23CHL1   H14 1645   1.807   4.065   9.449  0.4942 -0.4072  0.8004
   23CHL1   C15 1646   1.674   3.894   9.403 -0.2613  0.6350  0.0791
   23CHL1  H15A 1647   1.665   3.800   9.462 -0.1696 -0.2811 -1.3114
   23CHL1  H15B 1648   1.591   3.962   9.432 -0.2397 -0.0881  2.0322
   23CHL1   C16 1649   1.697   3.874   9.252 -0.4761 -0.6011 -0.5917
   23CHL1  H16A 1650   1.695   3.765   9.232  2.1720 -0.5949 -1.2503
   23CHL1  H16B 1651   1.615   3.920   9.192 -0.6162  0.3093  0.2635
   23CHL1   C17 1652   1.835   3.933   9.222 -0.0321 -0.3941  0.6083
   23CHL1   H17 1653   1.815   4.041   9.210 -0.2076 -0.1652  2.6061
   23CHL1   C13 1654   1.922   3.912   9.350 -0.1360  0.1493  0.2871
   23CHL1   C18 1655   1.947   3.758   9.376  0.5615 -0.4857 -0.0901
   23CHL1  H18A 1656   2.035   3.734   9.313  1.0324  3.2356 -1.0654
   23CHL1  H18B 1657   1.985   3.743   9.480 -0.5734  1.2189  0.6098
   23CHL1  H18C 1658   1.857   3.696   9.359  1.7343 -2.3108  0.0474
   23CHL1   C12 1659   2.042   4.007   9.381 -0.5382 -0.5717  0.1747
   23CHL1  H12A 1660   2.135   4.008   9.320 -0.5607  1.8177  0.0876
   23CHL1  H12B 1661   1.997   4.106   9.358  0.4957 -0.2784 -0.6519
   23CHL1   C11 1662   2.083   3.996   9.526  0.5646  0.5733  0.3591
   23CHL1  H11A 1663   2.129   3.894   9.523  0.1544  0.4082 -1.1632
   23CHL1  H11B 1664   2.173   4.059   9.544  1.1219 -0.3232  0.7782
   23CHL1    C9 1665   1.974   4.011   9.640 -0.4543  0.3211  0.3198
   23CHL1    H9 1666   1.939   4.116   9.626 -0.9270 -0.0959 -2.0626
   23CHL1   C10 1667   2.018   3.997   9.783  0.1588  1.1273  0.2155
   23CHL1   C19 1668   2.082   3.859   9.805 -0.4782  0.3796  0.3200
   23CHL1  H19A 1669   2.101   3.847   9.914 -3.1817 -1.8207  0.6563
   23CHL1  H19B 1670   2.018   3.777   9.766  0.2925 -1.7883  3.2459
   23CHL1  H19C 1671   2.182   3.866   9.757 -0.6046  0.2354  0.0325
   23CHL1    C1 1672   2.120   4.113   9.813  0.5144 -0.1856 -0.2860
   23CHL1   H1A 1673   2.218   4.088   9.768  0.3153 -1.1113 -0.2204
   23CHL1   H1B 1674   2.091   4.211   9.770  1.9951  0.3720 -0.0764
   23CHL1    C2 1675   2.155   4.128   9.970 -0.2861 -0.6758  0.1289
   23CHL1   H2A 1676   2.220   4.218   9.977  0.0204 -0.6717 -1.9292
   23CHL1   H2B 1677   2.221   4.045  10.002  0.7618 -0.9390 -2.4537
   23CHL1   C20 1678   1.900   3.884   9.088 -0.4309  0.5468  0.1167
   23CHL1   H20 1679   1.885   3.774   9.082  0.4306  0.4413 -0.3440
   23CHL1   C21 1680   2.054   3.904   9.086  0.7339  0.0050 -0.3126
   23CHL1  H21A 1681   2.102   3.856   8.998 -1.2767 -2.1966 -0.3201
   23CHL1  H21B 1682   2.099   3.859   9.178  0.2961 -0.1934 -0.1940
   23CHL1  H21C 1683   2.073   4.013   9.078 -0.4203  0.1777 -0.8619
   23CHL1   C22 1684   1.836   3.944   8.957  0.2673 -0.2844 -0.2123
   23CHL1  H22A 1685   1.726   3.944   8.971  0.2409  1.2122 -0.2444
   23CHL1  H22B 1686   1.862   4.052   8.947  0.3761  0.1833  3.7638
   23CHL1   C23 1687   1.877   3.868   8.825 -0.1824 -1.1576 -0.1340
   23CHL1  H23A 1688   1.985   3.852   8.804  0.5779  2.8465 -0.1177
   23CHL1  H23B 1689   1.827   3.769   8.826 -2.0473 -0.2688 -0.9916
   23CHL1   C24 1690   1.823   3.941   8.706 -0.8198 -0.2186 -0.4329
   23CHL1  H24A 1691   1.717   3.959   8.732 -1.4140 -3.0962 -0.5891
   23CHL1  H24B 1692   1.865   4.044   8.711  1.5423 -1.1065 -0.2991
   23CHL1   C25 1693   1.837   3.871   8.564  0.5178 -0.3174  0.5450
   23CHL1   H25 1694   1.799   3.947   8.494 -0.1894  1.2671  2.5414
   23CHL1   C26 1695   1.980   3.834   8.527 -0.5183 -1.1326 -0.3895
   23CHL1  H26A 1696   2.055   3.915   8.513 -0.4781 -1.1366 -0.2010
   23CHL1  H26B 1697   2.017   3.764   8.606  2.0956  0.1302 -0.3690
   23CHL1  H26C 1698   1.981   3.775   8.433  1.1832  0.0492 -1.1627
   23CHL1   C27 1699   1.739   3.757   8.554 -0.3167  0.2657 -0.3965
   23CHL1  H27A 1700   1.752   3.701   8.649  0.6320  1.2044  0.0391
   23CHL1  H27B 1701   1.634   3.793   8.553 -0.4451 -0.0943  0.0900
   23CHL1  H27C 1702   1.762   3.693   8.466  2.0102 -0.6732  0.8119
   24CHL1    C3 1703   3.443   3.751  10.286  0.0429  0.3613  0.6826
   24CHL1    H3 1704   3.464   3.860  10.283  3.4391 -0.1558  1.5278
   24CHL1    O3 1705   3.495   3.713  10.412  0.1148  0.4045  0.1999
   24CHL1   H3' 1706   3.576   3.668  10.387 -0.0748  0.2162 -0.0758
   24CHL1    C4 1707   3.294   3.724  10.284 -0.2629 -0.2514  0.4540
   24CHL1   H4A 1708   3.283   3.615  10.308 -0.5483 -0.1302  0.8943
   24CHL1   H4B 1709   3.252   3.785  10.367  0.0839  0.9991 -0.2703
   24CHL1    C5 1710   3.228   3.759  10.153  0.4548  0.7165  0.8702
   24CHL1    C6 1711   3.139   3.853  10.144  0.3992 -0.2599  0.8626
   24CHL1    H6 1712   3.105   3.909  10.232 -0.5403 -2.3911  1.9215
   24CHL1    C7 1713   3.074   3.891  10.010  0.6864  0.0067  0.5510
   24CHL1   H7A 1714   2.963   3.893  10.021  0.8194  1.5848  2.1748
   24CHL1   H7B 1715   3.108   3.993   9.982 -1.5806  0.6003 -0.2561
   24CHL1    C8 1716   3.107   3.792   9.897 -0.3276  0.1026  0.3091
   24CHL1    H8 1717   3.042   3.702   9.903 -2.3007  1.1532 -2.8958
   24CHL1   C14 1718   3.070   3.851   9.757 -0.5408  0.1599 -0.1670
   24CHL1   H14 1719   3.135   3.941   9.748  2.0330 -1.5925 -0.1605
   24CHL1   C15 1720   2.933   3.919   9.746  0.0585 -0.0585 -0.0081
   24CHL1  H15A 1721   2.853   3.863   9.799 -3.7790  2.6582 -2.3163
   24CHL1  H15B 1722   2.944   4.025   9.778  1.3341 -0.0187 -0.5252
   24CHL1   C16 1723   2.908   3.907   9.594 -0.1734 -0.9337  0.1434
   24CHL1  H16A 1724   2.814   3.857   9.560 -1.5163  2.9020 -2.4666
   24CHL1  H16B 1725   2.897   4.014   9.565 -0.2927 -0.8468  0.5048
   24CHL1   C17 1726   3.034   3.840   9.524  0.3201 -0.2174  0.5240
   24CHL1   H17 1727   3.108   3.921   9.509  0.0026 -0.0032  0.0979
   24CHL1   C13 1728   3.091   3.756   9.639  0.4900  0.5292 -0.2029
   24CHL1   C18 1729   3.013   3.623   9.659 -0.4014  0.3020 -0.2032
   24CHL1  H18A 1730   3.050   3.562   9.745 -0.1242  0.3543 -0.2840
   24CHL1  H18B 1731   2.903   3.630   9.667 -0.3487  0.4423  0.4267
   24CHL1  H18C 1732   3.024   3.558   9.569 -1.2121 -2.8418  1.8068
   24CHL1   C12 1733   3.239   3.733   9.640  0.7945  0.2220 -0.0133
   24CHL1  H12A 1734   3.272   3.668   9.556  0.0599  0.2550 -0.3344
   24CHL1  H12B 1735   3.276   3.836   9.620  0.0155  0.5307  0.0952
   24CHL1   C11 1736   3.304   3.690   9.766 -0.1140 -0.3596 -0.3725
   24CHL1  H11A 1737   3.281   3.582   9.781  0.5738 -0.3482  0.8287
   24CHL1  H11B 1738   3.413   3.704   9.753 -0.1838  2.3757  1.2546
   24CHL1    C9 1739   3.256   3.765   9.892  0.1557 -0.7231  0.2556
   24CHL1    H9 1740   3.302   3.865   9.882  0.0691 -0.8506 -1.5981
   24CHL1   C10 1741   3.299   3.693  10.027 -0.1504  0.2866  1.2343
   24CHL1   C19 1742   3.270   3.538  10.030  0.5186  0.5395 -0.4700
   24CHL1  H19A 1743   3.329   3.488   9.951 -0.6219  1.8039 -2.2043
   24CHL1  H19B 1744   3.298   3.487  10.125 -1.1449 -2.2904 -1.3854
   24CHL1  H19C 1745   3.160   3.533  10.014  0.3714  1.8637 -0.0216
   24CHL1    C1 1746   3.453   3.712  10.038 -0.5411  0.1814  0.2872
   24CHL1   H1A 1747   3.504   3.648   9.962 -0.4595 -2.0627  2.1282
   24CHL1   H1B 1748   3.485   3.815  10.013  4.0047 -1.3258 -1.1736
   24CHL1    C2 1749   3.522   3.683  10.169  0.4946  0.2654  0.5688
   24CHL1   H2A 1750   3.629   3.712  10.169 -0.1514  2.9629 -0.4107
   24CHL1   H2B 1751   3.522   3.574  10.191 -0.0685  0.0690 -0.3288
   24CHL1   C20 1752   3.004   3.775   9.391 -0.1713 -0.0284 -0.5240
   24CHL1   H20 1753   2.943   3.685   9.416 -1.0280  0.2200 -1.6467
   24CHL1   C21 1754   3.133   3.720   9.321  0.2879  1.2165 -0.7069
   24CHL1  H21A 1755   3.105   3.682   9.221 -0.2230 -2.6278  0.6942
   24CHL1  H21B 1756   3.173   3.639   9.386  1.2918  0.1790 -2.5588
   24CHL1  H21C 1757   3.207   3.802   9.316  2.6105 -0.7540 -0.1757
   24CHL1   C22 1758   2.927   3.877   9.289 -0.5472  0.4806  0.2068
   24CHL1  H22A 1759   2.941   3.825   9.192  0.7785  0.6745  0.2737
   24CHL1  H22B 1760   2.820   3.878   9.319 -0.6390  3.7756  0.0902
   24CHL1   C23 1761   2.973   4.016   9.267  0.1795 -0.0837 -0.0744
   24CHL1  H23A 1762   2.987   4.076   9.360 -0.8593 -0.3973  0.2948
   24CHL1  H23B 1763   3.072   4.004   9.218 -0.5514 -1.5076 -1.2963
   24CHL1   C24 1764   2.868   4.085   9.182  0.6109 -0.3742 -0.6912
   24CHL1  H24A 1765   2.856   4.036   9.083 -1.8903  0.6297 -0.9717
   24CHL1  H24B 1766   2.769   4.076   9.232  0.2093  1.7524 -0.9936
   24CHL1   C25 1767   2.917   4.234   9.159  0.0033 -0.0092 -0.0639
   24CHL1   H25 1768   2.932   4.282   9.258 -0.6912 -0.6377  0.3587
   24CHL1   C26 1769   3.055   4.252   9.092  0.0556 -0.7217 -0.6982
   24CHL1  H26A 1770   3.057   4.199   8.994 -0.6572 -3.3472  0.6377
   24CHL1  H26B 1771   3.076   4.359   9.068 -0.9647  0.1984  2.0996
   24CHL1  H26C 1772   3.133   4.209   9.158 -0.5697 -1.6056 -0.5180
   24CHL1   C27 1773   2.811   4.321   9.088 -0.0899  0.8433  0.4251
   24CHL1  H27A 1774   2.862   4.400   9.028 -0.2347 -0.2910 -1.2643
   24CHL1  H27B 1775   2.767   4.252   9.013  0.2766  0.3424  0.6662
   24CHL1  H27C 1776   2.731   4.355   9.158 -0.4090  1.2826 -0.1415
   25CHL1    C3 1777   0.187   6.614  10.355  0.0885  0.7746  0.6375
   25CHL1    H3 1778   0.094   6.675  10.349 -1.9010 -2.1998 -3.0199
   25CHL1    O3 1779   0.209   6.581  10.489 -0.1937  0.9509 -0.6742
   25CHL1   H3' 1780   0.246   6.658  10.532  1.4456  1.1898 -2.3546
   25CHL1    C4 1781   0.188   6.490  10.260 -0.0959  0.6791  0.1611
   25CHL1   H4A 1782   0.291   6.449  10.271  1.0861  2.9283 -1.7410
   25CHL1   H4B 1783   0.115   6.410  10.287  0.4699 -0.3819 -1.3188
   25CHL1    C5 1784   0.166   6.530  10.121 -0.0028  0.4803  0.1566
   25CHL1    C6 1785   0.055   6.494  10.052  0.0158 -0.4693 -0.1152
   25CHL1    H6 1786  -0.019   6.430  10.101 -0.6928  0.1393 -0.3800
   25CHL1    C7 1787   0.028   6.532   9.908 -0.5485  0.6920  0.2002
   25CHL1   H7A 1788  -0.012   6.446   9.850  0.3750  1.9642 -2.4314
   25CHL1   H7B 1789  -0.044   6.616   9.902 -2.7397 -1.1222 -0.7886
   25CHL1    C8 1790   0.155   6.589   9.837 -0.1183  0.9919  0.4282
   25CHL1    H8 1791   0.223   6.502   9.825  0.4771  1.6237 -1.0464
   25CHL1   C14 1792   0.114   6.655   9.708  0.1228 -0.0894  0.8736
   25CHL1   H14 1793   0.054   6.746   9.730 -1.2069 -0.1657 -1.9296
   25CHL1   C15 1794   0.014   6.585   9.614 -0.6249 -1.0769 -0.3744
   25CHL1  H15A 1795   0.036   6.476   9.612 -0.5348 -1.1386  1.5291
   25CHL1  H15B 1796  -0.092   6.607   9.640 -1.0483  0.4562 -3.0285
   25CHL1   C16 1797   0.041   6.653   9.477 -0.0281 -0.1104 -0.1787
   25CHL1  H16A 1798   0.070   6.571   9.407 -2.4755 -1.9528  0.8518
   25CHL1  H16B 1799  -0.053   6.697   9.439 -0.1636 -0.5768 -0.3912
   25CHL1   C17 1800   0.160   6.753   9.491 -0.4824  0.3943 -0.9806
   25CHL1   H17 1801   0.110   6.851   9.509 -2.9063 -0.7794 -0.9998
   25CHL1   C13 1802   0.233   6.704   9.622  0.2287 -0.4153 -0.0227
   25CHL1   C18 1803   0.332   6.591   9.579 -0.0138 -0.0491 -0.1609
   25CHL1  H18A 1804   0.428   6.635   9.545  0.4690  0.2586  1.4833
   25CHL1  H18B 1805   0.357   6.526   9.666  3.0381  2.2707  0.8755
   25CHL1  H18C 1806   0.282   6.522   9.508 -0.9394  1.6542 -1.2203
   25CHL1   C12 1807   0.305   6.813   9.705 -0.1567 -0.3253  0.1840
   25CHL1  H12A 1808   0.397   6.851   9.655 -0.8925  0.8390 -0.3247
   25CHL1  H12B 1809   0.236   6.896   9.728 -0.4012 -0.9330  1.7365
   25CHL1   C11 1810   0.341   6.766   9.845 -0.1916  0.2375 -0.2676
   25CHL1  H11A 1811   0.421   6.691   9.829  0.7008  0.2439  3.3077
   25CHL1  H11B 1812   0.386   6.835   9.920  0.9937 -2.4100  1.6169
   25CHL1    C9 1813   0.225   6.695   9.921  0.5984  0.2394  0.7340
   25CHL1    H9 1814   0.140   6.762   9.946 -1.2457 -1.0604 -1.5726
   25CHL1   C10 1815   0.265   6.634  10.063 -0.4333 -0.1153 -0.0569
   25CHL1   C19 1816   0.395   6.558  10.044 -0.2644 -0.1972 -0.1798
   25CHL1  H19A 1817   0.416   6.520  10.146 -3.3951 -1.0700  0.2412
   25CHL1  H19B 1818   0.379   6.480   9.966 -4.3423  0.3982 -0.1425
   25CHL1  H19C 1819   0.480   6.625  10.016 -0.7977 -0.4039 -2.4987
   25CHL1    C1 1820   0.286   6.752  10.166 -0.2569 -0.4600 -0.8203
   25CHL1   H1A 1821   0.372   6.817  10.137 -0.1405  0.1071  0.6671
   25CHL1   H1B 1822   0.194   6.814  10.171 -0.9615 -1.5821  1.4404
   25CHL1    C2 1823   0.309   6.701  10.314  0.7323  0.0874  0.0498
   25CHL1   H2A 1824   0.317   6.796  10.372  1.6379  0.6836 -1.0132
   25CHL1   H2B 1825   0.390   6.629  10.337 -0.0762 -0.3534  1.6884
   25CHL1   C20 1826   0.238   6.774   9.358 -0.4186  0.2117 -0.4948
   25CHL1   H20 1827   0.302   6.685   9.341  1.2478  1.4732 -1.0927
   25CHL1   C21 1828   0.333   6.901   9.368 -0.0447 -0.6158  0.2545
   25CHL1  H21A 1829   0.274   6.990   9.397  0.5132 -0.4992  1.0663
   25CHL1  H21B 1830   0.397   6.918   9.279  2.8742 -1.6021  2.0229
   25CHL1  H21C 1831   0.402   6.881   9.452 -1.3784  1.7946  2.0235
   25CHL1   C22 1832   0.158   6.788   9.226  0.1805  0.2467  0.4119
   25CHL1  H22A 1833   0.219   6.809   9.135  0.3417  0.8594  0.6571
   25CHL1  H22B 1834   0.104   6.691   9.223 -1.6333  1.2586 -0.8307
   25CHL1   C23 1835   0.040   6.893   9.224 -0.2559  0.1494 -0.0674
   25CHL1  H23A 1836  -0.033   6.855   9.298  1.4389 -0.0559  1.5542
   25CHL1  H23B 1837   0.076   6.991   9.262  1.1334 -0.2141 -0.3733
   25CHL1   C24 1838  -0.028   6.914   9.091 -0.2156 -0.2988 -0.4134
   25CHL1  H24A 1839   0.038   6.967   9.019 -0.5359 -0.4945 -0.8604
   25CHL1  H24B 1840  -0.029   6.815   9.042  1.0071  0.6728 -2.5416
   25CHL1   C25 1841  -0.160   6.992   9.099  0.2139 -0.2018  0.7215
   25CHL1   H25 1842  -0.210   6.966   9.194  1.5189 -1.5819  1.0703
   25CHL1   C26 1843  -0.126   7.140   9.119 -0.4138  0.5906  0.7845
   25CHL1  H26A 1844  -0.081   7.180   9.026 -3.7435  0.3775 -1.0643
   25CHL1  H26B 1845  -0.221   7.197   9.123 -0.5398  0.5480 -0.9329
   25CHL1  H26C 1846  -0.059   7.156   9.207  0.6083  1.5284 -0.1280
   25CHL1   C27 1847  -0.250   6.961   8.978  0.0928 -0.1689 -0.4002
   25CHL1  H27A 1848  -0.289   6.857   8.982  0.2697 -0.1875  1.1477
   25CHL1  H27B 1849  -0.338   7.028   8.974 -0.5654 -0.7999  2.0719
   25CHL1  H27C 1850  -0.196   6.969   8.881  1.1444  1.4716  0.2803
   26CHL1    C3 1851   0.516   3.392  10.145 -0.3244 -0.5717 -0.0718
   26CHL1    H3 1852   0.504   3.481  10.079  0.0741 -1.2595 -1.0917
   26CHL1    O3 1853   0.517   3.433  10.279  0.0928  0.2376  0.2052
   26CHL1   H3' 1854   0.479   3.359  10.327 -0.2904 -0.8019 -1.6254
   26CHL1    C4 1855   0.397   3.302  10.127  0.1456 -0.2515  0.4250
   26CHL1   H4A 1856   0.414   3.215  10.195 -0.3430 -0.9715 -0.3573
   26CHL1   H4B 1857   0.299   3.345  10.154  0.9388  0.7813  1.7562
   26CHL1    C5 1858   0.394   3.255   9.982 -0.5079 -0.2214 -0.9242
   26CHL1    C6 1859   0.296   3.276   9.901 -0.4579  1.1323  0.7634
   26CHL1    H6 1860   0.213   3.339   9.936  1.0356  2.0500  2.8669
   26CHL1    C7 1861   0.287   3.224   9.755 -0.4989 -0.5461  0.2563
   26CHL1   H7A 1862   0.183   3.187   9.739 -0.5562  0.6605 -3.1728
   26CHL1   H7B 1863   0.306   3.301   9.676  1.2541 -0.2209  0.9641
   26CHL1    C8 1864   0.394   3.115   9.727 -0.7553 -0.0687  0.0346
   26CHL1    H8 1865   0.357   3.020   9.770 -3.5727  0.7737 -0.3508
   26CHL1   C14 1866   0.413   3.092   9.581  0.2758  0.0013 -0.5404
   26CHL1   H14 1867   0.424   3.188   9.526 -1.0922 -0.0468 -0.9507
   26CHL1   C15 1868   0.289   3.040   9.503  0.2647 -0.0791  0.6144
   26CHL1  H15A 1869   0.228   2.972   9.566 -2.1944  1.8952  0.5196
   26CHL1  H15B 1870   0.214   3.118   9.476 -0.1284 -0.7776 -0.3806
   26CHL1   C16 1871   0.338   2.975   9.368 -0.4633 -0.0765 -0.0774
   26CHL1  H16A 1872   0.304   2.869   9.371  0.5468 -0.4080 -0.0036
   26CHL1  H16B 1873   0.305   3.026   9.275 -0.1726  0.0498 -0.1115
   26CHL1   C17 1874   0.492   2.998   9.389 -0.6197  0.3381  0.8426
   26CHL1   H17 1875   0.511   3.100   9.350 -0.5503  0.6952  1.7856
   26CHL1   C13 1876   0.522   2.994   9.545  0.2864  0.5021  0.6498
   26CHL1   C18 1877   0.490   2.854   9.594  0.3664  0.1499 -0.3167
   26CHL1  H18A 1878   0.451   2.842   9.697  3.6766  0.1371  1.0798
   26CHL1  H18B 1879   0.413   2.805   9.530  0.7870  0.5073 -1.1228
   26CHL1  H18C 1880   0.584   2.795   9.588 -0.6011 -1.3079 -2.1203
   26CHL1   C12 1881   0.657   3.057   9.583 -0.3809 -0.1549 -0.1988
   26CHL1  H12A 1882   0.746   3.003   9.544 -0.0926 -0.4939  0.9059
   26CHL1  H12B 1883   0.669   3.160   9.544  0.1718  1.0549  2.8794
   26CHL1   C11 1884   0.653   3.074   9.732  0.3265 -0.3381 -0.1529
   26CHL1  H11A 1885   0.641   2.976   9.782  0.8882  0.3662  1.4391
   26CHL1  H11B 1886   0.750   3.117   9.764 -0.2646 -0.9876  2.8592
   26CHL1    C9 1887   0.531   3.160   9.786  0.0362  0.3865  0.7047
   26CHL1    H9 1888   0.551   3.261   9.744 -2.3520  1.5669  2.2236
   26CHL1   C10 1889   0.527   3.182   9.940 -0.5095 -0.1146 -0.1736
   26CHL1   C19 1890   0.545   3.049  10.015  0.1761 -0.5721  0.0106
   26CHL1  H19A 1891   0.457   2.982  10.004 -1.2121  1.0664  0.6659
   26CHL1  H19B 1892   0.641   3.000   9.989  0.0205 -1.1948  0.5947
   26CHL1  H19C 1893   0.560   3.062  10.124  2.7991 -2.9209  0.0199
   26CHL1    C1 1894   0.652   3.272   9.978 -0.2610 -0.2804  0.1120
   26CHL1   H1A 1895   0.743   3.211   9.958  0.1485 -0.5775  2.5774
   26CHL1   H1B 1896   0.631   3.360   9.914 -1.6167 -1.0256 -0.5363
   26CHL1    C2 1897   0.653   3.321  10.116  0.3936 -0.4496 -0.3069
   26CHL1   H2A 1898   0.732   3.399  10.118  0.8992 -0.9615  1.0388
   26CHL1   H2B 1899   0.673   3.237  10.187  0.7185 -0.7456 -0.7390
   26CHL1   C20 1900   0.575   2.908   9.297 -0.0200 -0.1005 -0.3402
   26CHL1   H20 1901   0.611   2.818   9.351 -0.3849 -1.2020 -1.8440
   26CHL1   C21 1902   0.705   2.976   9.249 -0.2653 -0.8047  0.2505
   26CHL1  H21A 1903   0.761   2.904   9.186 -0.8457 -1.0040 -0.0382
   26CHL1  H21B 1904   0.775   2.994   9.333 -0.7565  0.7436  0.3607
   26CHL1  H21C 1905   0.672   3.071   9.201 -1.3693 -1.9607 -1.3831
   26CHL1   C22 1906   0.491   2.870   9.167  0.4707  0.7544 -0.4307
   26CHL1  H22A 1907   0.404   2.806   9.192  0.4414  0.7502 -0.5411
   26CHL1  H22B 1908   0.434   2.956   9.126 -2.3193 -0.8391 -0.1576
   26CHL1   C23 1909   0.568   2.813   9.050 -0.4794  0.5813  0.5399
   26CHL1  H23A 1910   0.641   2.887   9.010  0.6913  0.6171  2.5994
   26CHL1  H23B 1911   0.629   2.731   9.094 -0.6052  0.1787 -0.0454
   26CHL1   C24 1912   0.487   2.754   8.934  0.0938  0.4475  0.0062
   26CHL1  H24A 1913   0.556   2.704   8.863  3.4942  2.0911  1.9080
   26CHL1  H24B 1914   0.421   2.676   8.979  0.2196 -0.3613 -1.1591
   26CHL1   C25 1915   0.410   2.849   8.850  0.1308  0.4528 -0.5400
   26CHL1   H25 1916   0.352   2.921   8.912 -1.4034  0.0858 -1.4961
   26CHL1   C26 1917   0.487   2.940   8.750  0.5329  0.0043  0.4800
   26CHL1  H26A 1918   0.575   2.975   8.809 -0.5816  2.0887  1.0080
   26CHL1  H26B 1919   0.516   2.881   8.661  1.1105  0.1213  0.5843
   26CHL1  H26C 1920   0.424   3.025   8.716 -0.6662 -0.7822  0.7079
   26CHL1   C27 1921   0.298   2.772   8.777 -0.1404 -0.2239 -0.5081
   26CHL1  H27A 1922   0.338   2.681   8.728  0.7552 -0.9941  1.5565
   26CHL1  H27B 1923   0.229   2.751   8.861  0.0624  4.5349  1.1767
   26CHL1  H27C 1924   0.241   2.843   8.713  0.3490  1.8589  1.2336
   27CHL1    C3 1925   5.048   0.077  10.399 -0.1482 -0.6489  0.2497
   27CHL1    H3 1926   5.148   0.086  10.353 -0.2688  3.5365  0.4638
   27CHL1    O3 1927   5.066   0.067  10.537 -0.5612 -0.3949  0.5026
   27CHL1   H3' 1928   4.981   0.029  10.561 -1.5120  0.5803 -1.1580
   27CHL1    C4 1929   4.969   0.203  10.371 -0.0813 -0.6608  0.2430
   27CHL1   H4A 1930   4.868   0.203  10.418 -0.4608 -0.0396 -0.5546
   27CHL1   H4B 1931   5.036   0.280  10.416  0.9537 -1.1607 -0.4115
   27CHL1    C5 1932   4.962   0.225  10.220 -0.4329 -0.4717 -0.5451
   27CHL1    C6 1933   5.023   0.331  10.158  0.2456  1.0694 -0.4098
   27CHL1    H6 1934   5.093   0.400  10.206  1.1217 -0.4734  0.6271
   27CHL1    C7 1935   5.022   0.348  10.015 -0.4690 -0.1064 -0.3615
   27CHL1   H7A 1936   5.000   0.454   9.987 -1.1459 -0.9631 -3.4217
   27CHL1   H7B 1937   5.121   0.316   9.977  1.2203  3.8158  0.2573
   27CHL1    C8 1938   4.920   0.257   9.939 -0.4478 -0.7588  0.3413
   27CHL1    H8 1939   4.817   0.286   9.970 -0.0363 -1.1336  2.1992
   27CHL1   C14 1940   4.938   0.273   9.783 -0.1793  0.2368  0.0024
   27CHL1   H14 1941   5.030   0.216   9.759 -1.4578 -1.9187 -0.0521
   27CHL1   C15 1942   4.948   0.412   9.718  1.0495 -0.0667 -1.1090
   27CHL1  H15A 1943   4.862   0.470   9.757  2.8618 -0.1539  3.7608
   27CHL1  H15B 1944   5.035   0.467   9.759 -0.3496 -1.1770  4.0232
   27CHL1   C16 1945   4.919   0.391   9.571  0.1430  0.0557 -0.0346
   27CHL1  H16A 1946   4.833   0.454   9.541 -0.2637 -0.8074 -0.7343
   27CHL1  H16B 1947   5.000   0.417   9.501 -0.5865  1.6449 -0.3390
   27CHL1   C17 1948   4.892   0.239   9.556  0.3041  0.2182 -0.1630
   27CHL1   H17 1949   4.994   0.197   9.542 -0.2212 -1.5648  1.0855
   27CHL1   C13 1950   4.840   0.193   9.699  0.0145  0.1670 -0.3620
   27CHL1   C18 1951   4.695   0.246   9.726  0.1811 -0.3575  0.0724
   27CHL1  H18A 1952   4.689   0.354   9.703 -0.8532  0.3363  3.0891
   27CHL1  H18B 1953   4.633   0.193   9.651  2.2835 -1.9079 -0.6784
   27CHL1  H18C 1954   4.672   0.223   9.832  0.7908 -1.6613 -0.0591
   27CHL1   C12 1955   4.858   0.045   9.746  0.3763  0.3105  0.4474
   27CHL1  H12A 1956   4.770  -0.007   9.702 -0.4973 -0.0398  2.5126
   27CHL1  H12B 1957   4.949  -0.005   9.706 -0.9134 -1.6700 -0.1760
   27CHL1   C11 1958   4.841   0.021   9.893  0.1179 -0.3989 -0.3241
   27CHL1  H11A 1959   4.735   0.050   9.909  1.3363  4.1332  0.8672
   27CHL1  H11B 1960   4.856  -0.085   9.921 -2.6326 -0.4220  1.4708
   27CHL1    C9 1961   4.928   0.114   9.985  0.3790 -0.1124 -0.2338
   27CHL1    H9 1962   5.031   0.080   9.962 -0.4610 -2.3673 -0.9579
   27CHL1   C10 1963   4.901   0.101  10.138 -0.0582  0.6031 -0.1967
   27CHL1   C19 1964   4.750   0.097  10.168  0.4923  0.2607  0.5636
   27CHL1  H19A 1965   4.731   0.097  10.278  1.9446 -0.5793  0.8422
   27CHL1  H19B 1966   4.699   0.186  10.125 -0.7800 -0.7185 -0.0228
   27CHL1  H19C 1967   4.698   0.008  10.126  0.2963  0.1503  1.0252
   27CHL1    C1 1968   4.961  -0.031  10.184  0.7563  0.0166 -0.2389
   27CHL1   H1A 1969   4.898  -0.114  10.144  0.9949 -0.2238 -0.1118
   27CHL1   H1B 1970   5.068  -0.038  10.157  0.6742 -1.1134 -0.3010
   27CHL1    C2 1971   4.972  -0.045  10.340 -0.8277 -0.1699  0.0464
   27CHL1   H2A 1972   5.014  -0.143  10.370 -0.0571  0.8693  2.7255
   27CHL1   H2B 1973   4.873  -0.037  10.391 -1.0008 -2.8116  0.2336
   27CHL1   C20 1974   4.797   0.213   9.434  0.0591  0.7568 -0.3412
   27CHL1   H20 1975   4.694   0.239   9.468  0.1892 -1.2095  1.7510
   27CHL1   C21 1976   4.796   0.054   9.407 -0.9078 -0.7950 -0.4260
   27CHL1  H21A 1977   4.740  -0.000   9.486  0.0925 -1.3411 -0.0716
   27CHL1  H21B 1978   4.898   0.010   9.404  0.7364  2.7574 -2.6071
   27CHL1  H21C 1979   4.752   0.031   9.308  2.2446 -1.7915 -1.6992
   27CHL1   C22 1980   4.844   0.288   9.310 -0.1828  0.6329 -0.2859
   27CHL1  H22A 1981   4.883   0.392   9.309 -0.0784  0.6139 -2.2487
   27CHL1  H22B 1982   4.928   0.222   9.279 -0.0104  0.3088  0.8337
   27CHL1   C23 1983   4.739   0.287   9.201 -0.5699  0.6190  0.4088
   27CHL1  H23A 1984   4.710   0.181   9.184  1.7971 -0.1808  1.0485
   27CHL1  H23B 1985   4.652   0.350   9.230  0.3284  2.0967  0.0037
   27CHL1   C24 1986   4.798   0.345   9.068  0.2093 -0.1663 -0.4574
   27CHL1  H24A 1987   4.827   0.450   9.088  0.0074 -0.6216  2.6632
   27CHL1  H24B 1988   4.895   0.294   9.052  1.3275  1.1896  1.6381
   27CHL1   C25 1989   4.718   0.325   8.937  0.2608  0.8542  0.2280
   27CHL1   H25 1990   4.684   0.219   8.925 -2.2970  1.6554 -0.3364
   27CHL1   C26 1991   4.584   0.409   8.954 -0.2130 -0.1502  0.6385
   27CHL1  H26A 1992   4.519   0.372   9.036  0.1142 -0.0753  0.9348
   27CHL1  H26B 1993   4.605   0.517   8.969 -2.7388  0.3328  1.0697
   27CHL1  H26C 1994   4.528   0.404   8.858  0.3316  1.1195  0.2383
   27CHL1   C27 1995   4.795   0.374   8.813  0.1062  0.7099  0.3758
   27CHL1  H27A 1996   4.751   0.350   8.714  1.8661  0.4806 -0.3963
   27CHL1  H27B 1997   4.800   0.485   8.809 -1.8595  0.7897 -1.6224
   27CHL1  H27C 1998   4.898   0.331   8.811 -0.0496  0.1721  2.3444
   28CHL1    C3 1999   4.870   4.647  10.097  0.3203  0.5546 -0.2502
   28CHL1    H3 2000   4.978   4.645  10.070  0.5887 -2.8623  0.6562
   28CHL1    O3 2001   4.855   4.665  10.238 -0.0650 -0.5338  0.2062
   28CHL1   H3' 2002   4.769   4.705  10.253  1.4312  3.0322  0.3916
   28CHL1    C4 2003   4.803   4.764  10.030 -0.0040 -0.2757 -0.3527
   28CHL1   H4A 2004   4.699   4.772  10.070  1.0736  1.2601  2.4667
   28CHL1   H4B 2005   4.847   4.856  10.075 -2.2037  1.1423 -0.9061
   28CHL1    C5 2006   4.813   4.752   9.877 -0.4433 -0.4160 -0.5933
   28CHL1    C6 2007   4.861   4.853   9.805 -0.9720  0.2519  0.2586
   28CHL1    H6 2008   4.889   4.948   9.853  0.9123  0.0090 -0.2759
   28CHL1    C7 2009   4.859   4.853   9.655  0.4000  0.3790  0.4813
   28CHL1   H7A 2010   4.807   4.944   9.618 -0.2826 -1.2643 -3.0550
   28CHL1   H7B 2011   4.963   4.851   9.614  1.0189  1.0946  1.9397
   28CHL1    C8 2012   4.770   4.742   9.594  0.4542 -0.1485 -0.3648
   28CHL1    H8 2013   4.663   4.766   9.609  0.8833  1.5103  0.2803
   28CHL1   C14 2014   4.812   4.717   9.446  0.2678 -0.2153  0.3291
   28CHL1   H14 2015   4.911   4.668   9.440 -0.1907 -1.2891  1.0713
   28CHL1   C15 2016   4.814   4.846   9.354  0.4098 -0.2997  0.3899
   28CHL1  H15A 2017   4.726   4.906   9.386 -0.7761 -1.4518 -0.5830
   28CHL1  H15B 2018   4.903   4.912   9.366  0.4282 -0.4478  1.0934
   28CHL1   C16 2019   4.794   4.796   9.208  0.3982  0.1047 -0.1911
   28CHL1  H16A 2020   4.713   4.843   9.148  1.3876 -0.5014 -2.0602
   28CHL1  H16B 2021   4.887   4.806   9.148 -0.6603 -0.2646 -1.9743
   28CHL1   C17 2022   4.758   4.645   9.225  0.1519  0.9211  0.0074
   28CHL1   H17 2023   4.860   4.600   9.224  0.0804  0.7523  0.1199
   28CHL1   C13 2024   4.711   4.620   9.376 -0.2931 -1.1608  0.0129
   28CHL1   C18 2025   4.563   4.676   9.392  0.1252  0.2413 -0.0644
   28CHL1  H18A 2026   4.522   4.651   9.493 -0.2701  0.7818 -0.0906
   28CHL1  H18B 2027   4.544   4.785   9.382 -2.8979 -0.2642 -0.7779
   28CHL1  H18C 2028   4.496   4.625   9.319  0.4179 -1.3856  0.7565
   28CHL1   C12 2029   4.732   4.482   9.444  0.1307  0.3193  0.7934
   28CHL1  H12A 2030   4.652   4.416   9.404  1.3524 -0.5404 -0.3501
   28CHL1  H12B 2031   4.832   4.448   9.410 -0.7308 -1.0799 -0.4661
   28CHL1   C11 2032   4.732   4.488   9.595 -0.0993  0.2246 -0.1414
   28CHL1  H11A 2033   4.625   4.473   9.621 -1.1282  2.0301 -2.9377
   28CHL1  H11B 2034   4.777   4.394   9.636  0.0322  1.1422  1.9549
   28CHL1    C9 2035   4.791   4.611   9.667  0.6987 -0.4853  0.5498
   28CHL1    H9 2036   4.900   4.596   9.650  0.8385  1.3475 -0.4094
   28CHL1   C10 2037   4.759   4.626   9.819  0.5864  0.2970  0.6098
   28CHL1   C19 2038   4.608   4.630   9.841 -0.1157  0.7350 -0.4182
   28CHL1  H19A 2039   4.556   4.713   9.789 -2.9228 -0.2894  0.5454
   28CHL1  H19B 2040   4.561   4.535   9.807  1.1436 -0.1845  0.3036
   28CHL1  H19C 2041   4.580   4.644   9.948 -2.5955 -2.3630 -0.5019
   28CHL1    C1 2042   4.829   4.503   9.897  0.1549 -0.1726  0.4209
   28CHL1   H1A 2043   4.794   4.404   9.860  0.1626  0.0922 -0.3279
   28CHL1   H1B 2044   4.939   4.503   9.881  0.1241 -0.1931  0.2009
   28CHL1    C2 2045   4.819   4.504  10.058  0.0275  0.2311  0.4723
   28CHL1   H2A 2046   4.878   4.419  10.097 -0.8130 -2.5676 -3.6175
   28CHL1   H2B 2047   4.714   4.477  10.083  0.0210 -0.8309 -0.5884
   28CHL1   C20 2048   4.683   4.581   9.110 -0.1491 -0.0877 -0.2022
   28CHL1   H20 2049   4.586   4.633   9.095 -1.3149 -2.4028 -1.2715
   28CHL1   C21 2050   4.653   4.434   9.135  0.1187 -0.2587 -0.7674
   28CHL1  H21A 2051   4.744   4.373   9.150  0.9738  1.4318  1.4112
   28CHL1  H21B 2052   4.599   4.387   9.050  2.1822 -0.9950 -1.7421
   28CHL1  H21C 2053   4.580   4.424   9.219  0.6380  3.1695  0.2166
   28CHL1   C22 2054   4.747   4.600   8.969 -0.7330  0.0193 -0.4574
   28CHL1  H22A 2055   4.771   4.708   8.957 -1.0000 -0.1803 -3.3350
   28CHL1  H22B 2056   4.846   4.550   8.971 -0.9589 -0.4812  1.9296
   28CHL1   C23 2057   4.650   4.568   8.847 -0.0267  0.2131 -1.0510
   28CHL1  H23A 2058   4.602   4.468   8.843 -5.0718  2.3863 -1.8751
   28CHL1  H23B 2059   4.563   4.632   8.871  1.2763  1.3031  1.1003
   28CHL1   C24 2060   4.712   4.608   8.718  0.1436  0.1869  0.0204
   28CHL1  H24A 2061   4.742   4.714   8.733 -0.5718  0.2155  1.4634
   28CHL1  H24B 2062   4.802   4.546   8.699 -1.5264 -1.6899 -2.3122
   28CHL1   C25 2063   4.621   4.601   8.592 -0.5607  0.1581 -0.3372
   28CHL1   H25 2064   4.591   4.494   8.585 -0.3610 -0.0286  1.2476
   28CHL1   C26 2065   4.504   4.697   8.603 -0.2496  0.1648 -0.4142
   28CHL1  H26A 2066   4.462   4.708   8.500  0.0948  1.0273 -0.4686
   28CHL1  H26B 2067   4.420   4.661   8.666 -0.0753 -0.1949 -0.3873
   28CHL1  H26C 2068   4.538   4.791   8.650 -1.1646  0.8119 -1.0002
   28CHL1   C27 2069   4.695   4.635   8.467 -0.4075  0.2175  0.0168
   28CHL1  H27A 2070   4.634   4.608   8.378  2.0126 -2.0142 -1.1180
   28CHL1  H27B 2071   4.736   4.738   8.457 -2.5288  1.0231 -1.1356
   28CHL1  H27C 2072   4.787   4.574   8.457 -0.6237 -0.2026  0.5816
   29CHL1    C3 2073   3.232   2.893   6.604 -0.3030  1.0045  0.2974
   29CHL1    H3 2074   3.242   2.790   6.644 -0.2086  0.4261 -1.1747
   29CHL1    O3 2075   3.193   2.877   6.466  0.5856 -0.2579 -0.4843
   29CHL1   H3' 2076   3.114   2.823   6.466  1.1447 -1.5138  3.7784
   29CHL1    C4 2077   3.135   2.974   6.677  0.1126  0.1247  0.2135
   29CHL1   H4A 2078   3.126   3.070   6.622 -0.1005  0.1624  0.3142
   29CHL1   H4B 2079   3.042   2.915   6.663  0.0275  0.8167 -2.9588
   29CHL1    C5 2080   3.184   3.001   6.820  0.4942 -0.8071 -0.1788
   29CHL1    C6 2081   3.097   2.961   6.921 -0.1009  0.1751  0.0841
   29CHL1    H6 2082   3.002   2.917   6.888  0.5982 -1.3485 -0.0035
   29CHL1    C7 2083   3.120   2.977   7.070  0.1928  0.1976 -0.2803
   29CHL1   H7A 2084   3.026   3.011   7.119 -0.5607 -0.3125 -1.3346
   29CHL1   H7B 2085   3.142   2.881   7.121 -0.2487  0.1964 -0.0874
   29CHL1    C8 2086   3.256   3.064   7.084  0.3612  0.2690 -0.0011
   29CHL1    H8 2087   3.233   3.172   7.074 -0.3657  0.2096  0.8974
   29CHL1   C14 2088   3.301   3.049   7.228 -1.1417 -0.1289  0.0029
   29CHL1   H14 2089   3.334   2.944   7.246 -2.3054 -0.5624 -0.3057
   29CHL1   C15 2090   3.200   3.072   7.327 -0.3329 -0.1225  0.2792
   29CHL1  H15A 2091   3.124   3.144   7.291 -0.1918  0.2834  0.7756
   29CHL1  H15B 2092   3.141   2.980   7.345  0.8373 -0.8578  0.4482
   29CHL1   C16 2093   3.283   3.119   7.453  0.1095  0.4370  0.9629
   29CHL1  H16A 2094   3.257   3.221   7.488 -0.3218 -0.3306  3.0127
   29CHL1  H16B 2095   3.267   3.038   7.527 -1.2170  0.5969  0.8726
   29CHL1   C17 2096   3.428   3.100   7.411 -0.2219 -0.2743  0.0637
   29CHL1   H17 2097   3.448   2.992   7.429 -1.7277 -0.4036  1.0990
   29CHL1   C13 2098   3.424   3.129   7.258 -0.1832  0.3782 -0.1664
   29CHL1   C18 2099   3.397   3.282   7.230  0.0594 -0.2242 -0.7374
   29CHL1  H18A 2100   3.386   3.312   7.124 -0.3515  3.4975  0.2192
   29CHL1  H18B 2101   3.306   3.323   7.279 -0.2241  1.5357 -2.6179
   29CHL1  H18C 2102   3.477   3.349   7.270 -0.2083 -0.2097 -0.2116
   29CHL1   C12 2103   3.546   3.087   7.169 -0.0631 -0.8604  0.4267
   29CHL1  H12A 2104   3.624   3.160   7.201 -1.2422 -0.1472  1.7759
   29CHL1  H12B 2105   3.576   2.981   7.184  1.0023 -0.4548  1.3658
   29CHL1   C11 2106   3.497   3.104   7.022 -0.0307 -0.2174 -0.5928
   29CHL1  H11A 2107   3.497   3.213   6.999 -0.1783 -0.2483 -0.7461
   29CHL1  H11B 2108   3.577   3.059   6.960  1.5307  1.0906  0.3849
   29CHL1    C9 2109   3.369   3.031   6.982 -0.2791  0.5537 -0.0036
   29CHL1    H9 2110   3.396   2.925   6.997  1.0299  1.0053  0.9818
   29CHL1   C10 2111   3.325   3.054   6.840  0.2646  0.0852 -0.3311
   29CHL1   C19 2112   3.318   3.199   6.794  0.3446  0.9050  0.5249
   29CHL1  H19A 2113   3.238   3.247   6.855 -0.9134 -0.2097 -0.2081
   29CHL1  H19B 2114   3.402   3.268   6.818  0.9954 -0.2303  1.6067
   29CHL1  H19C 2115   3.281   3.208   6.690 -1.2997 -0.2564  0.9699
   29CHL1    C1 2116   3.425   2.981   6.741  0.1444 -0.4049  0.2429
   29CHL1   H1A 2117   3.525   3.029   6.742  0.2053 -0.5410  1.1246
   29CHL1   H1B 2118   3.425   2.882   6.791  1.8796  0.4893  2.1451
   29CHL1    C2 2119   3.369   2.954   6.598 -1.1702 -1.0048 -0.6682
   29CHL1   H2A 2120   3.442   2.877   6.565 -0.6012 -1.3948  1.3218
   29CHL1   H2B 2121   3.394   3.045   6.539  1.0442 -0.3605  1.1079
   29CHL1   C20 2122   3.547   3.164   7.495  0.3934  0.0506  0.4621
   29CHL1   H20 2123   3.568   3.259   7.442 -2.3459 -0.2730 -1.4423
   29CHL1   C21 2124   3.664   3.063   7.492 -0.0913  0.8054  0.3800
   29CHL1  H21A 2125   3.639   2.971   7.550  1.2608  0.0843 -0.1309
   29CHL1  H21B 2126   3.754   3.112   7.533  0.5282 -1.5442  2.0992
   29CHL1  H21C 2127   3.689   3.034   7.388  0.2205 -1.3055  1.0016
   29CHL1   C22 2128   3.504   3.205   7.640  0.1837 -0.0765 -0.9511
   29CHL1  H22A 2129   3.423   3.281   7.638  0.9728  0.8495  0.4951
   29CHL1  H22B 2130   3.462   3.111   7.681  2.3836 -1.0513 -0.8034
   29CHL1   C23 2131   3.615   3.254   7.733 -0.8174  0.3100  0.5033
   29CHL1  H23A 2132   3.676   3.164   7.756  0.2981  0.9495  0.1194
   29CHL1  H23B 2133   3.688   3.330   7.698 -0.8268  1.4449  2.7612
   29CHL1   C24 2134   3.554   3.314   7.860  0.7575 -0.5547 -0.1295
   29CHL1  H24A 2135   3.476   3.389   7.835  1.5776 -0.1118 -1.4595
   29CHL1  H24B 2136   3.495   3.231   7.905 -1.7740  0.3266 -1.5923
   29CHL1   C25 2137   3.654   3.371   7.955 -0.1504 -0.4943  0.2851
   29CHL1   H25 2138   3.690   3.470   7.919 -2.0773  0.7977  1.7127
   29CHL1   C26 2139   3.599   3.390   8.096 -0.3814  0.2866 -0.6830
   29CHL1  H26A 2140   3.514   3.462   8.096 -0.2990  0.4878  2.0821
   29CHL1  H26B 2141   3.561   3.293   8.135  0.8494 -0.3438 -1.0247
   29CHL1  H26C 2142   3.682   3.428   8.159  0.8501  0.8251 -2.5546
   29CHL1   C27 2143   3.768   3.277   7.978  0.7961 -0.2241  0.7692
   29CHL1  H27A 2144   3.741   3.173   8.005 -1.3688  0.4542  1.4919
   29CHL1  H27B 2145   3.829   3.262   7.887  0.1284  0.5423  0.1718
   29CHL1  H27C 2146   3.837   3.307   8.059 -1.7014  0.8281  2.6438
   30CHL1    C3 2147   0.849   0.191   7.267 -0.3848  0.3090  0.9020
   30CHL1    H3 2148   0.755   0.209   7.324 -1.2785 -1.6104  0.1207
   30CHL1    O3 2149   0.811   0.124   7.152  0.2950 -0.2397  0.1636
   30CHL1   H3' 2150   0.745   0.073   7.201  0.9398 -0.1090  1.1958
   30CHL1    C4 2151   0.919   0.328   7.226 -0.8528  0.0679  0.7091
   30CHL1   H4A 2152   1.004   0.311   7.157  0.7218  0.0723  2.5580
   30CHL1   H4B 2153   0.842   0.386   7.170  0.3435  1.0703  0.0446
   30CHL1    C5 2154   0.967   0.403   7.348  0.4204 -0.0988 -0.3603
   30CHL1    C6 2155   0.934   0.528   7.373  0.2019 -0.4514 -0.3925
   30CHL1    H6 2156   0.863   0.576   7.304 -3.6499  0.7049  3.9436
   30CHL1    C7 2157   0.968   0.604   7.492 -0.6203  0.1811 -0.6634
   30CHL1   H7A 2158   1.000   0.703   7.453 -2.6941  0.5415 -1.6093
   30CHL1   H7B 2159   0.885   0.617   7.565 -0.8029  1.1300 -1.0242
   30CHL1    C8 2160   1.094   0.546   7.563 -0.5422  0.1551 -0.4512
   30CHL1    H8 2161   1.181   0.554   7.493  0.3840  2.0337  0.8368
   30CHL1   C14 2162   1.123   0.611   7.693 -0.0258  0.1763  0.6698
   30CHL1   H14 2163   1.037   0.593   7.761  0.2010  0.7235  1.1061
   30CHL1   C15 2164   1.128   0.764   7.699 -0.1285 -0.3764 -0.3974
   30CHL1  H15A 2165   1.186   0.791   7.609 -0.4588 -1.1923 -0.8644
   30CHL1  H15B 2166   1.024   0.804   7.693 -0.5224 -1.0095  1.4595
   30CHL1   C16 2167   1.187   0.786   7.834 -0.0179 -1.0798 -0.1522
   30CHL1  H16A 2168   1.272   0.857   7.823 -1.2087  0.5240  0.5807
   30CHL1  H16B 2169   1.133   0.846   7.911  2.4980  1.5549 -0.2548
   30CHL1   C17 2170   1.233   0.651   7.899 -0.4712  0.2660 -0.8965
   30CHL1   H17 2171   1.153   0.606   7.961  2.0758 -3.0460  0.2958
   30CHL1   C13 2172   1.241   0.559   7.775  0.0550 -0.6862  0.6410
   30CHL1   C18 2173   1.375   0.589   7.706  0.0403  0.5714 -1.5292
   30CHL1  H18A 2174   1.452   0.521   7.748 -1.0981  0.5736  0.7349
   30CHL1  H18B 2175   1.364   0.572   7.597 -1.0791  2.2334 -1.7211
   30CHL1  H18C 2176   1.402   0.697   7.699 -1.8373  1.3302  1.1668
   30CHL1   C12 2177   1.222   0.410   7.805 -0.2886  0.5494 -0.0269
   30CHL1  H12A 2178   1.312   0.379   7.862  0.9989  1.7370 -1.3301
   30CHL1  H12B 2179   1.129   0.392   7.862 -1.1838 -0.9839 -1.8614
   30CHL1   C11 2180   1.194   0.330   7.679 -0.1405 -0.4717  0.9916
   30CHL1  H11A 2181   1.291   0.346   7.628 -0.0575  4.5025  2.2618
   30CHL1  H11B 2182   1.173   0.221   7.689 -2.2889 -0.7296 -3.5798
   30CHL1    C9 2183   1.083   0.392   7.586 -0.6017 -0.1979  0.9822
   30CHL1    H9 2184   0.992   0.385   7.650 -1.4143 -0.9651 -0.2266
   30CHL1   C10 2185   1.062   0.330   7.448 -0.4613 -0.3327 -0.0895
   30CHL1   C19 2186   1.200   0.313   7.375  0.0830 -0.0629  0.4927
   30CHL1  H19A 2187   1.188   0.289   7.267 -1.1970 -1.3257  0.8881
   30CHL1  H19B 2188   1.248   0.413   7.374 -1.3422  0.6424 -0.7429
   30CHL1  H19C 2189   1.267   0.241   7.427 -0.8165 -0.5560  0.9942
   30CHL1    C1 2190   1.000   0.186   7.471  1.0691 -0.2550  0.3610
   30CHL1   H1A 2191   1.077   0.118   7.513  1.7636  0.5294  0.3848
   30CHL1   H1B 2192   0.917   0.192   7.545 -0.7333 -2.4192 -1.3754
   30CHL1    C2 2193   0.959   0.111   7.342  0.6936 -0.5344 -0.0077
   30CHL1   H2A 2194   0.923   0.008   7.363 -1.6938  0.1502 -0.4318
   30CHL1   H2B 2195   1.045   0.108   7.271  0.9150  2.5857 -0.0365
   30CHL1   C20 2196   1.347   0.659   8.005  0.1409  0.6497  2.3323
   30CHL1   H20 2197   1.431   0.712   7.957 -0.8398 -0.4978 -0.9156
   30CHL1   C21 2198   1.381   0.524   8.065 -0.6038  0.0813  0.5337
   30CHL1  H21A 2199   1.436   0.537   8.161  0.7891  4.5291 -0.6020
   30CHL1  H21B 2200   1.459   0.474   8.005  0.7280  2.0178  0.5582
   30CHL1  H21C 2201   1.291   0.460   8.078 -1.7131  1.0116 -1.8569
   30CHL1   C22 2202   1.302   0.745   8.126  0.3392  0.6025  0.2864
   30CHL1  H22A 2203   1.251   0.838   8.094  3.2598  2.0811 -0.3834
   30CHL1  H22B 2204   1.235   0.675   8.180  0.0691  0.2379 -0.4906
   30CHL1   C23 2205   1.416   0.797   8.214 -0.1716 -0.3499  0.0001
   30CHL1  H23A 2206   1.468   0.708   8.256 -1.0271 -2.3591 -2.8515
   30CHL1  H23B 2207   1.488   0.850   8.149 -0.6197  1.5313  0.9600
   30CHL1   C24 2208   1.376   0.898   8.324  0.6684  0.4149  0.1693
   30CHL1  H24A 2209   1.299   0.954   8.267  0.6113 -1.9623 -2.2830
   30CHL1  H24B 2210   1.337   0.847   8.414  0.1326  0.7983  0.1593
   30CHL1   C25 2211   1.490   0.988   8.373  0.1354 -0.4524  0.5619
   30CHL1   H25 2212   1.527   1.031   8.277 -2.0529 -1.2926 -0.7451
   30CHL1   C26 2213   1.446   1.107   8.472  0.1372  0.6112  0.2915
   30CHL1  H26A 2214   1.402   1.066   8.566  2.4175 -1.7111  0.4780
   30CHL1  H26B 2215   1.539   1.162   8.498 -0.6716  1.8953  0.5020
   30CHL1  H26C 2216   1.380   1.183   8.425  0.2959  0.2459 -0.5443
   30CHL1   C27 2217   1.611   0.916   8.428 -0.0503  0.2478  0.2517
   30CHL1  H27A 2218   1.629   0.816   8.383 -1.1539 -0.7066  1.8186
   30CHL1  H27B 2219   1.705   0.975   8.423  1.0270 -1.5195 -1.9725
   30CHL1  H27C 2220   1.599   0.903   8.538  2.9318 -2.1622  0.3953
   31CHL1    C3 2221   2.273   4.692   6.728  0.0760  0.3855  0.4433
   31CHL1    H3 2222   2.217   4.787   6.743 -0.7746  0.2892 -1.7032
   31CHL1    O3 2223   2.296   4.674   6.585  0.1177  0.5079  0.3157
   31CHL1   H3' 2224   2.345   4.753   6.559 -0.6658  0.2327 -2.3569
   31CHL1    C4 2225   2.405   4.690   6.808  0.8326  0.0171  0.2959
   31CHL1   H4A 2226   2.462   4.601   6.773  0.8675  0.6183 -1.2479
   31CHL1   H4B 2227   2.454   4.781   6.768  0.6996 -1.3526 -3.3731
   31CHL1    C5 2228   2.387   4.692   6.964 -0.2662 -0.3822  0.3226
   31CHL1    C6 2229   2.453   4.779   7.040  0.0064 -0.6753 -0.1999
   31CHL1    H6 2230   2.514   4.860   6.997  1.8162 -0.9309  1.7342
   31CHL1    C7 2231   2.435   4.786   7.186  0.0810  0.1875 -0.1095
   31CHL1   H7A 2232   2.533   4.806   7.234  0.1190 -0.7476  0.2261
   31CHL1   H7B 2233   2.372   4.873   7.214 -0.9215 -0.9489  1.2880
   31CHL1    C8 2234   2.365   4.658   7.244  0.1633  0.3223 -0.2553
   31CHL1    H8 2235   2.427   4.566   7.242 -0.0550  0.0718  2.0290
   31CHL1   C14 2236   2.310   4.688   7.387  0.9151 -0.1514 -0.1298
   31CHL1   H14 2237   2.231   4.765   7.378  1.1360 -0.0555 -1.4600
   31CHL1   C15 2238   2.414   4.737   7.488  0.3939  0.0555  0.3705
   31CHL1  H15A 2239   2.508   4.678   7.482 -0.3199 -1.0748 -0.0219
   31CHL1  H15B 2240   2.444   4.841   7.462 -0.9219 -0.1801 -2.4255
   31CHL1   C16 2241   2.352   4.709   7.625  0.9361  0.6324  0.2519
   31CHL1  H16A 2242   2.423   4.654   7.690 -0.3980  0.8287  1.9535
   31CHL1  H16B 2243   2.317   4.802   7.674 -0.8216 -0.4801  1.2079
   31CHL1   C17 2244   2.220   4.631   7.598  0.3187 -0.3741 -0.3825
   31CHL1   H17 2245   2.139   4.706   7.587  2.1948  1.4771 -2.5520
   31CHL1   C13 2246   2.236   4.563   7.455 -0.1368 -0.4056  0.4276
   31CHL1   C18 2247   2.337   4.445   7.467 -0.2025  0.3916 -0.0637
   31CHL1  H18A 2248   2.381   4.422   7.367  1.0131 -0.1458  0.5718
   31CHL1  H18B 2249   2.411   4.454   7.549 -2.9927  0.8990  2.5827
   31CHL1  H18C 2250   2.273   4.356   7.484 -2.4128  1.3963 -2.4747
   31CHL1   C12 2251   2.116   4.532   7.369 -0.0700  0.6153 -0.2346
   31CHL1  H12A 2252   2.051   4.448   7.400  0.5674  1.0497  2.5743
   31CHL1  H12B 2253   2.051   4.621   7.358  0.3139  1.2221  1.8905
   31CHL1   C11 2254   2.163   4.510   7.222 -0.6586 -0.3282  0.3555
   31CHL1  H11A 2255   2.224   4.417   7.225 -2.7394 -1.7171  2.5335
   31CHL1  H11B 2256   2.079   4.498   7.151 -0.7344 -1.7443  0.6692
   31CHL1    C9 2257   2.247   4.622   7.160 -0.2677 -0.6863  0.5992
   31CHL1    H9 2258   2.184   4.713   7.174  1.5439  0.2358  3.8658
   31CHL1   C10 2259   2.287   4.591   7.014 -0.4416  0.2020 -0.5826
   31CHL1   C19 2260   2.359   4.451   7.005  0.7315  0.3931 -0.2003
   31CHL1  H19A 2261   2.289   4.366   7.015  2.0842 -0.7844 -0.4078
   31CHL1  H19B 2262   2.410   4.446   6.906 -0.7739  0.9730 -1.0374
   31CHL1  H19C 2263   2.435   4.434   7.084  0.5327 -0.9716 -0.2810
   31CHL1    C1 2264   2.160   4.583   6.924 -0.0813  0.0857  0.3323
   31CHL1   H1A 2265   2.099   4.492   6.938  1.1813 -0.9631 -0.7074
   31CHL1   H1B 2266   2.095   4.672   6.937 -1.8790 -1.2787  1.0797
   31CHL1    C2 2267   2.189   4.572   6.775  0.1371 -0.1031  0.6834
   31CHL1   H2A 2268   2.090   4.584   6.726  0.8402  3.1146 -0.1769
   31CHL1   H2B 2269   2.246   4.480   6.748  1.5374  1.5714 -2.6076
   31CHL1   C20 2270   2.194   4.532   7.717 -0.2768 -0.1897  0.5337
   31CHL1   H20 2271   2.285   4.470   7.727  0.1055 -0.0871 -1.6940
   31CHL1   C21 2272   2.078   4.448   7.684  0.4415  0.3511  0.0605
   31CHL1  H21A 2273   1.988   4.510   7.664 -0.0339 -1.1745 -3.0768
   31CHL1  H21B 2274   2.054   4.377   7.766 -1.1176 -1.3125 -1.7624
   31CHL1  H21C 2275   2.094   4.393   7.589 -2.5239 -1.4314  0.5000
   31CHL1   C22 2276   2.178   4.590   7.856  0.4925  0.4930 -0.1059
   31CHL1  H22A 2277   2.148   4.696   7.840 -0.9141  0.3827  1.5294
   31CHL1  H22B 2278   2.100   4.534   7.911 -0.5603  0.4561 -1.5554
   31CHL1   C23 2279   2.293   4.579   7.950  0.7630  0.0771  0.1258
   31CHL1  H23A 2280   2.334   4.479   7.975  2.6875  1.2730  2.1023
   31CHL1  H23B 2281   2.380   4.636   7.909 -0.7309  0.6824 -2.4084
   31CHL1   C24 2282   2.252   4.622   8.093 -0.1419  0.2332  0.5860
   31CHL1  H24A 2283   2.217   4.728   8.088  1.2147  0.6570 -0.3852
   31CHL1  H24B 2284   2.181   4.546   8.131  0.0866 -0.0364  0.4753
   31CHL1   C25 2285   2.382   4.616   8.179 -0.5240  0.5475 -0.1575
   31CHL1   H25 2286   2.469   4.630   8.111  0.1232 -1.1425  0.2941
   31CHL1   C26 2287   2.386   4.731   8.280 -0.2010 -1.1845  0.0354
   31CHL1  H26A 2288   2.380   4.828   8.227  0.7883 -1.0586  0.1478
   31CHL1  H26B 2289   2.301   4.727   8.353 -0.4975 -2.1882 -0.3528
   31CHL1  H26C 2290   2.483   4.717   8.332  0.5988  0.6430 -0.8980
   31CHL1   C27 2291   2.401   4.478   8.243  0.0532  0.0411 -0.8130
   31CHL1  H27A 2292   2.471   4.488   8.329 -1.1214 -1.1392  0.3178
   31CHL1  H27B 2293   2.445   4.410   8.168  0.9933 -0.2374 -0.0339
   31CHL1  H27C 2294   2.307   4.443   8.293  0.0013  0.8229 -0.3330
   32CHL1    C3 2295   2.303   0.818   6.835 -0.0320  0.0797  0.4524
   32CHL1    H3 2296   2.304   0.926   6.860 -0.9959  0.1155  0.3606
   32CHL1    O3 2297   2.295   0.782   6.702  0.0566 -0.0593  0.3282
   32CHL1   H3' 2298   2.315   0.688   6.693  0.8858  0.1669 -0.3397
   32CHL1    C4 2299   2.437   0.762   6.888  0.3002 -0.2225  0.4121
   32CHL1   H4A 2300   2.449   0.654   6.861 -0.1826 -0.0370 -0.5828
   32CHL1   H4B 2301   2.514   0.814   6.827  1.1111 -1.7869  0.0339
   32CHL1    C5 2302   2.458   0.784   7.034  0.0752 -0.7527 -0.3539
   32CHL1    C6 2303   2.561   0.857   7.084 -0.3663 -0.1541  0.2711
   32CHL1    H6 2304   2.639   0.892   7.016  0.3733 -0.2948  1.0243
   32CHL1    C7 2305   2.576   0.902   7.227 -0.2883  0.1968  0.3539
   32CHL1   H7A 2306   2.686   0.901   7.241 -0.4175 -0.9647  1.4459
   32CHL1   H7B 2307   2.538   1.006   7.236 -2.2820 -0.5433  1.1255
   32CHL1    C8 2308   2.495   0.800   7.318  0.5026  0.1971  1.2028
   32CHL1    H8 2309   2.551   0.705   7.316  0.6152  0.2625  1.2683
   32CHL1   C14 2310   2.502   0.842   7.459  0.7740  0.7031  0.2921
   32CHL1   H14 2311   2.463   0.945   7.455 -1.2596 -0.0498 -0.4196
   32CHL1   C15 2312   2.639   0.866   7.514  0.4123 -0.4712 -0.6135
   32CHL1  H15A 2313   2.716   0.787   7.499  0.8745 -0.0143 -0.6894
   32CHL1  H15B 2314   2.691   0.957   7.476  1.6330 -1.0196 -0.3053
   32CHL1   C16 2315   2.610   0.880   7.669 -0.2596 -0.0834  0.7544
   32CHL1  H16A 2316   2.684   0.812   7.716 -0.4876  0.9290  2.7128
   32CHL1  H16B 2317   2.633   0.983   7.706 -1.3463  0.5330 -0.2139
   32CHL1   C17 2318   2.459   0.844   7.689  0.2812 -0.2577 -0.2989
   32CHL1   H17 2319   2.410   0.944   7.686  0.4487 -0.1977 -1.0427
   32CHL1   C13 2320   2.419   0.764   7.563  0.2445 -0.1614  0.5067
   32CHL1   C18 2321   2.477   0.617   7.572 -0.7843  0.0317  0.3382
   32CHL1  H18A 2322   2.570   0.622   7.631 -0.5268 -0.4690 -0.0213
   32CHL1  H18B 2323   2.403   0.557   7.629 -1.1076 -0.5156 -0.6344
   32CHL1  H18C 2324   2.492   0.571   7.472  0.8292  1.5891 -0.1891
   32CHL1   C12 2325   2.271   0.768   7.518  0.0038  0.3902  0.3191
   32CHL1  H12A 2326   2.201   0.704   7.576 -1.3075  0.6025 -0.9550
   32CHL1  H12B 2327   2.232   0.872   7.521 -1.2205  0.0622 -1.6365
   32CHL1   C11 2328   2.259   0.714   7.370  0.4288  0.3751 -0.3052
   32CHL1  H11A 2329   2.268   0.603   7.367  0.1470  0.3514 -0.3595
   32CHL1  H11B 2330   2.155   0.738   7.340 -0.5119 -0.5830  1.9807
   32CHL1    C9 2331   2.348   0.786   7.265 -0.0360  1.1556 -0.5523
   32CHL1    H9 2332   2.321   0.894   7.267  2.8424  1.9707  1.1054
   32CHL1   C10 2333   2.344   0.731   7.121  0.6746  0.8213 -0.2950
   32CHL1   C19 2334   2.355   0.575   7.126  0.3852 -0.6166 -0.4970
   32CHL1  H19A 2335   2.372   0.530   7.026  1.8447 -0.4661 -0.3397
   32CHL1  H19B 2336   2.444   0.548   7.186  0.7580  2.4683  0.5074
   32CHL1  H19C 2337   2.261   0.519   7.146  0.4928 -0.7711 -0.4315
   32CHL1    C1 2338   2.206   0.766   7.060  0.5755  0.1433  0.5796
   32CHL1   H1A 2339   2.131   0.698   7.105 -0.7973  1.2575  0.0487
   32CHL1   H1B 2340   2.190   0.875   7.077  0.8690  0.0618  1.4077
   32CHL1    C2 2341   2.197   0.741   6.912  0.4542 -0.1806 -0.2217
   32CHL1   H2A 2342   2.093   0.774   6.888  1.4687  3.7989  0.2542
   32CHL1   H2B 2343   2.217   0.633   6.891  0.4084 -0.5579  1.5050
   32CHL1   C20 2344   2.418   0.796   7.836  0.1321 -0.1024  0.5884
   32CHL1   H20 2345   2.441   0.687   7.829  1.2329  0.0311  1.9037
   32CHL1   C21 2346   2.265   0.816   7.863 -0.2008  0.5533 -0.1024
   32CHL1  H21A 2347   2.205   0.783   7.775  1.0608 -0.4964 -0.6044
   32CHL1  H21B 2348   2.248   0.924   7.881  2.4666  0.7997  1.4890
   32CHL1  H21C 2349   2.238   0.759   7.955  1.2257  0.3070  0.1883
   32CHL1   C22 2350   2.490   0.869   7.949  0.3175 -1.1921  0.1501
   32CHL1  H22A 2351   2.590   0.902   7.913  0.1731 -1.2028 -0.2545
   32CHL1  H22B 2352   2.426   0.954   7.979  2.7778 -0.1434  2.9944
   32CHL1   C23 2353   2.494   0.785   8.075  0.2506  0.4792  0.2195
   32CHL1  H23A 2354   2.393   0.766   8.118  0.3643  0.5835  0.5318
   32CHL1  H23B 2355   2.544   0.691   8.045  1.2927  1.0032  0.2866
   32CHL1   C24 2356   2.586   0.853   8.176  0.5235 -0.0758 -0.3935
   32CHL1  H24A 2357   2.688   0.858   8.134  1.0930  1.5036  1.0570
   32CHL1  H24B 2358   2.558   0.959   8.192  1.3651 -0.3606  4.6291
   32CHL1   C25 2359   2.596   0.805   8.321  0.0505 -0.0360 -0.8678
   32CHL1   H25 2360   2.498   0.808   8.373 -0.3527  1.7391 -1.6615
   32CHL1   C26 2361   2.647   0.661   8.330  0.0794  0.5081 -0.0917
   32CHL1  H26A 2362   2.581   0.589   8.276  0.9563 -1.2996  1.1688
   32CHL1  H26B 2363   2.748   0.654   8.285  1.5086  0.5409  2.9211
   32CHL1  H26C 2364   2.657   0.632   8.437 -0.9649 -0.1231 -0.1523
   32CHL1   C27 2365   2.700   0.891   8.399 -0.5742  0.1531  0.6267
   32CHL1  H27A 2366   2.675   0.999   8.389 -0.6321  0.0485 -0.5929
   32CHL1  H27B 2367   2.697   0.849   8.501 -5.5566  1.9001  1.4797
   32CHL1  H27C 2368   2.797   0.876   8.348 -0.6960 -2.1245  0.9863
   33CHL1    C3 2369   0.348   2.250   6.941 -0.5578 -0.3216 -0.3699
   33CHL1    H3 2370   0.257   2.187   6.951 -1.1692  0.0726 -2.8879
   33CHL1    O3 2371   0.398   2.229   6.813  0.0743  0.2193  0.4752
   33CHL1   H3' 2372   0.318   2.232   6.760  0.9858  1.5014 -0.9305
   33CHL1    C4 2373   0.307   2.395   6.947 -0.1268  0.0998 -0.0373
   33CHL1   H4A 2374   0.390   2.456   6.906 -0.2111 -0.7738 -1.5481
   33CHL1   H4B 2375   0.224   2.409   6.874 -0.7230  2.8018  1.0291
   33CHL1    C5 2376   0.272   2.443   7.083 -0.4177  0.7265  0.7393
   33CHL1    C6 2377   0.156   2.506   7.102  0.0748  0.5509  0.1356
   33CHL1    H6 2378   0.082   2.513   7.020  1.2734  1.2634 -0.9243
   33CHL1    C7 2379   0.103   2.537   7.238 -0.1536  0.9590  0.8893
   33CHL1   H7A 2380   0.054   2.636   7.239 -0.9580  0.5718  0.7833
   33CHL1   H7B 2381   0.035   2.453   7.262 -0.7316  0.9022 -0.8177
   33CHL1    C8 2382   0.207   2.550   7.345 -0.5393  0.4994  0.0164
   33CHL1    H8 2383   0.273   2.640   7.343  1.0920 -0.6517 -1.0074
   33CHL1   C14 2384   0.140   2.543   7.480 -0.6446 -0.7183 -0.5269
   33CHL1   H14 2385   0.091   2.444   7.489  1.8966 -1.8498  2.6362
   33CHL1   C15 2386   0.037   2.649   7.512  0.3670  0.2213 -1.2833
   33CHL1  H15A 2387   0.072   2.752   7.492  0.5552  0.2643 -0.7600
   33CHL1  H15B 2388  -0.055   2.619   7.457 -1.7890  1.6856  1.2664
   33CHL1   C16 2389   0.020   2.627   7.674 -1.0425 -0.2745  0.1888
   33CHL1  H16A 2390   0.036   2.730   7.714  1.2234 -1.3813  2.4231
   33CHL1  H16B 2391  -0.078   2.578   7.691 -0.7127 -1.0529 -0.0976
   33CHL1   C17 2392   0.138   2.531   7.719 -0.0890 -0.3430 -0.6438
   33CHL1   H17 2393   0.099   2.427   7.720  1.2283 -0.8687  0.2752
   33CHL1   C13 2394   0.241   2.537   7.602 -0.0380  0.4568 -0.1073
   33CHL1   C18 2395   0.321   2.670   7.618 -0.2593  0.1554 -0.5220
   33CHL1  H18A 2396   0.270   2.751   7.674  2.5710  0.6230  1.6084
   33CHL1  H18B 2397   0.411   2.649   7.681 -0.2659  1.1149 -0.1821
   33CHL1  H18C 2398   0.356   2.712   7.522  1.8540 -1.1580 -0.3947
   33CHL1   C12 2399   0.333   2.413   7.585  0.2872 -0.3877 -0.0471
   33CHL1  H12A 2400   0.413   2.407   7.662  0.8349  1.4128 -0.4121
   33CHL1  H12B 2401   0.267   2.323   7.582  0.8800 -0.8209 -2.6572
   33CHL1   C11 2402   0.403   2.422   7.447  0.8805 -0.1080 -0.1909
   33CHL1  H11A 2403   0.468   2.512   7.437  0.0642  0.3533 -1.6153
   33CHL1  H11B 2404   0.459   2.326   7.444  0.0763 -0.6340  0.8738
   33CHL1    C9 2405   0.293   2.432   7.333 -0.3834  0.0662  0.7426
   33CHL1    H9 2406   0.234   2.339   7.350 -0.9003  0.6005  1.9385
   33CHL1   C10 2407   0.366   2.413   7.190 -0.4177  0.5215 -0.0467
   33CHL1   C19 2408   0.499   2.500   7.187 -0.2421 -0.0502 -0.1267
   33CHL1  H19A 2409   0.490   2.607   7.217  1.3864 -0.2572  1.2701
   33CHL1  H19B 2410   0.582   2.453   7.244 -0.1869 -0.5986 -0.6597
   33CHL1  H19C 2411   0.539   2.501   7.084 -0.9302  1.4778 -0.4191
   33CHL1    C1 2412   0.415   2.263   7.186 -0.6198  0.5519  0.5521
   33CHL1   H1A 2413   0.496   2.240   7.259  1.1907 -1.3388 -1.8729
   33CHL1   H1B 2414   0.330   2.194   7.203  0.9426 -1.0702  2.2809
   33CHL1    C2 2415   0.461   2.221   7.043 -0.0614  0.3159 -0.5294
   33CHL1   H2A 2416   0.487   2.113   7.043  0.5752  0.4246 -2.6380
   33CHL1   H2B 2417   0.550   2.283   7.017 -0.7462  1.5961  0.0972
   33CHL1   C20 2418   0.191   2.560   7.861  0.2499 -1.0373 -0.8016
   33CHL1   H20 2419   0.235   2.662   7.865 -0.8533 -0.5740  0.2292
   33CHL1   C21 2420   0.303   2.471   7.907  0.1708  0.9544 -0.2775
   33CHL1  H21A 2421   0.352   2.488   8.005 -0.2492 -1.4614  0.4196
   33CHL1  H21B 2422   0.390   2.470   7.839 -0.2847 -0.9285 -0.9059
   33CHL1  H21C 2423   0.258   2.369   7.914  2.1588  0.0286 -0.3363
   33CHL1   C22 2424   0.074   2.579   7.963 -0.4619  0.2842 -0.9387
   33CHL1  H22A 2425   0.003   2.664   7.954 -0.4393  0.5330  0.8738
   33CHL1  H22B 2426   0.015   2.485   7.963 -0.5276  0.1575  3.1163
   33CHL1   C23 2427   0.115   2.591   8.112  0.2440  0.2925  0.6537
   33CHL1  H23A 2428   0.180   2.503   8.135  0.0951  0.2424  0.8918
   33CHL1  H23B 2429   0.173   2.685   8.123 -0.1525  0.6185  0.0321
   33CHL1   C24 2430  -0.004   2.581   8.206 -0.3021 -0.1318 -0.4958
   33CHL1  H24A 2431  -0.061   2.675   8.191  0.9483  1.2234  2.5325
   33CHL1  H24B 2432  -0.064   2.498   8.162  0.3189  0.0578 -1.7573
   33CHL1   C25 2433   0.014   2.560   8.357 -0.1509  0.7120 -0.6654
   33CHL1   H25 2434   0.061   2.460   8.369 -1.9451 -0.0327  0.6177
   33CHL1   C26 2435   0.117   2.669   8.408 -0.2870  0.1166 -0.6188
   33CHL1  H26A 2436   0.085   2.771   8.377  0.5342  0.9171  1.0982
   33CHL1  H26B 2437   0.129   2.667   8.518 -4.3631 -3.0668  0.0077
   33CHL1  H26C 2438   0.211   2.642   8.356  0.9388 -1.3275  2.1418
   33CHL1   C27 2439  -0.122   2.568   8.436 -0.1886  0.0209 -0.2620
   33CHL1  H27A 2440  -0.162   2.668   8.406 -0.9254  0.0743  0.8402
   33CHL1  H27B 2441  -0.190   2.486   8.405  1.2856 -1.2097 -0.3600
   33CHL1  H27C 2442  -0.092   2.566   8.543 -2.3086 -0.0822  0.3751
   34CHL1    C3 2443   5.999   6.213   6.874  0.1896 -0.0042 -0.1797
   34CHL1    H3 2444   5.933   6.126   6.892  1.8141 -0.9287  1.7536
   34CHL1    O3 2445   6.016   6.202   6.736 -0.9595 -0.0646  0.3996
   34CHL1   H3' 2446   5.943   6.254   6.702 -1.6124 -1.2262 -0.0475
   34CHL1    C4 2447   5.947   6.351   6.906  0.0158 -0.0615 -0.3435
   34CHL1   H4A 2448   6.028   6.415   6.865  2.3466 -2.3061  0.4539
   34CHL1   H4B 2449   5.848   6.371   6.860  0.1367  1.0802 -0.1365
   34CHL1    C5 2450   5.936   6.373   7.050 -1.0919  0.1317 -0.5724
   34CHL1    C6 2451   5.825   6.418   7.110 -0.4309 -0.1391 -0.2506
   34CHL1    H6 2452   5.738   6.435   7.045 -1.6142 -0.7862  1.1188
   34CHL1    C7 2453   5.811   6.453   7.252 -0.2620  0.0417 -0.3672
   34CHL1   H7A 2454   5.771   6.557   7.255 -1.5995 -0.4665  1.5297
   34CHL1   H7B 2455   5.738   6.385   7.302  1.5622 -0.8613  1.1899
   34CHL1    C8 2456   5.946   6.451   7.332  0.0216  0.3808  0.4512
   34CHL1    H8 2457   5.998   6.548   7.320  1.5567 -0.4607 -0.1591
   34CHL1   C14 2458   5.907   6.430   7.481 -0.5159  0.6013  0.3219
   34CHL1   H14 2459   5.870   6.326   7.483  2.4770 -0.5461  0.8065
   34CHL1   C15 2460   5.808   6.515   7.545  0.5307  0.1056  0.2415
   34CHL1  H15A 2461   5.825   6.623   7.525 -0.7246  0.0264 -1.4947
   34CHL1  H15B 2462   5.706   6.475   7.523  0.6195 -0.0566  0.1180
   34CHL1   C16 2463   5.825   6.486   7.689  0.8980 -0.6745 -0.5656
   34CHL1  H16A 2464   5.840   6.587   7.733  0.6513 -1.6271  1.8793
   34CHL1  H16B 2465   5.741   6.430   7.736 -0.4971 -0.4415 -2.6463
   34CHL1   C17 2466   5.958   6.413   7.708  0.5787 -0.2100  0.8233
   34CHL1   H17 2467   5.935   6.307   7.731  0.4636  0.2824  3.2092
   34CHL1   C13 2468   6.031   6.436   7.568  0.3813 -0.9573 -0.2005
   34CHL1   C18 2469   6.100   6.578   7.558  0.1273  0.5961  0.4509
   34CHL1  H18A 2470   6.133   6.597   7.453  0.4375 -0.4831  0.3326
   34CHL1  H18B 2471   6.034   6.663   7.583 -0.5153 -0.3133  1.9776
   34CHL1  H18C 2472   6.184   6.585   7.630  0.6608 -1.6430  0.1323
   34CHL1   C12 2473   6.124   6.325   7.528  0.1037  0.4725 -0.3373
   34CHL1  H12A 2474   6.212   6.332   7.596 -0.0042 -0.3975 -0.0930
   34CHL1  H12B 2475   6.070   6.230   7.551 -1.2862  1.5538  1.1345
   34CHL1   C11 2476   6.166   6.321   7.377 -0.1587  0.3031  0.4438
   34CHL1  H11A 2477   6.227   6.413   7.365 -1.0519  0.7292 -1.0157
   34CHL1  H11B 2478   6.225   6.236   7.337 -0.8635 -0.0891  0.2065
   34CHL1    C9 2479   6.036   6.337   7.295 -0.1915 -0.0546 -0.2404
   34CHL1    H9 2480   5.984   6.240   7.310  1.5320 -1.0201 -0.2495
   34CHL1   C10 2481   6.059   6.336   7.137  0.1619  0.4300  0.1481
   34CHL1   C19 2482   6.156   6.452   7.106  0.6078 -0.6287 -0.3166
   34CHL1  H19A 2483   6.195   6.459   7.002  2.1340 -1.3490  0.1821
   34CHL1  H19B 2484   6.109   6.552   7.122  1.2427 -0.4220  0.3170
   34CHL1  H19C 2485   6.248   6.437   7.166 -1.0766 -1.8915  2.0988
   34CHL1    C1 2486   6.136   6.206   7.093 -0.6529 -0.2017  0.0253
   34CHL1   H1A 2487   6.241   6.207   7.131 -0.8026  0.6611  0.4435
   34CHL1   H1B 2488   6.081   6.120   7.135 -1.3255  0.4378  0.4752
   34CHL1    C2 2489   6.139   6.189   6.940  0.3039  0.2219  0.5164
   34CHL1   H2A 2490   6.169   6.084   6.920 -0.2783  0.2159 -0.3787
   34CHL1   H2B 2491   6.205   6.261   6.886 -2.5435  1.5419 -1.4512
   34CHL1   C20 2492   6.040   6.463   7.833 -0.7229 -0.2448 -0.1470
   34CHL1   H20 2493   6.073   6.565   7.805  0.6009 -0.1441  1.5789
   34CHL1   C21 2494   6.159   6.374   7.869 -0.7104  0.6966 -0.4128
   34CHL1  H21A 2495   6.232   6.359   7.787 -0.5849  0.1600 -0.2113
   34CHL1  H21B 2496   6.115   6.272   7.882  1.3161 -0.0348  1.3106
   34CHL1  H21C 2497   6.219   6.405   7.957 -1.6838 -0.6223  0.7670
   34CHL1   C22 2498   5.961   6.497   7.965 -0.6893 -0.0199 -0.3021
   34CHL1  H22A 2499   5.866   6.547   7.937 -0.2841  0.4024 -0.9375
   34CHL1  H22B 2500   5.947   6.395   8.007 -1.7763  0.2125 -0.0603
   34CHL1   C23 2501   6.042   6.583   8.069 -0.6204  0.1233 -0.4157
   34CHL1  H23A 2502   6.122   6.523   8.117  0.7750  1.8463 -0.4452
   34CHL1  H23B 2503   6.097   6.659   8.009  2.4578 -2.3548 -0.9936
   34CHL1   C24 2504   5.948   6.648   8.170 -0.4453 -0.3024 -0.0309
   34CHL1  H24A 2505   6.008   6.699   8.248 -1.1689 -0.5213  0.6752
   34CHL1  H24B 2506   5.883   6.719   8.114  0.1846 -0.2787 -0.7600
   34CHL1   C25 2507   5.871   6.552   8.260  1.2263  0.8659 -0.2550
   34CHL1   H25 2508   5.801   6.495   8.195  0.6951  0.8134  0.3669
   34CHL1   C26 2509   5.965   6.458   8.342  0.0192  1.2671 -0.4532
   34CHL1  H26A 2510   6.068   6.452   8.301  0.1727 -2.0282  0.1582
   34CHL1  H26B 2511   5.974   6.509   8.440  0.0072 -0.1814  0.3240
   34CHL1  H26C 2512   5.919   6.359   8.362 -0.1929  1.5608  0.5784
   34CHL1   C27 2513   5.773   6.619   8.357 -0.0013 -0.4543  0.1694
   34CHL1  H27A 2514   5.818   6.690   8.429  0.4622  0.6521 -1.1753
   34CHL1  H27B 2515   5.705   6.688   8.301 -0.0294 -0.4457  0.2144
   34CHL1  H27C 2516   5.700   6.548   8.403 -0.7514 -0.0093 -0.2993
   35CHL1    C3 2517   0.241   5.956   7.116 -0.1374  0.2701 -0.4413
   35CHL1    H3 2518   0.292   5.862   7.144  1.2097  0.2705 -2.6242
   35CHL1    O3 2519   0.197   5.938   6.985  0.0249  0.3738  0.6196
   35CHL1   H3' 2520   0.120   5.882   6.993  0.8742 -0.5830  2.6853
   35CHL1    C4 2521   0.118   5.991   7.193  0.2842 -0.0008 -0.1813
   35CHL1   H4A 2522   0.052   6.061   7.138 -1.5230  1.2358  3.2768
   35CHL1   H4B 2523   0.064   5.894   7.201  4.1998 -2.2634  2.8378
   35CHL1    C5 2524   0.144   6.042   7.329 -0.1321  0.0104 -0.2175
   35CHL1    C6 2525   0.094   5.984   7.440 -0.4882 -0.2770  0.4350
   35CHL1    H6 2526   0.031   5.896   7.422 -1.4622  0.8631 -2.3232
   35CHL1    C7 2527   0.118   6.026   7.575  0.1972 -0.0148  0.1164
   35CHL1   H7A 2528   0.020   6.026   7.629  0.1566 -1.6418  0.0926
   35CHL1   H7B 2529   0.187   5.952   7.621 -0.2342 -1.8941 -2.0329
   35CHL1    C8 2530   0.187   6.164   7.582  0.1604  0.1247 -0.4896
   35CHL1    H8 2531   0.106   6.236   7.556  1.0069 -0.2021 -4.6942
   35CHL1   C14 2532   0.246   6.180   7.723 -0.2261 -0.2208  0.6887
   35CHL1   H14 2533   0.320   6.098   7.733 -0.6290 -0.7138 -0.2465
   35CHL1   C15 2534   0.149   6.160   7.842 -0.3840 -0.6066 -0.3907
   35CHL1  H15A 2535   0.052   6.202   7.807 -0.1084 -0.7218 -1.3026
   35CHL1  H15B 2536   0.127   6.056   7.876  1.9005 -0.9132  0.3180
   35CHL1   C16 2537   0.198   6.248   7.957 -0.8977  0.4847 -0.0364
   35CHL1  H16A 2538   0.111   6.315   7.975 -0.5024  1.5997 -1.9887
   35CHL1  H16B 2539   0.219   6.191   8.050 -1.4311 -0.2642 -0.3662
   35CHL1   C17 2540   0.336   6.302   7.901 -0.7937 -0.1325  0.3943
   35CHL1   H17 2541   0.411   6.220   7.910 -0.4675 -0.1460 -1.7948
   35CHL1   C13 2542   0.313   6.313   7.746  0.2517  0.4904 -0.6085
   35CHL1   C18 2543   0.223   6.438   7.733  0.5106  0.8740  0.1226
   35CHL1  H18A 2544   0.185   6.459   7.631 -0.4093 -2.0795 -0.2280
   35CHL1  H18B 2545   0.134   6.425   7.797 -0.7508  1.1703 -1.4969
   35CHL1  H18C 2546   0.272   6.534   7.760 -2.1439  1.9119  1.5989
   35CHL1   C12 2547   0.429   6.315   7.655  0.0819  0.0038  0.0986
   35CHL1  H12A 2548   0.493   6.406   7.660  0.0698 -0.0598  2.0042
   35CHL1  H12B 2549   0.497   6.228   7.670  0.9953  0.0784 -2.9075
   35CHL1   C11 2550   0.387   6.296   7.505 -0.2202 -1.3827 -0.6229
   35CHL1  H11A 2551   0.332   6.393   7.506  2.7647  0.4254 -0.4597
   35CHL1  H11B 2552   0.483   6.290   7.450  0.2186 -0.9923  0.0786
   35CHL1    C9 2553   0.295   6.176   7.486 -0.3866 -0.2684  0.7879
   35CHL1    H9 2554   0.357   6.087   7.511 -0.4677 -0.5739 -0.0750
   35CHL1   C10 2555   0.249   6.159   7.336 -0.0873  0.1529  0.7046
   35CHL1   C19 2556   0.180   6.292   7.287 -0.1504 -0.2095  0.4011
   35CHL1  H19A 2557   0.098   6.322   7.356  2.6286 -1.5733  4.6525
   35CHL1  H19B 2558   0.258   6.370   7.298  1.4119 -1.4101 -1.4906
   35CHL1  H19C 2559   0.148   6.284   7.181 -0.1567 -0.4816  0.4213
   35CHL1    C1 2560   0.374   6.121   7.255 -0.1957  0.4953  0.2092
   35CHL1   H1A 2561   0.456   6.195   7.258  1.6504 -1.2293 -2.8339
   35CHL1   H1B 2562   0.416   6.031   7.305 -0.0597 -0.2216 -1.1551
   35CHL1    C2 2563   0.344   6.075   7.113  0.2108  0.6526  0.3891
   35CHL1   H2A 2564   0.432   6.040   7.055 -0.4466  0.0210 -0.2524
   35CHL1   H2B 2565   0.295   6.156   7.055 -0.7474 -0.3270 -0.2151
   35CHL1   C20 2566   0.388   6.421   7.984  0.2291 -0.1375  0.6447
   35CHL1   H20 2567   0.314   6.503   7.978 -0.2083 -0.5361  0.5083
   35CHL1   C21 2568   0.514   6.483   7.926  0.1481  0.1416  0.4978
   35CHL1  H21A 2569   0.496   6.527   7.826  0.9551 -0.2064  0.1945
   35CHL1  H21B 2570   0.583   6.396   7.924 -1.6640 -1.3629  0.6389
   35CHL1  H21C 2571   0.553   6.562   7.994 -0.1909 -0.9263  1.9881
   35CHL1   C22 2572   0.418   6.379   8.137  0.5076 -0.6167  0.2220
   35CHL1  H22A 2573   0.464   6.279   8.146  2.9828  0.4124  0.0953
   35CHL1  H22B 2574   0.500   6.442   8.178  1.4484 -0.0945 -2.2574
   35CHL1   C23 2575   0.306   6.393   8.243  0.0567 -0.8186 -0.5498
   35CHL1  H23A 2576   0.259   6.494   8.238  1.9467  0.0952 -0.4278
   35CHL1  H23B 2577   0.241   6.303   8.231 -2.0372  0.8614 -3.3035
   35CHL1   C24 2578   0.376   6.397   8.377 -0.0549 -0.6023 -0.0481
   35CHL1  H24A 2579   0.451   6.316   8.384 -1.1986 -1.8429 -1.5159
   35CHL1  H24B 2580   0.439   6.489   8.382 -1.6967  0.5302  1.1180
   35CHL1   C25 2581   0.282   6.403   8.497  0.6590 -0.0347  0.4822
   35CHL1   H25 2582   0.206   6.322   8.492 -1.0044  1.5764 -2.0980
   35CHL1   C26 2583   0.352   6.376   8.633 -0.0238  0.1900 -0.2852
   35CHL1  H26A 2584   0.279   6.369   8.717 -2.4991  1.8525 -2.1503
   35CHL1  H26B 2585   0.410   6.282   8.626  2.2547  1.2749  2.1641
   35CHL1  H26C 2586   0.423   6.458   8.658  0.7354 -0.4442 -0.3237
   35CHL1   C27 2587   0.188   6.532   8.505 -0.4906 -0.6853  0.4176
   35CHL1  H27A 2588   0.098   6.518   8.442 -0.9054 -2.4425  1.3132
   35CHL1  H27B 2589   0.249   6.621   8.482 -0.0443 -1.2035 -0.4470
   35CHL1  H27C 2590   0.165   6.528   8.614  1.0416 -0.7038  0.7645
   36CHL1    C3 2591   4.855   0.606   6.912  0.5850 -0.1051 -0.1323
   36CHL1    H3 2592   4.880   0.714   6.919  1.2208 -0.3491  2.6288
   36CHL1    O3 2593   4.838   0.577   6.775  0.4431  0.6364 -0.0971
   36CHL1   H3' 2594   4.817   0.484   6.772  0.1141  0.7264 -1.0191
   36CHL1    C4 2595   4.989   0.548   6.969  0.2577  0.3898 -0.6043
   36CHL1   H4A 2596   4.984   0.439   6.948 -2.0903  0.5523 -1.1150
   36CHL1   H4B 2597   5.076   0.583   6.909 -0.3745 -0.2894 -1.9645
   36CHL1    C5 2598   5.006   0.575   7.122  0.3949 -0.4536 -0.0853
   36CHL1    C6 2599   5.122   0.618   7.174  0.2389 -0.0552 -0.2687
   36CHL1    H6 2600   5.213   0.634   7.114  1.2317 -0.8616  0.9726
   36CHL1    C7 2601   5.139   0.642   7.323 -0.1166  0.1261 -0.6701
   36CHL1   H7A 2602   5.234   0.594   7.354 -0.2055  1.1036  1.2777
   36CHL1   H7B 2603   5.130   0.749   7.352  0.8566 -0.1291  0.6856
   36CHL1    C8 2604   5.029   0.566   7.406 -0.3760 -0.3125 -0.0271
   36CHL1    H8 2605   5.043   0.456   7.398  1.2017 -0.2703  1.5733
   36CHL1   C14 2606   5.021   0.605   7.550  1.3834  0.2904  0.3999
   36CHL1   H14 2607   5.011   0.716   7.553  1.2676  0.3116 -0.5142
   36CHL1   C15 2608   5.156   0.587   7.637  0.1813  0.4857  0.2686
   36CHL1  H15A 2609   5.192   0.483   7.624  0.8974  1.0738 -3.3393
   36CHL1  H15B 2610   5.240   0.658   7.625  2.0330 -1.6340  0.1524
   36CHL1   C16 2611   5.111   0.603   7.783  0.4814 -0.8866 -0.1282
   36CHL1  H16A 2612   5.153   0.515   7.835  1.5849 -1.3421 -1.7115
   36CHL1  H16B 2613   5.150   0.697   7.828  3.8720 -2.2973  0.1713
   36CHL1   C17 2614   4.955   0.580   7.780  0.0132  0.0275 -0.0531
   36CHL1   H17 2615   4.907   0.680   7.783 -4.1151 -1.6874 -1.3606
   36CHL1   C13 2616   4.919   0.531   7.641 -0.1301  0.4222  0.1312
   36CHL1   C18 2617   4.946   0.380   7.648 -0.1025 -0.2504  0.3958
   36CHL1  H18A 2618   4.931   0.344   7.544  0.7991  0.1721  0.1158
   36CHL1  H18B 2619   5.050   0.354   7.677 -0.4694 -0.2572  1.8016
   36CHL1  H18C 2620   4.881   0.320   7.716 -1.0314 -0.7207 -0.8821
   36CHL1   C12 2621   4.777   0.553   7.592 -0.1123 -0.6723  0.4577
   36CHL1  H12A 2622   4.714   0.478   7.644 -0.8381 -0.0803  0.4549
   36CHL1  H12B 2623   4.743   0.653   7.625 -0.2899 -0.3236 -0.7222
   36CHL1   C11 2624   4.768   0.539   7.434  0.4857 -0.5824 -0.5036
   36CHL1  H11A 2625   4.748   0.431   7.418  1.1908 -0.9436  0.8970
   36CHL1  H11B 2626   4.679   0.596   7.401  0.5562 -1.6279 -2.6974
   36CHL1    C9 2627   4.888   0.590   7.350  0.2507  0.5589  0.8275
   36CHL1    H9 2628   4.877   0.700   7.354 -2.2418  0.5366 -1.9453
   36CHL1   C10 2629   4.880   0.546   7.200  0.4767 -0.3008 -0.6178
   36CHL1   C19 2630   4.852   0.395   7.198 -0.2695 -0.2740  0.5876
   36CHL1  H19A 2631   4.921   0.339   7.264  0.3579  0.2638  0.3965
   36CHL1  H19B 2632   4.748   0.367   7.226 -0.6739  2.3766  2.1685
   36CHL1  H19C 2633   4.863   0.349   7.098 -1.8044  0.1309  0.2055
   36CHL1    C1 2634   4.762   0.626   7.141 -0.3295  0.3654 -0.6932
   36CHL1   H1A 2635   4.670   0.611   7.202  1.2053  1.3653  2.0072
   36CHL1   H1B 2636   4.779   0.735   7.126 -0.0433  0.0243 -3.3257
   36CHL1    C2 2637   4.728   0.587   6.994  0.2641  0.3412  0.3702
   36CHL1   H2A 2638   4.650   0.658   6.959  0.2274  0.4267  0.6244
   36CHL1   H2B 2639   4.694   0.482   6.978  0.9901  0.3144 -1.1831
   36CHL1   C20 2640   4.897   0.500   7.912  0.5790  0.0820 -0.0201
   36CHL1   H20 2641   4.938   0.397   7.903  2.0224  0.6673 -0.4927
   36CHL1   C21 2642   4.743   0.479   7.906  0.8774 -0.7258 -0.8601
   36CHL1  H21A 2643   4.711   0.385   7.855 -1.1306 -0.2091 -0.6350
   36CHL1  H21B 2644   4.692   0.565   7.857  0.6281 -0.0145  0.5956
   36CHL1  H21C 2645   4.708   0.469   8.011  1.8591  1.4437 -0.2716
   36CHL1   C22 2646   4.938   0.558   8.049 -0.3475  0.4502 -0.2499
   36CHL1  H22A 2647   5.046   0.581   8.037 -0.2125 -0.4436 -0.8451
   36CHL1  H22B 2648   4.893   0.659   8.057 -0.6852  0.2670  0.1939
   36CHL1   C23 2649   4.902   0.468   8.173 -0.3302 -0.3708 -1.3733
   36CHL1  H23A 2650   4.794   0.465   8.194  0.2664 -0.9789  2.2098
   36CHL1  H23B 2651   4.932   0.362   8.164  1.4427  0.0399 -0.8768
   36CHL1   C24 2652   4.976   0.521   8.293 -0.0682  0.3522 -0.3102
   36CHL1  H24A 2653   5.084   0.526   8.268  0.3004  1.6632  1.3765
   36CHL1  H24B 2654   4.942   0.625   8.306 -2.8223 -0.1207 -2.7239
   36CHL1   C25 2655   4.947   0.441   8.422 -0.3521  1.3141 -1.0228
   36CHL1   H25 2656   4.839   0.432   8.445  0.2385  0.0401  1.8022
   36CHL1   C26 2657   5.000   0.292   8.402  0.6521 -0.2869 -0.0035
   36CHL1  H26A 2658   5.002   0.250   8.504 -0.6149 -1.5445 -0.4795
   36CHL1  H26B 2659   4.954   0.227   8.325  2.3844  3.0571 -4.2651
   36CHL1  H26C 2660   5.104   0.302   8.362 -0.4106  4.6574 -2.3720
   36CHL1   C27 2661   5.012   0.512   8.545 -0.9878  0.3536  0.0121
   36CHL1  H27A 2662   4.988   0.451   8.635  2.2744 -2.3462 -0.7269
   36CHL1  H27B 2663   5.123   0.521   8.545 -0.9168 -0.1238  1.6843
   36CHL1  H27C 2664   4.974   0.616   8.549 -0.4064  0.6960 -2.0169
   37CHL1    C3 2665   5.654   2.560   6.901 -0.8865 -0.2904 -0.4923
   37CHL1    H3 2666   5.552   2.599   6.921 -1.0319 -0.7586 -0.2871
   37CHL1    O3 2667   5.680   2.557   6.763  0.4665 -0.3009 -0.3972
   37CHL1   H3' 2668   5.601   2.526   6.717 -0.8476  0.0179  1.5103
   37CHL1    C4 2669   5.760   2.646   6.970 -0.2019 -0.0159 -0.3564
   37CHL1   H4A 2670   5.864   2.612   6.949  0.0127  0.7393 -0.5677
   37CHL1   H4B 2671   5.760   2.744   6.917  2.8004 -0.5057 -1.4411
   37CHL1    C5 2672   5.735   2.657   7.124  0.6413 -0.3773  0.1324
   37CHL1    C6 2673   5.720   2.780   7.186  0.2276  0.4321  0.3223
   37CHL1    H6 2674   5.737   2.868   7.121  1.0240  0.5531  0.6923
   37CHL1    C7 2675   5.702   2.800   7.335  0.1831  0.0670  0.4642
   37CHL1   H7A 2676   5.786   2.863   7.370  0.2770 -0.2554  0.8206
   37CHL1   H7B 2677   5.604   2.843   7.364  0.5811  0.6101  1.0411
   37CHL1    C8 2678   5.726   2.665   7.413  0.1325  0.0385 -0.3601
   37CHL1    H8 2679   5.833   2.645   7.434 -0.0925 -3.7275 -2.0054
   37CHL1   C14 2680   5.657   2.668   7.550  0.6745 -0.0938  0.1661
   37CHL1   H14 2681   5.549   2.681   7.526  0.0816 -0.9240  2.1754
   37CHL1   C15 2682   5.686   2.792   7.640  0.5581  0.6526  0.2327
   37CHL1  H15A 2683   5.796   2.800   7.645  0.9360 -3.2572  1.5654
   37CHL1  H15B 2684   5.640   2.878   7.586  0.8776 -0.4611 -1.9058
   37CHL1   C16 2685   5.625   2.752   7.772 -0.3921 -0.1931 -0.2211
   37CHL1  H16A 2686   5.709   2.759   7.845 -1.0252 -0.9731  0.5961
   37CHL1  H16B 2687   5.536   2.810   7.803  0.7643  1.3764  0.3199
   37CHL1   C17 2688   5.584   2.602   7.766 -0.3644  0.0793 -0.1046
   37CHL1   H17 2689   5.476   2.597   7.742 -0.9772 -0.7665  2.4711
   37CHL1   C13 2690   5.663   2.551   7.639 -0.6758 -0.4212 -0.2937
   37CHL1   C18 2691   5.808   2.526   7.675 -0.3851  0.0794 -0.3855
   37CHL1  H18A 2692   5.872   2.508   7.586  0.1760 -2.1190  0.4192
   37CHL1  H18B 2693   5.841   2.610   7.740 -1.6155 -0.6487  1.2527
   37CHL1  H18C 2694   5.818   2.442   7.747  1.1059  0.1283 -0.4963
   37CHL1   C12 2695   5.607   2.428   7.563  0.4390  0.2797 -0.1975
   37CHL1  H12A 2696   5.625   2.336   7.621  0.7582 -0.0244 -0.7683
   37CHL1  H12B 2697   5.499   2.452   7.553  0.4319 -0.0497 -1.0145
   37CHL1   C11 2698   5.674   2.409   7.425  0.1220 -0.0268  0.3542
   37CHL1  H11A 2699   5.781   2.384   7.441 -0.0611 -0.3782  1.0927
   37CHL1  H11B 2700   5.635   2.324   7.365  2.0752  0.2452 -1.4479
   37CHL1    C9 2701   5.674   2.537   7.336  0.1619 -0.0289 -0.0915
   37CHL1    H9 2702   5.567   2.565   7.328  0.3971  0.7856 -0.4127
   37CHL1   C10 2703   5.727   2.521   7.190  0.0751 -0.7594 -0.2655
   37CHL1   C19 2704   5.867   2.447   7.202  0.3868  1.1756  0.3582
   37CHL1  H19A 2705   5.938   2.511   7.259  0.2158  0.6614  1.1606
   37CHL1  H19B 2706   5.863   2.352   7.260 -0.1803  1.4436  0.7709
   37CHL1  H19C 2707   5.906   2.428   7.100  1.0841  1.8526  0.4886
   37CHL1    C1 2708   5.635   2.424   7.121  0.4066 -0.3285  0.2580
   37CHL1   H1A 2709   5.663   2.323   7.158  0.3886 -0.4649 -0.0924
   37CHL1   H1B 2710   5.532   2.444   7.158  1.5565 -0.0181  3.5983
   37CHL1    C2 2711   5.647   2.423   6.961 -0.3018  0.5792  0.6806
   37CHL1   H2A 2712   5.559   2.378   6.910 -0.7259  2.4884 -0.3443
   37CHL1   H2B 2713   5.747   2.378   6.940  0.2198  1.2377  1.6763
   37CHL1   C20 2714   5.596   2.525   7.893  0.3582  0.0702 -0.6005
   37CHL1   H20 2715   5.699   2.496   7.924 -0.1544 -1.1733  0.0315
   37CHL1   C21 2716   5.491   2.405   7.877 -0.6813  0.0201 -0.1959
   37CHL1  H21A 2717   5.529   2.329   7.948  0.6623 -1.5341 -2.4526
   37CHL1  H21B 2718   5.494   2.366   7.774 -1.0823  0.8304 -0.5230
   37CHL1  H21C 2719   5.393   2.438   7.916 -0.3921  0.5597  0.0935
   37CHL1   C22 2720   5.535   2.611   8.010  0.5232 -0.1334 -0.0330
   37CHL1  H22A 2721   5.600   2.698   8.036 -0.6528  0.3979  1.2665
   37CHL1  H22B 2722   5.440   2.656   7.974 -0.8834 -4.4947 -2.3828
   37CHL1   C23 2723   5.510   2.540   8.148  0.7723  0.3127  0.4650
   37CHL1  H23A 2724   5.447   2.448   8.141 -0.0149  0.9332 -1.1727
   37CHL1  H23B 2725   5.613   2.512   8.179  0.9005  0.6918  0.3777
   37CHL1   C24 2726   5.470   2.630   8.265  0.4967  0.2140 -0.3039
   37CHL1  H24A 2727   5.505   2.734   8.250  2.5394 -0.0733  1.8882
   37CHL1  H24B 2728   5.360   2.643   8.259  0.5472  0.1448 -1.7181
   37CHL1   C25 2729   5.513   2.576   8.408 -0.5032 -0.3344 -0.0884
   37CHL1   H25 2730   5.619   2.541   8.405 -0.4587 -0.4358  1.8277
   37CHL1   C26 2731   5.518   2.700   8.494 -0.0569  0.2742 -0.3163
   37CHL1  H26A 2732   5.548   2.674   8.597 -3.9523  0.1133  0.9270
   37CHL1  H26B 2733   5.589   2.773   8.449 -0.3611 -0.7139 -2.5694
   37CHL1  H26C 2734   5.417   2.746   8.506  0.8377  2.3833 -0.3490
   37CHL1   C27 2735   5.427   2.456   8.460 -0.3100  0.6828 -0.0319
   37CHL1  H27A 2736   5.463   2.418   8.558  1.3737  1.5713 -0.2577
   37CHL1  H27B 2737   5.320   2.480   8.447  0.0009  1.2146 -1.9489
   37CHL1  H27C 2738   5.445   2.374   8.387 -0.6291  2.4043 -2.1489
   38CHL1    C3 2739   2.931   3.464   6.598  0.3366 -0.0593 -0.2393
   38CHL1    H3 2740   2.834   3.409   6.606 -0.2765  0.9633 -0.3758
   38CHL1    O3 2741   2.969   3.458   6.463 -0.3027 -0.2869  0.0937
   38CHL1   H3' 2742   3.062   3.484   6.456  0.0467 -0.6384  2.5509
   38CHL1    C4 2743   2.913   3.611   6.656 -0.1842  0.2091 -0.0240
   38CHL1   H4A 2744   2.999   3.676   6.629 -0.1468  1.2945  2.4400
   38CHL1   H4B 2745   2.832   3.648   6.589  0.3646 -0.2342 -0.9523
   38CHL1    C5 2746   2.874   3.604   6.802  0.4528 -0.1141 -0.8470
   38CHL1    C6 2747   2.765   3.661   6.844  0.5534 -0.4912 -0.0626
   38CHL1    H6 2748   2.709   3.713   6.765 -0.0311 -0.9803  0.0245
   38CHL1    C7 2749   2.732   3.687   6.991 -0.5700 -0.1376  0.4700
   38CHL1   H7A 2750   2.708   3.794   7.012 -0.5749  0.5908 -2.7513
   38CHL1   H7B 2751   2.639   3.634   7.023 -0.9439 -0.0607 -0.4642
   38CHL1    C8 2752   2.849   3.654   7.090 -0.8690  0.0825 -0.5082
   38CHL1    H8 2753   2.922   3.737   7.087 -1.0673  0.3552  1.1042
   38CHL1   C14 2754   2.790   3.627   7.227 -0.0586  0.2598  0.0140
   38CHL1   H14 2755   2.724   3.539   7.215 -2.1205  1.9879 -2.3040
   38CHL1   C15 2756   2.711   3.732   7.299 -0.0926 -0.5583  0.1731
   38CHL1  H15A 2757   2.760   3.828   7.272  1.3370 -1.3235 -0.0388
   38CHL1  H15B 2758   2.602   3.738   7.276 -0.9063 -4.4243  2.1747
   38CHL1   C16 2759   2.721   3.704   7.450  0.2081  0.0009  0.5771
   38CHL1  H16A 2760   2.783   3.780   7.501  0.6923 -0.5537  0.8310
   38CHL1  H16B 2761   2.622   3.692   7.499  0.1204 -0.9828  0.1827
   38CHL1   C17 2762   2.813   3.577   7.463 -0.6031  0.8014  0.0969
   38CHL1   H17 2763   2.763   3.478   7.463  2.2478 -0.7746 -1.3850
   38CHL1   C13 2764   2.898   3.577   7.334 -0.3791 -1.0047 -0.5515
   38CHL1   C18 2765   3.017   3.681   7.354 -0.0186 -0.4765 -0.7701
   38CHL1  H18A 2766   2.983   3.775   7.404  0.1313 -1.0492  0.4502
   38CHL1  H18B 2767   3.105   3.643   7.411  0.4569  0.6895 -0.6841
   38CHL1  H18C 2768   3.057   3.708   7.254 -0.2738  1.6524 -0.3436
   38CHL1   C12 2769   2.966   3.449   7.289  0.2473 -0.0346 -0.4399
   38CHL1  H12A 2770   3.058   3.425   7.346  0.2471 -3.1110 -1.5204
   38CHL1  H12B 2771   2.893   3.365   7.294  1.8763 -1.4362  0.5949
   38CHL1   C11 2772   3.024   3.469   7.145  0.4005 -0.2270  0.6007
   38CHL1  H11A 2773   3.113   3.534   7.157  0.1541  0.2415 -0.0285
   38CHL1  H11B 2774   3.048   3.367   7.107 -2.6421 -0.9240  0.2184
   38CHL1    C9 2775   2.919   3.523   7.045  0.3336 -0.1665  0.5494
   38CHL1    H9 2776   2.839   3.446   7.040  0.9556 -0.7546 -0.8094
   38CHL1   C10 2777   2.968   3.535   6.898 -0.0122  0.1870  0.1826
   38CHL1   C19 2778   3.094   3.616   6.893  0.4726  0.4752  0.4900
   38CHL1  H19A 2779   3.135   3.625   6.790  0.5919 -1.6374  0.3043
   38CHL1  H19B 2780   3.071   3.716   6.936 -0.3310 -0.3850  2.1504
   38CHL1  H19C 2781   3.180   3.573   6.948 -0.2025 -1.0072  0.4589
   38CHL1    C1 2782   2.992   3.396   6.833 -0.6268  0.1472  0.5325
   38CHL1   H1A 2783   3.085   3.363   6.884  0.1103 -1.6379 -1.7910
   38CHL1   H1B 2784   2.914   3.322   6.862  0.3373 -0.8434  0.6613
   38CHL1    C2 2785   3.031   3.390   6.681  0.0312  0.6404 -0.5951
   38CHL1   H2A 2786   3.047   3.287   6.642 -1.7820 -0.0159  0.3104
   38CHL1   H2B 2787   3.126   3.448   6.675 -0.6252  1.8164  0.0480
   38CHL1   C20 2788   2.881   3.571   7.604 -0.4741  0.1654 -0.3669
   38CHL1   H20 2789   2.945   3.661   7.615 -0.7173  0.5286 -1.6730
   38CHL1   C21 2790   2.965   3.444   7.618 -0.0757  0.2701  0.2159
   38CHL1  H21A 2791   2.902   3.356   7.594 -0.2372  0.4969 -0.2079
   38CHL1  H21B 2792   3.004   3.432   7.722 -2.7372 -1.5014  1.1136
   38CHL1  H21C 2793   3.052   3.448   7.549  0.2269  0.7962  0.6168
   38CHL1   C22 2794   2.783   3.583   7.719  0.1392  0.0712 -0.1298
   38CHL1  H22A 2795   2.709   3.663   7.699  0.6738  0.3308 -1.1463
   38CHL1  H22B 2796   2.727   3.487   7.720 -1.8628  1.0748 -2.8456
   38CHL1   C23 2797   2.843   3.593   7.859 -0.6209 -0.2609  0.3081
   38CHL1  H23A 2798   2.945   3.627   7.832 -1.8700  3.5417 -0.1703
   38CHL1  H23B 2799   2.794   3.674   7.917  0.2183  1.2203 -0.9807
   38CHL1   C24 2800   2.841   3.470   7.937  0.3900  0.6179  0.0267
   38CHL1  H24A 2801   2.751   3.449   7.999  0.3505  0.0237 -0.2233
   38CHL1  H24B 2802   2.854   3.385   7.866 -0.9357 -0.7424  1.3365
   38CHL1   C25 2803   2.948   3.467   8.047 -0.4136 -0.3893 -0.0493
   38CHL1   H25 2804   2.949   3.363   8.087  0.3401 -0.2256  0.3670
   38CHL1   C26 2805   3.093   3.507   8.005  0.1132  0.4226 -0.4073
   38CHL1  H26A 2806   3.149   3.436   7.941  1.8679  0.4819  0.9916
   38CHL1  H26B 2807   3.101   3.608   7.960 -0.8694  1.1579  0.9692
   38CHL1  H26C 2808   3.154   3.517   8.098 -3.1288 -2.0838  2.2214
   38CHL1   C27 2809   2.915   3.557   8.164 -0.3620 -0.1048  0.0967
   38CHL1  H27A 2810   2.995   3.561   8.241  0.1375 -2.0441 -0.2854
   38CHL1  H27B 2811   2.878   3.656   8.129 -3.2040 -0.8016  0.8209
   38CHL1  H27C 2812   2.830   3.498   8.207 -2.0707  1.7345 -0.6126
   39CHL1    C3 2813   2.293   2.456   6.781 -0.0163 -1.2783 -1.3053
   39CHL1    H3 2814   2.319   2.562   6.803 -0.9646 -0.6496 -3.0156
   39CHL1    O3 2815   2.225   2.465   6.663  0.0933 -0.2714  0.0065
   39CHL1   H3' 2816   2.164   2.391   6.663 -1.0015  0.5856 -1.5609
   39CHL1    C4 2817   2.422   2.370   6.777 -0.0364 -0.7003 -0.2140
   39CHL1   H4A 2818   2.390   2.266   6.753  0.9981 -1.2091  0.5144
   39CHL1   H4B 2819   2.490   2.394   6.693 -1.0434 -3.6629 -2.0569
   39CHL1    C5 2820   2.492   2.372   6.907  0.1238  0.7212  0.1798
   39CHL1    C6 2821   2.621   2.402   6.934 -0.3984  0.3383  0.1934
   39CHL1    H6 2822   2.681   2.437   6.849 -0.1917  1.6562  0.8639
   39CHL1    C7 2823   2.689   2.394   7.070 -0.5497  0.1346  0.2457
   39CHL1   H7A 2824   2.778   2.330   7.053 -1.8611 -1.0195 -3.2044
   39CHL1   H7B 2825   2.728   2.494   7.097 -0.9149 -0.2855  2.5167
   39CHL1    C8 2826   2.615   2.329   7.185  0.2923  0.8141  0.3916
   39CHL1    H8 2827   2.616   2.218   7.177 -2.9801  0.5595  1.6815
   39CHL1   C14 2828   2.665   2.380   7.317  0.2616  0.4680 -0.4447
   39CHL1   H14 2829   2.663   2.490   7.335 -0.7610  0.3817  0.0456
   39CHL1   C15 2830   2.816   2.350   7.338  0.8935 -0.0317 -0.6344
   39CHL1  H15A 2831   2.834   2.243   7.315  2.2421 -0.0911  0.5251
   39CHL1  H15B 2832   2.864   2.422   7.269 -1.1412  0.6111 -1.4530
   39CHL1   C16 2833   2.829   2.369   7.493 -0.0988 -0.3113 -0.0361
   39CHL1  H16A 2834   2.890   2.288   7.537  0.8126 -0.2874 -1.2068
   39CHL1  H16B 2835   2.880   2.466   7.512 -1.1217  1.1352 -3.6899
   39CHL1   C17 2836   2.681   2.379   7.549  0.5714  0.3241 -0.8124
   39CHL1   H17 2837   2.658   2.486   7.563 -0.1326  0.0063  0.6938
   39CHL1   C13 2838   2.596   2.321   7.431 -0.0476 -0.1087  0.6866
   39CHL1   C18 2839   2.600   2.161   7.433  0.1680 -0.8541 -0.8765
   39CHL1  H18A 2840   2.560   2.106   7.345  2.6405 -2.2183 -1.2324
   39CHL1  H18B 2841   2.706   2.131   7.448 -0.3111 -1.4846  1.8817
   39CHL1  H18C 2842   2.551   2.115   7.522  2.5542 -1.7014  0.0879
   39CHL1   C12 2843   2.446   2.364   7.431  0.4572 -0.4742  0.3780
   39CHL1  H12A 2844   2.383   2.321   7.512  0.3963  1.0539  1.1841
   39CHL1  H12B 2845   2.433   2.474   7.442  0.4708 -0.4943  0.6157
   39CHL1   C11 2846   2.387   2.316   7.295 -0.1875  0.6374  0.0349
   39CHL1  H11A 2847   2.383   2.205   7.288 -0.4554  0.6177  0.4860
   39CHL1  H11B 2848   2.278   2.336   7.283  0.1222  3.2208  0.9742
   39CHL1    C9 2849   2.465   2.369   7.175 -0.3798 -0.1524  0.2110
   39CHL1    H9 2850   2.459   2.480   7.176  0.0975 -0.1264  0.1771
   39CHL1   C10 2851   2.403   2.338   7.032 -0.2775 -0.1953  0.3228
   39CHL1   C19 2852   2.384   2.182   7.023  0.4390  0.1588  0.7062
   39CHL1  H19A 2853   2.344   2.150   6.925 -0.2693 -0.0430  1.0513
   39CHL1  H19B 2854   2.479   2.127   7.037  2.0323  1.8322 -2.5463
   39CHL1  H19C 2855   2.308   2.157   7.101  0.8412  0.1143  1.0882
   39CHL1    C1 2856   2.270   2.419   7.024 -0.0371  0.0786 -0.2027
   39CHL1   H1A 2857   2.199   2.376   7.098 -2.3598 -1.4124 -3.0452
   39CHL1   H1B 2858   2.292   2.525   7.049 -2.1324  0.9355 -1.6559
   39CHL1    C2 2859   2.197   2.408   6.887  0.3496 -0.3442 -0.0060
   39CHL1   H2A 2860   2.102   2.466   6.894  1.2206  0.9624  1.5588
   39CHL1   H2B 2861   2.165   2.308   6.849 -0.7212  0.0265 -0.1250
   39CHL1   C20 2862   2.675   2.304   7.687 -0.0188  0.4142 -0.5633
   39CHL1   H20 2863   2.681   2.194   7.671 -1.2903 -0.2049  2.5411
   39CHL1   C21 2864   2.544   2.329   7.763  0.9848  0.8823  0.4449
   39CHL1  H21A 2865   2.552   2.296   7.869  1.5132 -0.1930  0.0780
   39CHL1  H21B 2866   2.460   2.273   7.718  0.8351  0.8136  0.8067
   39CHL1  H21C 2867   2.517   2.437   7.761  0.8437  0.8463  0.4124
   39CHL1   C22 2868   2.789   2.331   7.791  0.0447 -0.7009 -0.3299
   39CHL1  H22A 2869   2.762   2.258   7.871 -0.4409  0.1898  0.3493
   39CHL1  H22B 2870   2.882   2.303   7.739  0.5626 -1.6346  1.0408
   39CHL1   C23 2871   2.810   2.467   7.857  0.9634  0.0481  0.4194
   39CHL1  H23A 2872   2.845   2.537   7.778  2.0600 -1.7035 -0.7331
   39CHL1  H23B 2873   2.721   2.510   7.907 -1.1400 -2.9156 -0.4977
   39CHL1   C24 2874   2.931   2.451   7.959 -0.2859 -0.0125  0.3950
   39CHL1  H24A 2875   2.909   2.363   8.023 -1.0915  1.3043  2.0193
   39CHL1  H24B 2876   3.021   2.428   7.899  0.4104 -0.4727  1.5617
   39CHL1   C25 2877   2.964   2.566   8.055 -0.6985 -0.3644 -0.1918
   39CHL1   H25 2878   2.867   2.602   8.094 -0.4049  1.4971 -1.0583
   39CHL1   C26 2879   3.046   2.511   8.177  0.0274  0.4841 -0.2012
   39CHL1  H26A 2880   3.043   2.584   8.261 -2.2746 -0.1853  0.3649
   39CHL1  H26B 2881   2.983   2.432   8.222 -1.2853  0.7365 -1.5456
   39CHL1  H26C 2882   3.147   2.475   8.146 -0.5605 -2.2809  0.7755
   39CHL1   C27 2883   3.039   2.687   7.988 -0.7898 -0.2898 -0.3488
   39CHL1  H27A 2884   3.070   2.770   8.054  1.0488  0.6909 -2.3494
   39CHL1  H27B 2885   3.131   2.646   7.941 -1.0885 -2.1389  0.5582
   39CHL1  H27C 2886   2.980   2.733   7.906  1.0799  0.0572 -1.5637
   40CHL1    C3 2887   3.988   2.187   6.985 -0.1255  0.6909 -0.0756
   40CHL1    H3 2888   4.088   2.224   6.954  1.9095 -0.7286  3.9700
   40CHL1    O3 2889   3.887   2.198   6.880  0.1637 -0.3028 -0.5631
   40CHL1   H3' 2890   3.911   2.128   6.818 -2.2147 -2.8337  1.1660
   40CHL1    C4 2891   3.990   2.046   7.035 -0.8270 -0.2927 -0.6553
   40CHL1   H4A 2892   3.887   2.022   7.070 -1.0890 -0.7733 -1.7130
   40CHL1   H4B 2893   4.008   1.983   6.945 -1.6968  1.6938 -2.2897
   40CHL1    C5 2894   4.095   2.027   7.139 -0.5290 -0.0107 -1.2252
   40CHL1    C6 2895   4.188   1.932   7.137 -0.1276  0.2244  0.4097
   40CHL1    H6 2896   4.195   1.875   7.044 -0.9175  2.1922 -0.9306
   40CHL1    C7 2897   4.298   1.902   7.234 -0.5961  0.4342 -0.7196
   40CHL1   H7A 2898   4.318   1.792   7.233 -2.9839 -0.0778 -3.3807
   40CHL1   H7B 2899   4.392   1.954   7.204 -0.6737  1.3293  0.5121
   40CHL1    C8 2900   4.261   1.960   7.375 -0.6266 -0.0609  0.5721
   40CHL1    H8 2901   4.192   1.887   7.423 -0.2008 -0.6939  0.2334
   40CHL1   C14 2902   4.389   1.967   7.457 -0.0772 -0.7292  0.1895
   40CHL1   H14 2903   4.449   2.026   7.385 -1.5932  0.8718  0.1534
   40CHL1   C15 2904   4.477   1.837   7.484 -0.1230  0.8928  0.3106
   40CHL1  H15A 2905   4.405   1.753   7.498  0.9333  0.1142  1.2273
   40CHL1  H15B 2906   4.542   1.813   7.397  0.3822 -0.6496  1.0816
   40CHL1   C16 2907   4.559   1.869   7.615 -0.2868  0.3176  0.1149
   40CHL1  H16A 2908   4.529   1.795   7.693  1.3693  1.2350  1.7056
   40CHL1  H16B 2909   4.667   1.851   7.595  0.1204  0.1679  2.1930
   40CHL1   C17 2910   4.527   2.016   7.646 -0.2850 -0.0610 -0.6213
   40CHL1   H17 2911   4.586   2.084   7.582  0.8313 -0.9473 -0.5575
   40CHL1   C13 2912   4.383   2.032   7.596 -0.0906 -0.5415 -0.1426
   40CHL1   C18 2913   4.281   1.960   7.689  0.6103  0.5343  0.5524
   40CHL1  H18A 2914   4.182   1.954   7.640  2.2336  0.8056 -3.0199
   40CHL1  H18B 2915   4.317   1.862   7.730 -2.6215 -0.5782  0.9689
   40CHL1  H18C 2916   4.261   2.024   7.777 -2.6216 -0.1929  0.4466
   40CHL1   C12 2917   4.330   2.174   7.572 -0.5300 -0.4014 -0.3670
   40CHL1  H12A 2918   4.302   2.231   7.663  1.0942 -0.6196  0.2953
   40CHL1  H12B 2919   4.409   2.239   7.529  1.9988 -1.5226  2.2222
   40CHL1   C11 2920   4.201   2.172   7.482  0.2011 -0.0940 -0.8786
   40CHL1  H11A 2921   4.117   2.130   7.542  0.5951 -0.7604 -0.7762
   40CHL1  H11B 2922   4.179   2.277   7.456  0.7784  0.1752 -0.2997
   40CHL1    C9 2923   4.213   2.099   7.342 -0.4099 -0.8376 -0.0447
   40CHL1    H9 2924   4.297   2.154   7.295 -1.3871 -0.8804 -1.9326
   40CHL1   C10 2925   4.083   2.121   7.253  0.2176 -0.4927  0.6241
   40CHL1   C19 2926   3.957   2.067   7.338  0.4153 -0.3039 -0.3407
   40CHL1  H19A 2927   3.869   2.077   7.271 -2.1240 -0.1649  2.8040
   40CHL1  H19B 2928   3.971   1.967   7.384 -2.6344 -0.7770 -0.2707
   40CHL1  H19C 2929   3.952   2.129   7.430  1.7031 -3.8523  2.3865
   40CHL1    C1 2930   4.071   2.268   7.211 -0.2570 -0.3057  0.7306
   40CHL1   H1A 2931   4.034   2.324   7.300  0.1517  1.7007 -0.2881
   40CHL1   H1B 2932   4.161   2.311   7.162 -1.2334  1.3689  0.3231
   40CHL1    C2 2933   3.955   2.279   7.108  0.6824 -0.9487  0.0101
   40CHL1   H2A 2934   3.934   2.380   7.068 -0.6132 -2.0386 -2.2631
   40CHL1   H2B 2935   3.863   2.243   7.160  0.2507 -0.6477 -0.5330
   40CHL1   C20 2936   4.569   2.052   7.788 -0.8349  0.0744  0.1700
   40CHL1   H20 2937   4.515   1.980   7.854 -0.9363 -0.8100 -0.8634
   40CHL1   C21 2938   4.529   2.199   7.822 -0.7089 -0.7650  0.2463
   40CHL1  H21A 2939   4.561   2.228   7.924  0.8213  2.4093 -1.0141
   40CHL1  H21B 2940   4.420   2.220   7.819 -0.2819  2.2646  2.0199
   40CHL1  H21C 2941   4.579   2.264   7.746 -0.1133 -1.2512  0.2094
   40CHL1   C22 2942   4.726   2.029   7.815  0.1307 -0.2464  0.3967
   40CHL1  H22A 2943   4.754   1.932   7.769 -0.4190 -0.7852  1.1838
   40CHL1  H22B 2944   4.787   2.111   7.770 -0.2313 -0.8796 -1.3504
   40CHL1   C23 2945   4.774   2.033   7.962  0.5434  0.4550  0.1192
   40CHL1  H23A 2946   4.885   2.033   7.958  0.7461 -1.6429  2.7769
   40CHL1  H23B 2947   4.749   2.135   7.997 -0.7567  1.2012 -2.6610
   40CHL1   C24 2948   4.724   1.912   8.036 -0.2175  0.5467  0.4067
   40CHL1  H24A 2949   4.613   1.912   8.028 -0.1223 -1.2688 -3.0543
   40CHL1  H24B 2950   4.737   1.816   7.981 -2.0946 -0.0808  0.9673
   40CHL1   C25 2951   4.770   1.889   8.184  0.3077  0.1413  0.4185
   40CHL1   H25 2952   4.871   1.936   8.186 -0.1428  1.3416 -1.5869
   40CHL1   C26 2953   4.681   1.968   8.285  0.6239 -0.3699  0.3678
   40CHL1  H26A 2954   4.678   2.073   8.248  0.2064 -0.7397 -0.6827
   40CHL1  H26B 2955   4.580   1.922   8.295  0.0857  0.0532 -2.3078
   40CHL1  H26C 2956   4.725   1.974   8.386 -1.2191 -1.9375  1.3188
   40CHL1   C27 2957   4.769   1.742   8.225  0.1515  0.4624 -0.0444
   40CHL1  H27A 2958   4.809   1.672   8.148 -0.7424  2.4506 -2.4851
   40CHL1  H27B 2959   4.823   1.728   8.321 -0.7005  0.3192  0.4236
   40CHL1  H27C 2960   4.664   1.718   8.255  1.6234 -1.9254  3.8923
   41CHL1    C3 2961   6.380   2.284   6.950 -0.8083  0.5336 -0.0348
   41CHL1    H3 2962   6.343   2.187   6.990  1.2466  0.1939  1.1425
   41CHL1    O3 2963   6.368   2.294   6.805  0.6643  0.4479 -0.3769
   41CHL1   H3' 2964   6.440   2.243   6.767 -0.1417 -2.1181  1.3076
   41CHL1    C4 2965   6.309   2.400   7.008  0.1796 -0.3513  0.3977
   41CHL1   H4A 2966   6.358   2.497   6.985  0.6127 -0.8897 -1.0635
   41CHL1   H4B 2967   6.214   2.423   6.956 -0.2318  0.9159  1.6270
   41CHL1    C5 2968   6.299   2.378   7.150 -0.6726  0.0136 -0.6156
   41CHL1    C6 2969   6.183   2.354   7.210 -0.6570 -0.4784  0.7075
   41CHL1    H6 2970   6.089   2.350   7.153 -0.2619  0.9806 -0.1004
   41CHL1    C7 2971   6.175   2.346   7.363  1.0890  0.2067  0.9443
   41CHL1   H7A 2972   6.095   2.416   7.396 -0.3523 -0.1977 -1.4374
   41CHL1   H7B 2973   6.117   2.254   7.388  0.3703 -0.4863 -2.6635
   41CHL1    C8 2974   6.303   2.387   7.434 -0.4612 -1.0195  0.1497
   41CHL1    H8 2975   6.296   2.497   7.447 -0.1488 -1.2185  2.4670
   41CHL1   C14 2976   6.291   2.340   7.579  0.0700 -0.1768  0.4756
   41CHL1   H14 2977   6.303   2.230   7.580 -0.0497 -0.2151 -1.0195
   41CHL1   C15 2978   6.167   2.381   7.652 -0.4714  0.6320  0.0240
   41CHL1  H15A 2979   6.137   2.488   7.655 -0.9065  0.4979  0.8320
   41CHL1  H15B 2980   6.078   2.322   7.621  1.0010 -0.5995 -2.1121
   41CHL1   C16 2981   6.201   2.344   7.803 -0.4338 -0.1539 -0.0260
   41CHL1  H16A 2982   6.157   2.427   7.863 -0.0183  0.4299 -0.5136
   41CHL1  H16B 2983   6.145   2.253   7.833  0.4891 -0.7441 -0.0678
   41CHL1   C17 2984   6.355   2.322   7.809  0.1245  0.1638  0.1423
   41CHL1   H17 2985   6.376   2.213   7.800 -0.2490  0.2286 -2.2234
   41CHL1   C13 2986   6.411   2.374   7.673  0.0720 -0.1423  0.2123
   41CHL1   C18 2987   6.424   2.525   7.675 -0.0052 -0.1581 -0.4831
   41CHL1  H18A 2988   6.331   2.580   7.700  1.3220  1.9207  0.1682
   41CHL1  H18B 2989   6.506   2.551   7.745 -0.4278  0.8072 -0.3289
   41CHL1  H18C 2990   6.448   2.567   7.575  1.2795  1.5902  0.5110
   41CHL1   C12 2991   6.544   2.319   7.616 -0.1659 -0.3741  1.0163
   41CHL1  H12A 2992   6.620   2.382   7.666  0.5525 -0.2697 -0.1579
   41CHL1  H12B 2993   6.563   2.210   7.631  2.4393 -0.4294 -1.7329
   41CHL1   C11 2994   6.556   2.349   7.463  0.2904  0.4003 -0.1194
   41CHL1  H11A 2995   6.591   2.453   7.444  0.7029  0.4879  1.0577
   41CHL1  H11B 2996   6.644   2.291   7.430  0.4016  1.4080 -1.7262
   41CHL1    C9 2997   6.428   2.329   7.374 -0.2068  0.2220 -0.1184
   41CHL1    H9 2998   6.404   2.220   7.377 -2.4174  0.6720  1.4180
   41CHL1   C10 2999   6.432   2.382   7.226 -0.5701 -0.4826 -0.1536
   41CHL1   C19 3000   6.485   2.527   7.220  0.2069  1.2475  0.0775
   41CHL1  H19A 3001   6.587   2.523   7.264  0.2828 -0.1939 -0.1944
   41CHL1  H19B 3002   6.494   2.571   7.118  1.4471  2.2377  0.5786
   41CHL1  H19C 3003   6.413   2.599   7.264  0.4541  1.4863  0.0978
   41CHL1    C1 3004   6.527   2.286   7.156  0.1993  0.3348 -0.4685
   41CHL1   H1A 3005   6.634   2.295   7.186  0.0864  1.9001 -0.4359
   41CHL1   H1B 3006   6.497   2.181   7.175  1.6467 -0.0329 -0.1066
   41CHL1    C2 3007   6.527   2.292   7.000 -0.5615  0.1825  0.8072
   41CHL1   H2A 3008   6.584   2.208   6.955 -0.3182  0.4204  0.6680
   41CHL1   H2B 3009   6.580   2.387   6.976  1.9034 -1.4049 -0.4752
   41CHL1   C20 3010   6.418   2.364   7.945 -0.2694 -0.2270  0.2826
   41CHL1   H20 3011   6.417   2.474   7.954 -0.2235 -0.3617  2.6229
   41CHL1   C21 3012   6.568   2.324   7.941  0.4967 -0.1894  0.5446
   41CHL1  H21A 3013   6.619   2.363   7.850  0.3914 -1.3823 -0.0446
   41CHL1  H21B 3014   6.583   2.215   7.954  0.1242 -0.2237  0.6988
   41CHL1  H21C 3015   6.627   2.375   8.020 -0.1047  1.8848 -0.2886
   41CHL1   C22 3016   6.337   2.307   8.068 -0.0136 -0.2642  0.3579
   41CHL1  H22A 3017   6.236   2.351   8.058 -0.8481 -2.2360 -0.4020
   41CHL1  H22B 3018   6.322   2.197   8.069 -0.3059 -0.2425 -0.4519
   41CHL1   C23 3019   6.391   2.375   8.199  0.3667 -0.1032  1.5592
   41CHL1  H23A 3020   6.501   2.357   8.198  0.3666 -0.7906 -2.4515
   41CHL1  H23B 3021   6.376   2.483   8.177  2.5861 -0.2967 -1.4117
   41CHL1   C24 3022   6.310   2.343   8.324  0.0688  0.2714 -0.3179
   41CHL1  H24A 3023   6.328   2.406   8.413  0.1141 -0.6321  0.3225
   41CHL1  H24B 3024   6.203   2.370   8.310 -0.6430 -0.8682  2.2657
   41CHL1   C25 3025   6.314   2.203   8.379 -0.0370 -0.2651  0.6416
   41CHL1   H25 3026   6.286   2.134   8.297  0.7425  0.5636 -0.3590
   41CHL1   C26 3027   6.454   2.160   8.421  0.1200  0.6825  0.0191
   41CHL1  H26A 3028   6.530   2.180   8.343  1.9488  0.2675  1.6440
   41CHL1  H26B 3029   6.494   2.209   8.511  0.9551 -0.2366  0.1643
   41CHL1  H26C 3030   6.457   2.052   8.446 -0.4386  0.6595  0.0072
   41CHL1   C27 3031   6.206   2.184   8.493  0.4835  0.7206  0.2529
   41CHL1  H27A 3032   6.229   2.225   8.594  1.4742  0.8084  0.0014
   41CHL1  H27B 3033   6.114   2.242   8.468  1.2985  2.2089  0.6198
   41CHL1  H27C 3034   6.188   2.076   8.513 -0.7801  0.7565 -0.5571
   42CHL1    C3 3035   0.035   4.404   6.842 -0.3351  0.3082 -0.1815
   42CHL1    H3 3036   0.109   4.324   6.861 -3.6857 -3.8727 -2.7530
   42CHL1    O3 3037   0.027   4.450   6.710  0.3225  0.2114  0.1866
   42CHL1   H3' 3038  -0.066   4.477   6.704 -0.4287 -2.1646  0.0990
   42CHL1    C4 3039  -0.099   4.340   6.887 -0.4034  0.2023 -0.3057
   42CHL1   H4A 3040  -0.178   4.411   6.856 -0.3626 -0.6760 -2.6080
   42CHL1   H4B 3041  -0.126   4.250   6.827 -2.7351  0.6121  0.0100
   42CHL1    C5 3042  -0.098   4.318   7.030 -0.1445  0.0478  0.0038
   42CHL1    C6 3043  -0.152   4.203   7.081 -0.3918  0.2760 -0.3372
   42CHL1    H6 3044  -0.169   4.129   7.002  1.9608  0.1884 -0.8535
   42CHL1    C7 3045  -0.181   4.171   7.229 -0.0513 -0.2174  0.3954
   42CHL1   H7A 3046  -0.285   4.142   7.252  0.1787  0.5100  2.6425
   42CHL1   H7B 3047  -0.124   4.081   7.260 -0.4053 -0.0873  1.4415
   42CHL1    C8 3048  -0.150   4.293   7.320  0.4373 -0.3569  0.1717
   42CHL1    H8 3049  -0.248   4.345   7.311 -0.7309 -2.7048 -2.1709
   42CHL1   C14 3050  -0.119   4.242   7.463  0.2263  0.3050  0.6277
   42CHL1   H14 3051  -0.021   4.191   7.471  0.1100  0.0166  0.2198
   42CHL1   C15 3052  -0.221   4.148   7.517  0.1766 -0.1437  0.2125
   42CHL1  H15A 3053  -0.321   4.190   7.494  1.1771  1.3696 -1.7438
   42CHL1  H15B 3054  -0.200   4.044   7.484 -0.0640 -0.2057  0.2542
   42CHL1   C16 3055  -0.202   4.151   7.668 -0.0715  0.1858 -0.5633
   42CHL1  H16A 3056  -0.295   4.180   7.721  0.9743 -1.5033  2.5026
   42CHL1  H16B 3057  -0.169   4.053   7.711 -2.5221 -0.2009  0.6116
   42CHL1   C17 3058  -0.084   4.260   7.696  0.3401  0.2447 -0.1037
   42CHL1   H17 3059   0.011   4.202   7.686  0.9533  1.4211 -1.4436
   42CHL1   C13 3060  -0.098   4.350   7.571 -0.2630  0.0408  0.3304
   42CHL1   C18 3061  -0.219   4.444   7.592 -1.0238  0.8141 -0.1313
   42CHL1  H18A 3062  -0.204   4.503   7.685 -2.1683  0.7626  0.0994
   42CHL1  H18B 3063  -0.221   4.517   7.508 -1.0117  1.0414  0.0669
   42CHL1  H18C 3064  -0.315   4.389   7.598 -1.2767  1.1988 -0.6151
   42CHL1   C12 3065   0.023   4.426   7.515  0.0594  0.2981 -0.7830
   42CHL1  H12A 3066   0.053   4.504   7.588  0.6312 -0.3178 -0.3535
   42CHL1  H12B 3067   0.110   4.357   7.513 -1.1529 -1.3574  0.6583
   42CHL1   C11 3068   0.014   4.474   7.368 -0.0249 -0.1247  0.0423
   42CHL1  H11A 3069  -0.053   4.563   7.365  1.5836  1.1201 -1.6290
   42CHL1  H11B 3070   0.109   4.523   7.340 -0.1141  0.2660  0.4086
   42CHL1    C9 3071  -0.030   4.369   7.261 -0.1868 -0.1331 -0.0886
   42CHL1    H9 3072   0.055   4.298   7.257 -0.5766 -0.5530 -1.4756
   42CHL1   C10 3073  -0.051   4.429   7.125  0.3886  0.4790  0.5973
   42CHL1   C19 3074  -0.161   4.542   7.124 -0.3592  0.4197 -0.1946
   42CHL1  H19A 3075  -0.186   4.592   7.028 -0.7376  0.0537 -0.2872
   42CHL1  H19B 3076  -0.255   4.498   7.165  0.1935 -0.0971  0.5513
   42CHL1  H19C 3077  -0.126   4.629   7.183  1.2317 -0.4069  0.1179
   42CHL1    C1 3078   0.081   4.486   7.072  0.0081 -0.4787 -0.0870
   42CHL1   H1A 3079   0.098   4.581   7.127 -0.2421 -0.3802 -0.1756
   42CHL1   H1B 3080   0.169   4.420   7.086 -2.1181 -3.3329  0.5165
   42CHL1    C2 3081   0.075   4.526   6.929 -0.0542  0.5299  0.2531
   42CHL1   H2A 3082   0.174   4.556   6.887 -0.1029 -0.2779 -0.4967
   42CHL1   H2B 3083  -0.001   4.606   6.916  1.0053  1.0771 -4.2612
   42CHL1   C20 3084  -0.097   4.319   7.838 -0.0211 -0.4253  0.2904
   42CHL1   H20 3085  -0.201   4.358   7.849  0.6096  1.2066  0.7991
   42CHL1   C21 3086   0.003   4.432   7.867 -0.3286  0.0693 -0.2717
   42CHL1  H21A 3087   0.105   4.396   7.842  1.6800  3.7388  1.7499
   42CHL1  H21B 3088  -0.001   4.459   7.975 -0.1350  1.1122 -0.5210
   42CHL1  H21C 3089  -0.002   4.521   7.801  0.5545  0.7973  0.6104
   42CHL1   C22 3090  -0.087   4.222   7.956  1.0519 -0.0619 -0.1007
   42CHL1  H22A 3091  -0.142   4.129   7.931 -3.1102  1.3987  2.5127
   42CHL1  H22B 3092   0.015   4.204   7.995  0.3980 -0.1871  1.6424
   42CHL1   C23 3093  -0.161   4.273   8.078  0.0079 -0.1824 -0.2820
   42CHL1  H23A 3094  -0.106   4.365   8.107  2.3899 -1.3505 -0.8302
   42CHL1  H23B 3095  -0.269   4.297   8.065  0.4804  2.2187 -0.3357
   42CHL1   C24 3096  -0.138   4.168   8.187  0.3546 -0.5479  0.2328
   42CHL1  H24A 3097  -0.190   4.072   8.166  0.8409 -0.8850  0.5444
   42CHL1  H24B 3098  -0.030   4.140   8.180  0.3409 -0.4493 -0.4406
   42CHL1   C25 3099  -0.152   4.220   8.337 -0.0453  0.4365 -0.0158
   42CHL1   H25 3100  -0.140   4.133   8.405  1.4148  2.3296  2.2984
   42CHL1   C26 3101  -0.057   4.328   8.384  0.6187 -0.2733  0.0444
   42CHL1  H26A 3102  -0.075   4.361   8.489 -0.5756  0.3179 -0.3240
   42CHL1  H26B 3103   0.042   4.278   8.386  0.2948 -0.9204  2.4232
   42CHL1  H26C 3104  -0.054   4.412   8.312 -2.3515  1.3609  1.6466
   42CHL1   C27 3105  -0.297   4.275   8.358  0.2220 -0.0879  0.4444
   42CHL1  H27A 3106  -0.369   4.202   8.315 -0.2166 -2.1070  4.2046
   42CHL1  H27B 3107  -0.300   4.370   8.301  0.4724 -1.0051 -1.1513
   42CHL1  H27C 3108  -0.330   4.305   8.459 -2.2244  1.3113 -0.6873
   43CHL1    C3 3109   3.670   4.646   6.722  0.7582 -1.0295 -0.2848
   43CHL1    H3 3110   3.571   4.644   6.772  0.8165  2.1397  0.1683
   43CHL1    O3 3111   3.637   4.631   6.586  0.2393 -0.2890  0.3643
   43CHL1   H3' 3112   3.709   4.672   6.537  0.1582 -0.6864 -0.0942
   43CHL1    C4 3113   3.752   4.773   6.754 -0.3371 -0.0314 -0.6257
   43CHL1   H4A 3114   3.841   4.800   6.692 -0.0052  1.5769  0.4766
   43CHL1   H4B 3115   3.690   4.859   6.719 -0.5865  0.3323  0.6694
   43CHL1    C5 3116   3.764   4.780   6.900  0.3154  0.1198 -0.1964
   43CHL1    C6 3117   3.717   4.888   6.978 -1.2325 -0.3789  0.3916
   43CHL1    H6 3118   3.667   4.974   6.932 -1.5225 -0.9113 -0.3145
   43CHL1    C7 3119   3.731   4.903   7.126  0.1889 -0.0566  0.1195
   43CHL1   H7A 3120   3.769   5.004   7.152 -1.5433  0.5014  0.6415
   43CHL1   H7B 3121   3.633   4.890   7.177  0.0890 -0.6295 -0.2101
   43CHL1    C8 3122   3.830   4.797   7.181 -0.3743  0.6187  0.1557
   43CHL1    H8 3123   3.924   4.843   7.143 -1.6231  1.8210 -1.6534
   43CHL1   C14 3124   3.824   4.794   7.332  0.1774 -0.7958 -0.1681
   43CHL1   H14 3125   3.720   4.759   7.344 -0.6739  1.6859  0.2962
   43CHL1   C15 3126   3.834   4.917   7.421 -1.0142  0.5672  0.7268
   43CHL1  H15A 3127   3.927   4.967   7.387 -1.2459 -0.2164 -1.2300
   43CHL1  H15B 3128   3.741   4.978   7.411 -2.4581 -1.4072  1.2930
   43CHL1   C16 3129   3.854   4.865   7.561  0.7802  0.7849 -0.2986
   43CHL1  H16A 3130   3.946   4.906   7.609  1.9940 -2.9211  0.8364
   43CHL1  H16B 3131   3.758   4.891   7.609  1.3597  1.3134  0.6252
   43CHL1   C17 3132   3.873   4.711   7.554 -0.5124  0.4846 -0.7561
   43CHL1   H17 3133   3.775   4.661   7.566  0.6687 -1.5909  1.1283
   43CHL1   C13 3134   3.909   4.685   7.399 -0.6510 -0.4163 -0.1658
   43CHL1   C18 3135   4.051   4.719   7.370 -0.0413 -0.7765  0.3340
   43CHL1  H18A 3136   4.118   4.656   7.431  0.3326  1.3448  2.2168
   43CHL1  H18B 3137   4.075   4.714   7.261 -0.4624 -0.7395  0.2354
   43CHL1  H18C 3138   4.068   4.824   7.401 -0.0973 -0.5135 -0.4867
   43CHL1   C12 3139   3.859   4.552   7.341 -0.2327  0.3452  0.2135
   43CHL1  H12A 3140   3.912   4.464   7.384  1.2740  0.6001 -1.0449
   43CHL1  H12B 3141   3.750   4.540   7.362 -0.0737  0.1733  0.9818
   43CHL1   C11 3142   3.883   4.544   7.190 -0.2783  0.1464 -0.1216
   43CHL1  H11A 3143   3.993   4.555   7.173 -0.2108 -1.9269 -1.3708
   43CHL1  H11B 3144   3.860   4.443   7.150 -0.8607  0.0823  0.3647
   43CHL1    C9 3145   3.807   4.661   7.122  0.1539  0.0218 -0.0683
   43CHL1    H9 3146   3.698   4.641   7.125  0.2366 -0.6042 -0.8490
   43CHL1   C10 3147   3.834   4.664   6.967  0.0376  0.4707 -0.0210
   43CHL1   C19 3148   3.979   4.687   6.931 -0.0305 -0.3334  0.0830
   43CHL1  H19A 3149   4.016   4.786   6.965 -1.2584  0.6353 -1.2632
   43CHL1  H19B 3150   4.039   4.599   6.960  0.3542 -0.7875 -1.9464
   43CHL1  H19C 3151   3.996   4.689   6.821 -1.8215  0.1771 -0.2265
   43CHL1    C1 3152   3.783   4.530   6.910 -0.1199 -0.3419  0.4806
   43CHL1   H1A 3153   3.856   4.448   6.929 -1.5624 -1.3751  1.7771
   43CHL1   H1B 3154   3.691   4.501   6.965  1.8478 -2.3650  2.9837
   43CHL1    C2 3155   3.755   4.525   6.756  0.5883  0.1386  0.5374
   43CHL1   H2A 3156   3.698   4.433   6.732 -1.6342  0.9967  2.1156
   43CHL1   H2B 3157   3.849   4.523   6.698  0.4735  0.0721  0.3544
   43CHL1   C20 3158   3.967   4.663   7.665  0.0041 -0.7321 -0.0256
   43CHL1   H20 3159   4.067   4.707   7.643 -0.1717 -0.1097  0.3971
   43CHL1   C21 3160   3.977   4.508   7.653  0.7869  0.1179  0.0706
   43CHL1  H21A 3161   4.025   4.479   7.558  0.7316 -1.4179  0.4825
   43CHL1  H21B 3162   3.874   4.464   7.653  0.2271  1.3644 -0.8955
   43CHL1  H21C 3163   4.043   4.465   7.731  3.3339 -1.0362 -2.5471
   43CHL1   C22 3164   3.907   4.703   7.806  0.1099  0.5285 -0.3349
   43CHL1  H22A 3165   3.884   4.811   7.809  0.4629  0.6045 -0.2235
   43CHL1  H22B 3166   3.812   4.646   7.815  0.5335 -0.2161 -0.4656
   43CHL1   C23 3167   3.999   4.666   7.931 -0.4610 -0.2732  0.2587
   43CHL1  H23A 3168   3.930   4.695   8.013 -2.8756 -0.7583 -1.4574
   43CHL1  H23B 3169   4.022   4.558   7.939  0.3787 -0.2011 -0.9601
   43CHL1   C24 3170   4.123   4.757   7.936  0.2005 -0.3295 -0.4106
   43CHL1  H24A 3171   4.193   4.726   7.856  1.7373 -2.2176  1.5366
   43CHL1  H24B 3172   4.082   4.859   7.915  0.3159 -0.4999 -1.5431
   43CHL1   C25 3173   4.199   4.753   8.069  0.5694 -0.2683 -0.1605
   43CHL1   H25 3174   4.127   4.804   8.137 -0.6751 -0.1834 -1.5159
   43CHL1   C26 3175   4.229   4.615   8.126 -0.1023 -0.2785 -0.3358
   43CHL1  H26A 3176   4.286   4.617   8.221  0.8081  2.1342 -0.8366
   43CHL1  H26B 3177   4.132   4.566   8.146 -0.1986  0.0775  0.0731
   43CHL1  H26C 3178   4.294   4.558   8.056  1.4726 -1.0369  1.6622
   43CHL1   C27 3179   4.324   4.840   8.063  0.5689  0.0699  0.4366
   43CHL1  H27A 3180   4.407   4.786   8.013 -1.2429 -1.0507 -1.5153
   43CHL1  H27B 3181   4.323   4.936   8.007 -0.9593  0.4505  1.0826
   43CHL1  H27C 3182   4.353   4.874   8.165 -1.4057  2.0089  0.4149
   44CHL1    C3 3183   6.497   1.877   6.786 -0.1782  0.4446  0.2226
   44CHL1    H3 3184   6.466   1.983   6.776 -0.2299  0.4049 -0.0565
   44CHL1    O3 3185   6.473   1.819   6.659 -0.0454 -0.1983  0.4740
   44CHL1   H3' 3186   6.381   1.791   6.658  0.3231 -1.4434  0.7225
   44CHL1    C4 3187   6.652   1.877   6.804  0.0132 -0.3107 -0.8578
   44CHL1   H4A 3188   6.685   1.774   6.778 -1.2194 -0.6083 -1.3119
   44CHL1   H4B 3189   6.717   1.937   6.736 -0.8644  0.5088 -0.9926
   44CHL1    C5 3190   6.690   1.902   6.949  0.5766 -0.5908  0.3827
   44CHL1    C6 3191   6.789   1.992   6.976  0.7635  0.2534  0.3493
   44CHL1    H6 3192   6.839   2.034   6.888 -1.0624  1.1897 -0.3070
   44CHL1    C7 3193   6.838   2.017   7.116 -0.6607  0.2847  0.2561
   44CHL1   H7A 3194   6.949   2.021   7.107 -0.7589  1.2065 -0.7209
   44CHL1   H7B 3195   6.809   2.117   7.155  0.8905  1.5080 -1.5603
   44CHL1    C8 3196   6.799   1.905   7.217  0.0222  0.3407  0.2872
   44CHL1    H8 3197   6.869   1.821   7.198 -1.0091 -0.1720 -1.4248
   44CHL1   C14 3198   6.811   1.967   7.350  0.9517  0.4816 -0.4345
   44CHL1   H14 3199   6.729   2.043   7.351 -0.9615 -1.4941 -0.7176
   44CHL1   C15 3200   6.935   2.040   7.399 -0.4245  0.0735 -0.0476
   44CHL1  H15A 3201   7.026   1.981   7.375 -1.1378 -0.8303 -0.6152
   44CHL1  H15B 3202   6.945   2.141   7.352 -0.7134  0.3651  0.5031
   44CHL1   C16 3203   6.923   2.057   7.550 -0.2871  0.1074  0.0832
   44CHL1  H16A 3204   7.016   2.023   7.600 -1.6310 -1.8723  1.4224
   44CHL1  H16B 3205   6.895   2.160   7.580  1.2444  0.6029 -0.1389
   44CHL1   C17 3206   6.814   1.956   7.589  0.1301  0.1301 -0.5680
   44CHL1   H17 3207   6.724   2.019   7.608  0.3265 -0.1178  1.2937
   44CHL1   C13 3208   6.780   1.869   7.467  0.2709 -0.0410  0.4124
   44CHL1   C18 3209   6.873   1.748   7.457 -0.2000  0.0182 -0.0033
   44CHL1  H18A 3210   6.845   1.695   7.364 -0.8359  0.9155 -0.3458
   44CHL1  H18B 3211   6.977   1.787   7.452 -0.2451  0.3585  1.2890
   44CHL1  H18C 3212   6.861   1.670   7.535 -0.3689  0.3865  0.3411
   44CHL1   C12 3213   6.634   1.828   7.452 -0.7749  0.0584  0.9842
   44CHL1  H12A 3214   6.615   1.741   7.519  0.0495 -1.5212 -0.7474
   44CHL1  H12B 3215   6.564   1.911   7.472 -0.1430  0.2519  2.5302
   44CHL1   C11 3216   6.595   1.778   7.314  0.1786 -0.6956  0.8574
   44CHL1  H11A 3217   6.637   1.677   7.301 -0.5942 -0.9386  0.1402
   44CHL1  H11B 3218   6.487   1.768   7.288  0.6786 -1.5798 -1.0634
   44CHL1    C9 3219   6.652   1.868   7.196  0.5263  0.2095 -0.4182
   44CHL1    H9 3220   6.596   1.965   7.201 -0.5851 -0.3798 -1.0305
   44CHL1   C10 3221   6.611   1.823   7.048  0.1606  0.0415 -0.1163
   44CHL1   C19 3222   6.644   1.674   7.033  0.6339 -0.0198 -0.4565
   44CHL1  H19A 3223   6.606   1.634   6.936 -1.0475 -0.6570  0.4214
   44CHL1  H19B 3224   6.754   1.660   7.034  0.6446  0.0569 -0.5266
   44CHL1  H19C 3225   6.595   1.620   7.117  0.2842 -0.0066 -0.6504
   44CHL1    C1 3226   6.458   1.819   7.030 -0.0062 -0.2645 -0.9762
   44CHL1   H1A 3227   6.405   1.746   7.095 -3.4463  1.8439 -1.1523
   44CHL1   H1B 3228   6.422   1.918   7.064  0.4317 -0.0581 -1.1097
   44CHL1    C2 3229   6.413   1.795   6.888 -0.5257 -0.2638 -0.4193
   44CHL1   H2A 3230   6.304   1.807   6.870 -0.7473  0.0977  1.0138
   44CHL1   H2B 3231   6.430   1.690   6.858  1.0224 -0.4863  1.0985
   44CHL1   C20 3232   6.829   1.899   7.732  0.1063 -0.1823 -0.2253
   44CHL1   H20 3233   6.926   1.845   7.737  0.3795  0.2836 -0.4090
   44CHL1   C21 3234   6.713   1.801   7.754 -0.5197  0.2078 -0.0316
   44CHL1  H21A 3235   6.620   1.853   7.722 -1.1796 -1.1449 -0.4267
   44CHL1  H21B 3236   6.703   1.769   7.860 -0.0224  3.8928  1.2683
   44CHL1  H21C 3237   6.740   1.707   7.701  1.0917  1.5511 -1.7380
   44CHL1   C22 3238   6.830   2.012   7.831 -0.2691 -0.1647 -0.1681
   44CHL1  H22A 3239   6.923   2.071   7.812 -1.1789  1.2572 -0.3097
   44CHL1  H22B 3240   6.750   2.089   7.831  0.4160  0.6326 -2.0853
   44CHL1   C23 3241   6.846   1.960   7.974  0.0086 -0.3831 -0.2711
   44CHL1  H23A 3242   6.747   1.916   8.001 -0.0764 -0.2543 -0.3750
   44CHL1  H23B 3243   6.916   1.875   7.988 -0.8442 -1.0583  0.0783
   44CHL1   C24 3244   6.877   2.069   8.078  0.1958 -0.1001 -0.1279
   44CHL1  H24A 3245   6.987   2.083   8.067  0.0950  0.9745  0.1960
   44CHL1  H24B 3246   6.828   2.167   8.065 -0.8887 -0.5525  0.4686
   44CHL1   C25 3247   6.851   2.017   8.222 -0.3441 -0.4638 -0.7701
   44CHL1   H25 3248   6.741   2.007   8.227 -0.3603 -1.0953 -2.0272
   44CHL1   C26 3249   6.936   1.889   8.256  1.1986 -0.2495  1.2973
   44CHL1  H26A 3250   6.898   1.799   8.203  0.5721  0.9894 -0.4706
   44CHL1  H26B 3251   7.040   1.915   8.225  1.1268 -0.7351  0.6136
   44CHL1  H26C 3252   6.922   1.879   8.365  0.6982 -0.8573  1.1803
   44CHL1   C27 3253   6.890   2.121   8.329  0.0350  0.4651  0.4087
   44CHL1  H27A 3254   6.999   2.138   8.330  0.3120 -0.8608 -1.3560
   44CHL1  H27B 3255   6.846   2.219   8.302  1.1874  0.3316 -2.1876
   44CHL1  H27C 3256   6.859   2.089   8.431  0.4061 -0.8467  0.1337
   45CHL1    C3 3257   0.195   5.351   6.958  0.5071 -0.4504 -0.4970
   45CHL1    H3 3258   0.258   5.260   6.971 -1.2104 -2.1230 -3.0774
   45CHL1    O3 3259   0.179   5.371   6.820  0.0711 -0.6263  1.0204
   45CHL1   H3' 3260   0.266   5.388   6.783  0.0116 -1.9479  0.2312
   45CHL1    C4 3261   0.057   5.333   7.029 -0.3623  0.9878  0.3019
   45CHL1   H4A 3262  -0.013   5.415   7.001 -0.5390  0.5160 -0.6873
   45CHL1   H4B 3263   0.008   5.239   6.996 -0.1036  1.3463 -1.1321
   45CHL1    C5 3264   0.073   5.321   7.180  0.6371  0.6178 -0.2588
   45CHL1    C6 3265   0.041   5.214   7.253  0.4226 -0.5493  0.1663
   45CHL1    H6 3266  -0.004   5.125   7.207 -0.4995  0.4370 -0.8926
   45CHL1    C7 3267   0.049   5.203   7.402 -0.4802 -0.3013 -0.2546
   45CHL1   H7A 3268  -0.037   5.157   7.454  0.4936 -0.4963  1.2467
   45CHL1   H7B 3269   0.136   5.138   7.428  1.0290  1.7433  0.0831
   45CHL1    C8 3270   0.068   5.344   7.466 -0.6687 -0.0050 -0.2721
   45CHL1    H8 3271  -0.021   5.409   7.450 -0.0507  0.6450 -1.2206
   45CHL1   C14 3272   0.099   5.329   7.617  0.1913  0.5923 -0.2132
   45CHL1   H14 3273   0.177   5.250   7.612  1.3579  1.6663  0.4079
   45CHL1   C15 3274  -0.010   5.278   7.713  0.8107  0.3932 -0.6216
   45CHL1  H15A 3275  -0.106   5.335   7.706  0.7289  0.4224  0.5379
   45CHL1  H15B 3276  -0.030   5.169   7.705 -2.1407  0.6763  1.2579
   45CHL1   C16 3277   0.042   5.309   7.857  0.2201 -0.2042  0.7264
   45CHL1  H16A 3278  -0.038   5.363   7.913 -2.3785 -1.3382 -1.6289
   45CHL1  H16B 3279   0.059   5.208   7.900 -0.5288 -0.4054  0.5696
   45CHL1   C17 3280   0.176   5.384   7.831  0.6525 -0.7469 -0.3276
   45CHL1   H17 3281   0.250   5.302   7.821  2.5813  0.9560 -0.6011
   45CHL1   C13 3282   0.158   5.449   7.695 -0.4137  0.4777  0.7200
   45CHL1   C18 3283   0.054   5.562   7.706  0.1667 -0.4255  0.0896
   45CHL1  H18A 3284  -0.011   5.578   7.618 -1.9576  3.0375  2.0667
   45CHL1  H18B 3285  -0.014   5.542   7.791 -1.1807 -1.3477 -1.1487
   45CHL1  H18C 3286   0.109   5.656   7.729  2.1741 -1.0637 -1.7595
   45CHL1   C12 3287   0.284   5.496   7.617 -0.8335 -0.0711  0.0851
   45CHL1  H12A 3288   0.318   5.594   7.658  2.7191 -0.4066 -1.7699
   45CHL1  H12B 3289   0.357   5.415   7.634 -1.5141 -1.0372 -1.4226
   45CHL1   C11 3290   0.247   5.522   7.472 -0.0117  0.3617  0.8187
   45CHL1  H11A 3291   0.177   5.609   7.473  0.8340  1.1580 -1.6108
   45CHL1  H11B 3292   0.344   5.544   7.423 -0.0231 -1.4604 -0.0956
   45CHL1    C9 3293   0.187   5.405   7.397  0.9617  0.5417 -0.0011
   45CHL1    H9 3294   0.257   5.319   7.407 -0.3473 -0.4354  1.0625
   45CHL1   C10 3295   0.146   5.435   7.251  0.2061  0.2749 -0.5277
   45CHL1   C19 3296   0.059   5.563   7.242 -0.5583 -0.2330 -0.2070
   45CHL1  H19A 3297   0.118   5.653   7.267  0.3924 -0.8064 -0.3604
   45CHL1  H19B 3298   0.018   5.594   7.143  1.7985 -0.9943 -1.4853
   45CHL1  H19C 3299  -0.036   5.570   7.300 -1.4936 -0.0669 -1.7000
   45CHL1    C1 3300   0.283   5.454   7.169  0.8692 -0.6956  0.0348
   45CHL1   H1A 3301   0.347   5.538   7.204  1.0803 -0.8701  0.0683
   45CHL1   H1B 3302   0.335   5.358   7.188 -1.0864 -1.5913  1.0609
   45CHL1    C2 3303   0.269   5.470   7.020 -0.3299 -0.2801 -0.0164
   45CHL1   H2A 3304   0.362   5.487   6.962 -2.0239  1.8218 -2.3487
   45CHL1   H2B 3305   0.212   5.564   7.003  1.6402  0.6354 -2.1238
   45CHL1   C20 3306   0.204   5.468   7.956 -0.1018 -0.3919  0.5305
   45CHL1   H20 3307   0.112   5.530   7.966 -0.7745 -0.5193 -3.2275
   45CHL1   C21 3308   0.323   5.562   7.926  0.3337 -0.5230 -0.3893
   45CHL1  H21A 3309   0.352   5.607   8.023  0.6658 -1.1120 -0.2103
   45CHL1  H21B 3310   0.277   5.645   7.869  1.8181  0.1960 -0.5783
   45CHL1  H21C 3311   0.414   5.514   7.884  1.5709  2.2262 -1.0753
   45CHL1   C22 3312   0.235   5.384   8.080 -0.2604 -0.9751 -0.6031
   45CHL1  H22A 3313   0.171   5.292   8.082 -0.2915 -0.9790 -1.4256
   45CHL1  H22B 3314   0.336   5.340   8.069  0.8428  1.2521  0.2609
   45CHL1   C23 3315   0.206   5.461   8.207  0.2352 -0.4817 -0.3318
   45CHL1  H23A 3316   0.256   5.560   8.208 -1.4128  0.4614 -2.6037
   45CHL1  H23B 3317   0.097   5.472   8.227  0.3118 -1.6035  0.9031
   45CHL1   C24 3318   0.253   5.382   8.327  0.5809 -0.7858 -0.0941
   45CHL1  H24A 3319   0.186   5.294   8.340 -0.5911  0.0900 -0.1065
   45CHL1  H24B 3320   0.356   5.348   8.301  0.0818 -1.4357 -1.2781
   45CHL1   C25 3321   0.247   5.454   8.469 -0.1144  0.7425  0.5377
   45CHL1   H25 3322   0.309   5.547   8.461 -1.2655  1.4268 -1.0389
   45CHL1   C26 3323   0.105   5.494   8.509 -0.4194  0.5228  0.0384
   45CHL1  H26A 3324   0.070   5.568   8.433 -0.7304  0.4512  0.1144
   45CHL1  H26B 3325   0.043   5.403   8.513  0.9377 -0.5471 -1.6296
   45CHL1  H26C 3326   0.112   5.549   8.605 -0.6861 -2.8350  2.1024
   45CHL1   C27 3327   0.311   5.373   8.579  0.7850  0.0164  0.0666
   45CHL1  H27A 3328   0.414   5.336   8.556  1.9636  3.9713 -1.8657
   45CHL1  H27B 3329   0.312   5.428   8.675 -0.5276  0.8125 -0.3489
   45CHL1  H27C 3330   0.251   5.281   8.597  2.0060 -0.9417 -0.5987
   46CHL1    C3 3331   1.557   0.047   6.944 -0.2214 -1.1889  0.0079
   46CHL1    H3 3332   1.461   0.102   6.936  1.3564  2.2540  2.5459
   46CHL1    O3 3333   1.588   0.023   6.805 -0.4752  0.2423 -0.4745
   46CHL1   H3' 3334   1.651  -0.049   6.797  0.7927  1.3525 -0.8051
   46CHL1    C4 3335   1.663   0.140   7.002  0.4601 -0.0040 -0.0096
   46CHL1   H4A 3336   1.765   0.097   6.991 -0.0075 -1.6303  1.5745
   46CHL1   H4B 3337   1.651   0.240   6.956 -1.6182  0.1662  0.7768
   46CHL1    C5 3338   1.635   0.163   7.154 -0.6765 -0.1788 -0.2945
   46CHL1    C6 3339   1.617   0.280   7.217  0.8426  0.2059 -0.3102
   46CHL1    H6 3340   1.616   0.374   7.160 -0.9387  1.2387  1.3110
   46CHL1    C7 3341   1.590   0.282   7.369 -0.4898  0.6392  0.9802
   46CHL1   H7A 3342   1.636   0.375   7.409  1.9400  1.2463 -2.7378
   46CHL1   H7B 3343   1.479   0.297   7.368 -0.4764  0.9335 -1.1942
   46CHL1    C8 3344   1.641   0.160   7.448  0.2020  0.1224  0.0652
   46CHL1    H8 3345   1.752   0.162   7.439  0.3813 -1.4280  1.4849
   46CHL1   C14 3346   1.593   0.169   7.601 -0.7855 -0.3336  0.3105
   46CHL1   H14 3347   1.483   0.178   7.588 -1.0927 -2.7314  0.7568
   46CHL1   C15 3348   1.644   0.281   7.695 -0.2391 -0.0871 -0.2315
   46CHL1  H15A 3349   1.754   0.297   7.695 -0.5414  2.5949 -0.3152
   46CHL1  H15B 3350   1.584   0.372   7.669 -1.2238 -1.1909 -2.0542
   46CHL1   C16 3351   1.603   0.232   7.838 -0.0520 -0.1906 -0.3898
   46CHL1  H16A 3352   1.694   0.248   7.899  0.6056 -1.2511 -1.0610
   46CHL1  H16B 3353   1.519   0.292   7.879 -0.2133 -0.7586  0.1090
   46CHL1   C17 3354   1.575   0.082   7.832 -0.2988  1.2801  0.2112
   46CHL1   H17 3355   1.466   0.065   7.838 -0.0682 -0.1622  0.5548
   46CHL1   C13 3356   1.620   0.038   7.690  0.1432 -0.2645 -1.1844
   46CHL1   C18 3357   1.774   0.020   7.697 -0.8370  0.5829 -0.9383
   46CHL1  H18A 3358   1.838   0.092   7.752  0.8731 -1.0533 -0.6860
   46CHL1  H18B 3359   1.789  -0.073   7.755  0.0985  2.3211  1.7839
   46CHL1  H18C 3360   1.816   0.004   7.595  0.3244 -0.5804 -0.3028
   46CHL1   C12 3361   1.535  -0.064   7.620  0.3476  0.4978  0.5326
   46CHL1  H12A 3362   1.540  -0.162   7.672 -3.4187 -1.0608 -1.6874
   46CHL1  H12B 3363   1.426  -0.043   7.611  0.7798  1.8603 -4.1353
   46CHL1   C11 3364   1.578  -0.080   7.470 -0.2250  0.2849 -0.5516
   46CHL1  H11A 3365   1.680  -0.121   7.481 -0.8219 -1.0795  0.1731
   46CHL1  H11B 3366   1.524  -0.164   7.421 -1.4600  0.2676  0.7744
   46CHL1    C9 3367   1.571   0.042   7.379  0.2628 -0.1509  0.3573
   46CHL1    H9 3368   1.465   0.073   7.367  0.2809  0.4690  1.6452
   46CHL1   C10 3369   1.629   0.025   7.233  0.3243  0.0120 -0.5321
   46CHL1   C19 3370   1.777  -0.034   7.236 -0.6157  0.0340  0.5401
   46CHL1  H19A 3371   1.848   0.042   7.273  0.5272 -0.6452 -0.1999
   46CHL1  H19B 3372   1.781  -0.125   7.298  1.4584 -1.6667 -1.8838
   46CHL1  H19C 3373   1.800  -0.079   7.137 -0.9753  1.5791 -0.2940
   46CHL1    C1 3374   1.529  -0.072   7.161  0.0071 -0.1007 -0.2227
   46CHL1   H1A 3375   1.521  -0.170   7.213 -0.5082  0.7147  1.2954
   46CHL1   H1B 3376   1.424  -0.040   7.175 -0.2749 -1.0248 -0.1771
   46CHL1    C2 3377   1.548  -0.088   7.011  0.0197  0.1018  0.7340
   46CHL1   H2A 3378   1.457  -0.141   6.975 -1.1427  0.7497  2.5539
   46CHL1   H2B 3379   1.637  -0.150   6.990 -1.9219 -2.0809 -1.6636
   46CHL1   C20 3380   1.642   0.004   7.948 -0.2985  0.4606 -1.0387
   46CHL1   H20 3381   1.753   0.010   7.945 -0.3815  3.6038 -1.5696
   46CHL1   C21 3382   1.599  -0.143   7.934 -0.3075  0.2427  0.0616
   46CHL1  H21A 3383   1.626  -0.207   8.021  0.0143  0.6110  0.2394
   46CHL1  H21B 3384   1.660  -0.191   7.855  2.6474 -0.5646  2.6205
   46CHL1  H21C 3385   1.491  -0.143   7.910 -0.2156 -1.1247 -0.4510
   46CHL1   C22 3386   1.604   0.058   8.091 -0.6861  0.0122 -0.0862
   46CHL1  H22A 3387   1.622   0.168   8.093 -0.8771  0.0405  1.0654
   46CHL1  H22B 3388   1.498   0.037   8.119 -0.8139 -0.7555 -1.1044
   46CHL1   C23 3389   1.691   0.010   8.209 -0.1623 -0.0656 -0.1003
   46CHL1  H23A 3390   1.675  -0.100   8.211  1.7077 -0.3807 -0.6649
   46CHL1  H23B 3391   1.792   0.041   8.174 -1.0266  1.4696 -1.3665
   46CHL1   C24 3392   1.661   0.072   8.338  0.2623  0.7035  0.5674
   46CHL1  H24A 3393   1.680   0.181   8.322 -1.8418  1.1178  0.5648
   46CHL1  H24B 3394   1.554   0.081   8.367  0.3682 -1.4018  1.8341
   46CHL1   C25 3395   1.744   0.018   8.455 -0.3243 -1.3785 -0.9096
   46CHL1   H25 3396   1.849   0.019   8.418  1.4104  0.8519  3.3154
   46CHL1   C26 3397   1.732   0.116   8.574 -0.3466  0.3007 -0.3640
   46CHL1  H26A 3398   1.630   0.105   8.618 -0.3838 -2.2671 -0.8936
   46CHL1  H26B 3399   1.808   0.103   8.654  1.0575 -0.2992 -1.7335
   46CHL1  H26C 3400   1.732   0.222   8.541 -0.6034  0.5436  0.3880
   46CHL1   C27 3401   1.701  -0.121   8.491 -1.0178  0.2872 -0.3506
   46CHL1  H27A 3402   1.721  -0.178   8.398 -0.0289 -0.5165  0.3299
   46CHL1  H27B 3403   1.749  -0.170   8.578 -1.9597 -1.3043 -0.6873
   46CHL1  H27C 3404   1.593  -0.122   8.517 -0.7087 -1.7771  1.0946
   47CHL1    C3 3405   1.321   2.294   6.847  0.1628 -0.4877  0.1077
   47CHL1    H3 3406   1.220   2.340   6.852 -0.1659 -1.2674  1.0082
   47CHL1    O3 3407   1.349   2.257   6.717 -0.3573  0.0058  0.6618
   47CHL1   H3' 3408   1.310   2.316   6.652 -1.6277 -2.2145 -0.7319
   47CHL1    C4 3409   1.425   2.398   6.894  0.3356 -0.6702  0.0373
   47CHL1   H4A 3410   1.527   2.352   6.892  0.0502 -1.8391  3.8834
   47CHL1   H4B 3411   1.426   2.494   6.838 -0.3416  1.3197  3.1972
   47CHL1    C5 3412   1.397   2.437   7.038  0.2955 -0.0019 -0.5363
   47CHL1    C6 3413   1.390   2.569   7.067  0.1271 -1.6835 -0.5877
   47CHL1    H6 3414   1.410   2.631   6.978  0.3080  0.1180  0.6465
   47CHL1    C7 3415   1.368   2.628   7.204 -0.6323  0.2178 -1.0166
   47CHL1   H7A 3416   1.433   2.712   7.235 -1.4750  1.0791 -1.5230
   47CHL1   H7B 3417   1.269   2.674   7.228 -0.7868  0.1276 -1.4768
   47CHL1    C8 3418   1.391   2.510   7.313 -0.1410  0.1221 -0.2825
   47CHL1    H8 3419   1.500   2.496   7.321 -0.2570 -1.5949 -1.3184
   47CHL1   C14 3420   1.351   2.559   7.452  0.8237  0.1043 -0.0941
   47CHL1   H14 3421   1.242   2.574   7.437  1.1662  0.4933 -2.7440
   47CHL1   C15 3422   1.402   2.697   7.499  0.0148 -0.0091 -0.5470
   47CHL1  H15A 3423   1.511   2.689   7.481  0.0033  0.3636 -0.7907
   47CHL1  H15B 3424   1.351   2.771   7.435  0.6314 -1.2061 -2.4939
   47CHL1   C16 3425   1.383   2.690   7.655  0.1020 -0.2255  0.0464
   47CHL1  H16A 3426   1.472   2.715   7.716 -1.3207 -1.3721  2.7629
   47CHL1  H16B 3427   1.298   2.754   7.687  0.1632 -0.9150  1.6547
   47CHL1   C17 3428   1.330   2.544   7.688  0.1028 -0.5676  0.7287
   47CHL1   H17 3429   1.219   2.546   7.693  0.1189 -0.8571  1.3342
   47CHL1   C13 3430   1.365   2.456   7.569 -0.1598  0.3303  0.5435
   47CHL1   C18 3431   1.512   2.417   7.577  0.2098  0.7139  0.1993
   47CHL1  H18A 3432   1.523   2.328   7.642 -2.5365 -0.2646 -0.5501
   47CHL1  H18B 3433   1.558   2.381   7.482 -0.8558 -0.3847  0.0857
   47CHL1  H18C 3434   1.573   2.501   7.617 -0.6821  2.2773 -1.5409
   47CHL1   C12 3435   1.281   2.327   7.531 -0.0147 -0.5924 -0.8683
   47CHL1  H12A 3436   1.277   2.249   7.611 -1.5173 -1.3373 -1.6280
   47CHL1  H12B 3437   1.174   2.356   7.524 -0.4811 -2.4772 -2.2120
   47CHL1   C11 3438   1.335   2.272   7.401 -0.2388 -0.2528 -0.4275
   47CHL1  H11A 3439   1.438   2.232   7.409 -1.3742 -3.1267  1.6297
   47CHL1  H11B 3440   1.263   2.194   7.370 -1.4713  0.7692 -0.2437
   47CHL1    C9 3441   1.328   2.374   7.277 -0.4814  0.1928 -0.2145
   47CHL1    H9 3442   1.221   2.403   7.266  0.1077  2.2698 -0.8195
   47CHL1   C10 3443   1.378   2.321   7.137 -0.5531  0.1819 -0.3885
   47CHL1   C19 3444   1.523   2.264   7.153  0.6431 -0.1505  0.1139
   47CHL1  H19A 3445   1.531   2.183   7.228  0.1043 -0.1016  0.2278
   47CHL1  H19B 3446   1.566   2.222   7.059  0.9378  0.1114  0.1279
   47CHL1  H19C 3447   1.589   2.352   7.173 -3.1177  3.5923 -2.2351
   47CHL1    C1 3448   1.278   2.217   7.081 -0.1057 -0.2304  0.5554
   47CHL1   H1A 3449   1.284   2.127   7.147  1.2772 -0.4390  0.1960
   47CHL1   H1B 3450   1.173   2.252   7.077 -0.7512 -2.1313 -0.1442
   47CHL1    C2 3451   1.316   2.175   6.939 -0.2553  0.3123  0.6466
   47CHL1   H2A 3452   1.242   2.095   6.916 -0.2049 -0.0312  1.6513
   47CHL1   H2B 3453   1.414   2.122   6.946  0.6443  1.9807  1.0331
   47CHL1   C20 3454   1.375   2.506   7.833  0.7421 -0.2331  0.1727
   47CHL1   H20 3455   1.485   2.498   7.836  0.7824  0.0795 -0.3956
   47CHL1   C21 3456   1.331   2.360   7.872  0.0368  0.1312  0.7394
   47CHL1  H21A 3457   1.381   2.282   7.810  0.3940  0.5087  0.5472
   47CHL1  H21B 3458   1.225   2.330   7.860  0.1657  0.6318 -3.0468
   47CHL1  H21C 3459   1.349   2.339   7.979 -2.2508 -0.8989  0.9634
   47CHL1   C22 3460   1.329   2.612   7.942 -0.3908  0.3600 -0.1980
   47CHL1  H22A 3461   1.351   2.715   7.904 -2.1960  1.2066  0.9244
   47CHL1  H22B 3462   1.223   2.602   7.972 -0.2044  1.6151  1.0041
   47CHL1   C23 3463   1.400   2.602   8.082 -0.4038 -0.2443 -0.0832
   47CHL1  H23A 3464   1.391   2.500   8.123 -2.5365  0.7885  2.2337
   47CHL1  H23B 3465   1.509   2.608   8.061 -0.2783 -1.1535  0.2552
   47CHL1   C24 3466   1.371   2.722   8.176 -0.0704 -0.3526  0.7680
   47CHL1  H24A 3467   1.369   2.814   8.114 -1.5865 -0.4678  0.6238
   47CHL1  H24B 3468   1.268   2.712   8.215 -0.2884  0.2722  0.3551
   47CHL1   C25 3469   1.463   2.738   8.290 -0.3958 -0.6701  0.2314
   47CHL1   H25 3470   1.476   2.642   8.345  2.4268 -0.5880 -0.1247
   47CHL1   C26 3471   1.615   2.780   8.246  0.2857  0.1655  0.2512
   47CHL1  H26A 3472   1.605   2.858   8.167 -0.5311  1.2691  1.4107
   47CHL1  H26B 3473   1.673   2.823   8.331  0.4445  0.5968 -0.0695
   47CHL1  H26C 3474   1.666   2.689   8.207 -1.6007 -1.1480  0.7359
   47CHL1   C27 3475   1.424   2.844   8.386 -0.3755 -0.7165 -0.0605
   47CHL1  H27A 3476   1.405   2.930   8.319  1.2428  1.0047  1.5516
   47CHL1  H27B 3477   1.328   2.817   8.434 -0.9693 -1.0852 -1.4188
   47CHL1  H27C 3478   1.504   2.874   8.456 -0.9401 -0.1299  0.3466
   48CHL1    C3 3479   4.017   4.064   6.492  0.7120  0.9229 -0.2505
   48CHL1    H3 3480   4.115   4.013   6.495 -0.7898 -2.1784  0.4656
   48CHL1    O3 3481   4.001   4.067   6.353  0.1444 -0.5147  0.0973
   48CHL1   H3' 3482   4.017   3.974   6.333  1.6726 -0.6256  1.5991
   48CHL1    C4 3483   3.914   3.964   6.554 -0.3805  0.3857  0.1590
   48CHL1   H4A 3484   3.812   4.001   6.528 -0.2692 -0.4967 -1.6783
   48CHL1   H4B 3485   3.912   3.867   6.501 -3.1449 -0.6870  2.0301
   48CHL1    C5 3486   3.934   3.943   6.702  0.2554 -0.0958 -0.1428
   48CHL1    C6 3487   3.944   3.826   6.763  0.4477  0.0322 -0.2793
   48CHL1    H6 3488   3.934   3.732   6.707  1.3363 -1.2390  1.5882
   48CHL1    C7 3489   3.957   3.807   6.907 -0.2193  0.4517 -0.7906
   48CHL1   H7A 3490   3.877   3.734   6.929 -0.5794  1.4637  1.5954
   48CHL1   H7B 3491   4.057   3.775   6.945 -0.9330  0.2891  1.0605
   48CHL1    C8 3492   3.933   3.935   6.992 -0.1137  0.4120 -0.4462
   48CHL1    H8 3493   3.823   3.938   7.006 -0.1012 -1.1965  0.2508
   48CHL1   C14 3494   4.002   3.918   7.129 -0.2658 -1.0028  0.4250
   48CHL1   H14 3495   4.112   3.920   7.109  0.0988  2.6658  1.8948
   48CHL1   C15 3496   3.978   3.791   7.200 -0.6762 -0.5252  0.8703
   48CHL1  H15A 3497   3.870   3.764   7.211 -0.8653  0.1666  0.8112
   48CHL1  H15B 3498   4.027   3.700   7.160 -0.0459 -0.3581  1.2501
   48CHL1   C16 3499   4.033   3.818   7.345 -0.5482 -0.6117  1.0044
   48CHL1  H16A 3500   3.951   3.792   7.416 -1.4830 -0.4719 -0.0017
   48CHL1  H16B 3501   4.121   3.756   7.371 -0.0551 -0.6638 -0.6959
   48CHL1   C17 3502   4.064   3.971   7.341 -0.1195 -0.7114 -0.6527
   48CHL1   H17 3503   4.171   3.980   7.311  0.6216 -1.5889  1.5205
   48CHL1   C13 3504   3.980   4.029   7.223 -0.2352 -0.3704 -0.1255
   48CHL1   C18 3505   3.834   4.038   7.279 -0.7896 -0.5791  0.6318
   48CHL1  H18A 3506   3.767   4.065   7.195  1.7825 -1.0078 -1.7100
   48CHL1  H18B 3507   3.807   3.940   7.324 -2.0805 -0.3116  0.4665
   48CHL1  H18C 3508   3.830   4.121   7.353 -1.7671 -1.7854  1.9773
   48CHL1   C12 3509   4.028   4.165   7.155  0.1585  0.8077  0.3839
   48CHL1  H12A 3510   3.991   4.249   7.218 -0.7166 -0.3095  1.3922
   48CHL1  H12B 3511   4.139   4.163   7.147  0.2291 -1.3736  1.2152
   48CHL1   C11 3512   3.972   4.182   7.015 -0.7832  0.4697  0.2957
   48CHL1  H11A 3513   3.861   4.195   7.018 -0.5940  2.3437  0.6843
   48CHL1  H11B 3514   4.022   4.276   6.985 -2.2249  1.3799  0.6147
   48CHL1    C9 3515   3.994   4.055   6.921 -0.1341 -0.1904  0.0060
   48CHL1    H9 3516   4.105   4.048   6.915  0.1360  2.0380  1.4843
   48CHL1   C10 3517   3.948   4.075   6.783  0.1082 -0.0870  0.1768
   48CHL1   C19 3518   3.801   4.124   6.782  0.1199 -0.0767 -0.4460
   48CHL1  H19A 3519   3.738   4.077   6.860 -0.9772  2.0963  0.0328
   48CHL1  H19B 3520   3.799   4.232   6.809  1.7592 -0.0108 -0.4964
   48CHL1  H19C 3521   3.752   4.113   6.683  0.6709 -0.0896 -0.7201
   48CHL1    C1 3522   4.041   4.174   6.709  0.7805 -0.2817 -0.4230
   48CHL1   H1A 3523   4.049   4.272   6.760 -0.8342 -0.4603  0.2111
   48CHL1   H1B 3524   4.147   4.140   6.705  0.8797 -0.3888  1.8463
   48CHL1    C2 3525   4.018   4.202   6.562  0.0094  0.1869 -0.0913
   48CHL1   H2A 3526   4.098   4.272   6.529  0.2532 -0.3084 -0.5713
   48CHL1   H2B 3527   3.929   4.269   6.562  0.2792  0.5654 -0.8885
   48CHL1   C20 3528   4.055   4.043   7.478  0.3170  0.0580  0.3107
   48CHL1   H20 3529   3.950   4.022   7.509  0.0287  0.9742 -0.0313
   48CHL1   C21 3530   4.076   4.192   7.469  0.0497  0.0195 -0.8711
   48CHL1  H21A 3531   3.991   4.251   7.429 -0.4193  0.7190  1.0708
   48CHL1  H21B 3532   4.176   4.218   7.429  2.0588 -2.9151  1.7721
   48CHL1  H21C 3533   4.080   4.227   7.574 -0.9152 -1.5498 -0.2757
   48CHL1   C22 3534   4.153   3.976   7.580 -0.3126  0.0847  0.2594
   48CHL1  H22A 3535   4.147   3.865   7.580 -1.3433  0.1102 -0.8466
   48CHL1  H22B 3536   4.258   4.004   7.559 -0.4413 -0.3472 -1.0591
   48CHL1   C23 3537   4.117   4.011   7.730 -0.3090  0.5176 -0.3679
   48CHL1  H23A 3538   4.188   3.958   7.797  0.9065  0.8104 -1.3731
   48CHL1  H23B 3539   4.132   4.121   7.736 -0.7940  0.5357  0.8815
   48CHL1   C24 3540   3.975   3.984   7.777  0.3391  0.4630 -0.1978
   48CHL1  H24A 3541   3.902   4.051   7.726  2.0993  0.8841 -2.3033
   48CHL1  H24B 3542   3.952   3.881   7.741 -0.7117  0.5058  0.3106
   48CHL1   C25 3543   3.943   3.991   7.931  0.8148 -0.4411 -0.1226
   48CHL1   H25 3544   3.841   3.952   7.952 -0.0392  1.6676 -0.0927
   48CHL1   C26 3545   4.052   3.921   8.012  0.6278 -0.2407 -0.2756
   48CHL1  H26A 3546   4.131   3.997   8.027 -1.6145  1.9256  1.3886
   48CHL1  H26B 3547   4.015   3.890   8.112 -0.3763 -0.4519 -0.6921
   48CHL1  H26C 3548   4.091   3.833   7.955 -1.0396  0.0102 -1.9247
   48CHL1   C27 3549   3.940   4.145   7.973  0.6292 -0.9105 -0.5882
   48CHL1  H27A 3550   4.034   4.200   7.950  1.2023 -2.2523 -1.6074
   48CHL1  H27B 3551   3.866   4.203   7.914  1.7225  0.3287 -0.7936
   48CHL1  H27C 3552   3.913   4.164   8.079  0.6673 -0.8506 -0.5893
   49CHL1    C3 3553   3.048   2.515   6.580 -0.3308  0.1189 -0.0824
   49CHL1    H3 3554   3.063   2.625   6.588  0.6758 -0.0836  1.1899
   49CHL1    O3 3555   3.013   2.476   6.449  0.3206  0.3002 -0.0051
   49CHL1   H3' 3556   3.000   2.381   6.442 -0.3720  0.4309 -0.5913
   49CHL1    C4 3557   3.183   2.443   6.620 -0.4919  0.2798 -0.1238
   49CHL1   H4A 3558   3.155   2.335   6.617  0.8140 -0.1210  1.0921
   49CHL1   H4B 3559   3.264   2.466   6.548 -1.6604  0.9927 -1.2642
   49CHL1    C5 3560   3.228   2.481   6.761 -0.6961  0.7398 -0.0344
   49CHL1    C6 3561   3.347   2.529   6.781  0.2982 -0.2012  0.3167
   49CHL1    H6 3562   3.414   2.531   6.694 -0.8191 -4.5428 -0.8712
   49CHL1    C7 3563   3.402   2.570   6.916  0.3229 -0.5910 -0.4744
   49CHL1   H7A 3564   3.494   2.508   6.923  0.3581 -0.5290 -0.3894
   49CHL1   H7B 3565   3.426   2.679   6.912 -2.4131  0.0747 -3.6759
   49CHL1    C8 3566   3.308   2.532   7.036  0.3717 -0.0832  0.0879
   49CHL1    H8 3567   3.318   2.422   7.051 -0.6928 -0.2432 -0.2886
   49CHL1   C14 3568   3.337   2.599   7.166 -0.2805 -0.0096 -0.3448
   49CHL1   H14 3569   3.326   2.708   7.148 -1.6261 -0.2586 -1.2288
   49CHL1   C15 3570   3.485   2.598   7.207 -0.5469 -0.7744  0.4830
   49CHL1  H15A 3571   3.521   2.493   7.207  0.7098 -0.3532  0.7351
   49CHL1  H15B 3572   3.551   2.659   7.143  0.0668 -1.7756  0.1318
   49CHL1   C16 3573   3.477   2.646   7.353 -0.3907  0.1804  0.3434
   49CHL1  H16A 3574   3.541   2.579   7.414 -0.4699  0.7043  1.0126
   49CHL1  H16B 3575   3.511   2.751   7.363 -0.8813  0.2263  1.8114
   49CHL1   C17 3576   3.328   2.642   7.397 -0.4208  0.1102 -0.3639
   49CHL1   H17 3577   3.299   2.748   7.379  4.0472  1.2157 -2.6772
   49CHL1   C13 3578   3.256   2.559   7.284  0.8551  0.0356 -0.7818
   49CHL1   C18 3579   3.275   2.411   7.318 -0.2543  0.2021 -0.0687
   49CHL1  H18A 3580   3.203   2.386   7.398  0.4026  4.9959  2.3828
   49CHL1  H18B 3581   3.249   2.352   7.228  0.0985 -0.1900  0.0820
   49CHL1  H18C 3582   3.379   2.386   7.348  0.2462 -1.5109 -2.8497
   49CHL1   C12 3583   3.105   2.590   7.256 -0.6157 -0.3473 -0.6172
   49CHL1  H12A 3584   3.051   2.552   7.345  3.2127 -0.1868  1.9884
   49CHL1  H12B 3585   3.081   2.698   7.256  0.7828  0.0179  1.3814
   49CHL1   C11 3586   3.065   2.521   7.126  0.1041  0.2757  0.2196
   49CHL1  H11A 3587   3.059   2.410   7.132  0.1958  0.3340  1.6461
   49CHL1  H11B 3588   2.961   2.555   7.106 -0.3155 -0.3623  1.2352
   49CHL1    C9 3589   3.159   2.551   7.002  0.3331 -0.6826 -0.0244
   49CHL1    H9 3590   3.149   2.655   6.966  1.7427 -1.1759 -2.0175
   49CHL1   C10 3591   3.119   2.472   6.875  0.2965 -0.2444 -0.0215
   49CHL1   C19 3592   3.106   2.317   6.910 -0.0737  0.4095 -0.1178
   49CHL1  H19A 3593   3.081   2.261   6.817 -0.0774  0.3405 -0.0748
   49CHL1  H19B 3594   3.201   2.273   6.946  1.5556  4.3634  1.0496
   49CHL1  H19C 3595   3.019   2.303   6.977 -0.6939  2.1301 -0.4991
   49CHL1    C1 3596   2.980   2.513   6.813 -0.0316  0.3642 -0.1174
   49CHL1   H1A 3597   2.898   2.472   6.876  0.7878  0.8001  1.2797
   49CHL1   H1B 3598   2.965   2.623   6.817  0.5941  0.4732 -0.6265
   49CHL1    C2 3599   2.939   2.462   6.669  0.3822  0.3257 -0.0306
   49CHL1   H2A 3600   2.845   2.515   6.644  0.0740  0.0114  0.4366
   49CHL1   H2B 3601   2.930   2.351   6.671 -1.3249  0.4538  1.0065
   49CHL1   C20 3602   3.313   2.620   7.555  0.6132  0.6992  0.4341
   49CHL1   H20 3603   3.354   2.517   7.563  2.1006  0.6736 -4.4147
   49CHL1   C21 3604   3.161   2.636   7.585 -0.3044  0.1127  0.3252
   49CHL1  H21A 3605   3.148   2.633   7.695 -0.4124  0.7858  0.3305
   49CHL1  H21B 3606   3.109   2.545   7.547  0.0054 -0.0604  0.3146
   49CHL1  H21C 3607   3.120   2.724   7.532 -0.1329 -0.7944 -1.3799
   49CHL1   C22 3608   3.398   2.716   7.638  0.4812  0.0205  0.5460
   49CHL1  H22A 3609   3.503   2.726   7.601  1.0436  0.4107  2.1569
   49CHL1  H22B 3610   3.351   2.817   7.640 -2.8333 -1.2433 -2.6694
   49CHL1   C23 3611   3.405   2.676   7.787 -0.2811  0.8144  0.2444
   49CHL1  H23A 3612   3.329   2.734   7.844 -2.6758 -0.7979 -1.1465
   49CHL1  H23B 3613   3.367   2.572   7.789  2.1828 -0.1771 -0.6770
   49CHL1   C24 3614   3.546   2.696   7.849 -0.2300  0.5473 -0.1588
   49CHL1  H24A 3615   3.543   2.642   7.947 -2.5442 -1.2710 -1.1300
   49CHL1  H24B 3616   3.618   2.654   7.777  2.0394  1.2408  1.6011
   49CHL1   C25 3617   3.606   2.837   7.862  0.5220 -0.9038 -0.2146
   49CHL1   H25 3618   3.603   2.882   7.761  0.5064  0.2854  0.2990
   49CHL1   C26 3619   3.534   2.921   7.968  0.0578 -0.3433 -0.0654
   49CHL1  H26A 3620   3.565   3.028   7.966  0.4421 -0.4268  0.9011
   49CHL1  H26B 3621   3.425   2.927   7.950  0.2386  1.1645 -0.8424
   49CHL1  H26C 3622   3.554   2.888   8.072 -1.3737 -0.8630  0.0628
   49CHL1   C27 3623   3.755   2.835   7.897 -0.3898 -0.3924 -0.1815
   49CHL1  H27A 3624   3.771   2.787   7.996  0.3927 -0.8876 -0.5457
   49CHL1  H27B 3625   3.812   2.785   7.816 -2.3554 -2.1978 -0.5523
   49CHL1  H27C 3626   3.787   2.942   7.898  2.1774 -1.1005  0.5827
   50CHL1    C3 3627   1.422   4.717   6.802 -0.4141  0.1563 -0.0169
   50CHL1    H3 3628   1.465   4.816   6.825  1.8714 -1.1281  1.6618
   50CHL1    O3 3629   1.406   4.712   6.660  0.0853 -0.0908  0.1343
   50CHL1   H3' 3630   1.405   4.618   6.639  0.0579  0.2025 -1.2710
   50CHL1    C4 3631   1.526   4.610   6.848 -0.5359 -0.1002  0.3048
   50CHL1   H4A 3632   1.492   4.506   6.830 -0.3018  0.0573 -1.2571
   50CHL1   H4B 3633   1.610   4.636   6.780  1.1022  0.6182  2.4832
   50CHL1    C5 3634   1.560   4.626   6.992 -0.4026  0.7363 -0.6990
   50CHL1    C6 3635   1.685   4.651   7.043 -0.2701 -0.3416  0.3586
   50CHL1    H6 3636   1.771   4.661   6.975  1.6783  0.0251  2.7729
   50CHL1    C7 3637   1.711   4.668   7.186  0.1209  0.5050  0.0828
   50CHL1   H7A 3638   1.810   4.622   7.204  0.8899  0.8008 -2.8072
   50CHL1   H7B 3639   1.720   4.779   7.196 -1.8850  0.6868  0.2633
   50CHL1    C8 3640   1.599   4.621   7.272 -0.1651 -0.0159 -1.4785
   50CHL1    H8 3641   1.618   4.511   7.279  1.7209  0.3627  1.8480
   50CHL1   C14 3642   1.621   4.668   7.418  0.2809 -0.5256  0.4886
   50CHL1   H14 3643   1.616   4.779   7.422  2.6248 -0.2583 -1.6209
   50CHL1   C15 3644   1.753   4.641   7.482 -0.4356 -0.5153 -0.4157
   50CHL1  H15A 3645   1.801   4.549   7.444 -1.3395 -1.7565  1.3284
   50CHL1  H15B 3646   1.816   4.733   7.481  0.9421 -1.2304  3.3232
   50CHL1   C16 3647   1.730   4.624   7.637 -0.0607  0.1128 -0.4911
   50CHL1  H16A 3648   1.752   4.520   7.666 -1.1803 -0.1640 -0.5670
   50CHL1  H16B 3649   1.795   4.690   7.698  0.7588 -1.5647  0.4925
   50CHL1   C17 3650   1.576   4.653   7.651  0.2955  0.0709  1.2454
   50CHL1   H17 3651   1.570   4.764   7.660 -1.5930 -0.0927  2.5456
   50CHL1   C13 3652   1.516   4.610   7.513 -0.0638 -0.0898 -0.8039
   50CHL1   C18 3653   1.514   4.456   7.517  0.8498 -0.4439 -0.3174
   50CHL1  H18A 3654   1.608   4.411   7.556  0.9602  1.2573  1.5481
   50CHL1  H18B 3655   1.436   4.417   7.586  1.4744 -2.5277 -0.7211
   50CHL1  H18C 3656   1.486   4.417   7.417  0.4589 -0.0916 -0.3514
   50CHL1   C12 3657   1.383   4.676   7.478  0.7233 -0.5951 -0.0190
   50CHL1  H12A 3658   1.299   4.649   7.545  1.5744 -2.3409  0.4155
   50CHL1  H12B 3659   1.393   4.786   7.490 -0.5589 -0.5449  0.7133
   50CHL1   C11 3660   1.345   4.645   7.323  0.1420 -0.1649 -0.1603
   50CHL1  H11A 3661   1.311   4.540   7.321 -2.0077  0.4656  0.2728
   50CHL1  H11B 3662   1.258   4.712   7.308  0.4292  0.4962  0.9566
   50CHL1    C9 3663   1.461   4.656   7.225 -0.1175 -0.0087  0.2202
   50CHL1    H9 3664   1.478   4.765   7.217 -1.2898  0.3462  1.9981
   50CHL1   C10 3665   1.433   4.605   7.082 -0.3302  0.6962 -0.0381
   50CHL1   C19 3666   1.396   4.453   7.094  0.0599 -0.2905 -0.4794
   50CHL1  H19A 3667   1.404   4.392   7.001  0.6381  0.2223 -0.7805
   50CHL1  H19B 3668   1.467   4.414   7.170 -0.9499 -0.9687  0.1364
   50CHL1  H19C 3669   1.291   4.448   7.128 -0.1776 -1.5608 -1.3341
   50CHL1    C1 3670   1.303   4.684   7.030 -0.4012 -0.2993 -0.1324
   50CHL1   H1A 3671   1.209   4.647   7.077 -1.4236  1.7604 -0.4382
   50CHL1   H1B 3672   1.325   4.787   7.065 -2.9951  0.4489 -0.4502
   50CHL1    C2 3673   1.293   4.679   6.877 -0.5827 -0.2790  0.1226
   50CHL1   H2A 3674   1.208   4.742   6.842  0.7690  0.0685 -2.8903
   50CHL1   H2B 3675   1.274   4.577   6.837  0.1949  0.7750 -3.2873
   50CHL1   C20 3676   1.504   4.606   7.776  0.4268 -0.2795  0.4015
   50CHL1   H20 3677   1.398   4.582   7.750  1.1278 -1.3577 -1.6766
   50CHL1   C21 3678   1.502   4.724   7.881 -0.3320  0.5821 -0.0443
   50CHL1  H21A 3679   1.459   4.684   7.975 -0.6668  0.3046 -0.3136
   50CHL1  H21B 3680   1.435   4.803   7.841 -2.4546 -1.1259 -0.0560
   50CHL1  H21C 3681   1.608   4.755   7.896 -0.4358  1.0956 -0.3410
   50CHL1   C22 3682   1.562   4.478   7.846  0.1800 -0.1298  0.4658
   50CHL1  H22A 3683   1.567   4.388   7.781 -0.6803  0.0504  0.1306
   50CHL1  H22B 3684   1.664   4.501   7.882 -0.1813  4.0761 -0.6924
   50CHL1   C23 3685   1.479   4.431   7.970  0.8460 -0.3140  0.5747
   50CHL1  H23A 3686   1.455   4.512   8.043  0.4791 -1.0376  1.2708
   50CHL1  H23B 3687   1.381   4.393   7.935  0.8349  2.2275 -2.5824
   50CHL1   C24 3688   1.547   4.324   8.061  0.2652 -0.5573 -0.5040
   50CHL1  H24A 3689   1.603   4.240   8.013  3.9248  1.9255 -0.9391
   50CHL1  H24B 3690   1.623   4.375   8.122  0.8569  1.0776 -2.5021
   50CHL1   C25 3691   1.436   4.260   8.156 -0.5189 -0.0455  0.0966
   50CHL1   H25 3692   1.360   4.212   8.091 -0.9271 -0.3733  0.8039
   50CHL1   C26 3693   1.502   4.149   8.240  0.0494  0.8197 -0.6880
   50CHL1  H26A 3694   1.425   4.075   8.269  1.1089  1.0011  3.2084
   50CHL1  H26B 3695   1.570   4.088   8.177 -0.3402  0.7861 -1.0795
   50CHL1  H26C 3696   1.557   4.196   8.325  0.0274 -1.1493  0.4784
   50CHL1   C27 3697   1.347   4.354   8.244 -0.0192 -0.0727  0.1515
   50CHL1  H27A 3698   1.288   4.280   8.302 -1.2550  0.5105 -0.3233
   50CHL1  H27B 3699   1.409   4.419   8.310  3.0314 -1.1227 -1.5386
   50CHL1  H27C 3700   1.288   4.415   8.172  1.6187  1.8611  0.3626
   51CHL1    C3 3701   1.594   5.279   6.894 -0.1819 -0.7577  0.3129
   51CHL1    H3 3702   1.691   5.224   6.895 -0.6979 -1.7970  3.0840
   51CHL1    O3 3703   1.543   5.293   6.764  0.0038 -0.1346 -0.3134
   51CHL1   H3' 3704   1.461   5.338   6.784 -0.3695 -1.5324  1.6249
   51CHL1    C4 3705   1.493   5.193   6.971  0.0195 -0.7824  0.4362
   51CHL1   H4A 3706   1.397   5.247   6.955  1.0663  1.2751  0.7793
   51CHL1   H4B 3707   1.482   5.094   6.921 -2.3771 -1.2815  1.8013
   51CHL1    C5 3708   1.526   5.186   7.116  0.2948  0.0219  0.6499
   51CHL1    C6 3709   1.545   5.067   7.169 -0.6202 -0.1865  0.4233
   51CHL1    H6 3710   1.525   4.974   7.115 -2.1117 -0.0337  0.6771
   51CHL1    C7 3711   1.572   5.047   7.317 -0.4559 -0.0466  0.6970
   51CHL1   H7A 3712   1.519   4.960   7.363 -1.8328  0.0441 -0.6552
   51CHL1   H7B 3713   1.678   5.019   7.333 -0.5705 -0.8453  0.1042
   51CHL1    C8 3714   1.550   5.170   7.394  0.1654 -0.2088 -0.5544
   51CHL1    H8 3715   1.440   5.182   7.402  0.2348  1.1127 -1.3771
   51CHL1   C14 3716   1.608   5.166   7.531 -0.0666  0.0557  0.2928
   51CHL1   H14 3717   1.719   5.155   7.525 -0.0178  0.8358 -0.5078
   51CHL1   C15 3718   1.568   5.042   7.612  0.5694  0.5726  0.1088
   51CHL1  H15A 3719   1.460   5.025   7.592  1.1215 -1.2322 -1.6501
   51CHL1  H15B 3720   1.619   4.948   7.583  0.8622  0.7832 -0.0615
   51CHL1   C16 3721   1.578   5.080   7.760 -0.5029 -0.8491  0.3894
   51CHL1  H16A 3722   1.484   5.065   7.816 -1.3850  0.2019 -0.7386
   51CHL1  H16B 3723   1.658   5.023   7.812 -1.8874 -0.4388  3.0928
   51CHL1   C17 3724   1.621   5.233   7.757  0.0760 -0.0787 -0.6043
   51CHL1   H17 3725   1.730   5.239   7.775  0.5445 -2.7175 -2.1625
   51CHL1   C13 3726   1.585   5.289   7.612  0.0990 -0.1554 -0.8185
   51CHL1   C18 3727   1.441   5.343   7.610 -0.2883  0.6354 -0.3052
   51CHL1  H18A 3728   1.371   5.259   7.628  1.8982 -1.4275 -0.8349
   51CHL1  H18B 3729   1.425   5.416   7.692  0.1926 -2.6668  2.9942
   51CHL1  H18C 3730   1.408   5.385   7.512  0.3123  1.6652 -0.0845
   51CHL1   C12 3731   1.687   5.392   7.552  0.3046  0.4480 -0.0009
   51CHL1  H12A 3732   1.682   5.486   7.611  1.8399  0.6422 -0.1154
   51CHL1  H12B 3733   1.794   5.362   7.556  0.1401  0.0067  1.5422
   51CHL1   C11 3734   1.658   5.412   7.405  0.0644  0.5363  0.7160
   51CHL1  H11A 3735   1.571   5.482   7.401 -1.0179 -0.5579  2.9854
   51CHL1  H11B 3736   1.747   5.452   7.351 -0.3543 -0.4862 -0.8195
   51CHL1    C9 3737   1.624   5.285   7.326 -0.0780 -0.4433  0.7386
   51CHL1    H9 3738   1.723   5.240   7.301  0.3760  0.4227  0.9348
   51CHL1   C10 3739   1.567   5.316   7.188  0.4451 -0.3985  0.0838
   51CHL1   C19 3740   1.433   5.392   7.206 -0.0825 -0.0994  1.0331
   51CHL1  H19A 3741   1.378   5.398   7.110  1.4599  1.7615  0.1792
   51CHL1  H19B 3742   1.381   5.333   7.284  0.8404 -3.0970 -0.4457
   51CHL1  H19C 3743   1.444   5.499   7.235 -1.5458 -0.0473  1.4360
   51CHL1    C1 3744   1.661   5.402   7.099  0.1588 -0.0662 -0.4433
   51CHL1   H1A 3745   1.670   5.500   7.150  1.2960 -0.1705 -0.4093
   51CHL1   H1B 3746   1.761   5.353   7.101  0.4048  0.4527  0.3449
   51CHL1    C2 3747   1.620   5.419   6.949 -0.0609  0.1711  0.9998
   51CHL1   H2A 3748   1.696   5.470   6.886  1.4633 -1.4960  1.4131
   51CHL1   H2B 3749   1.525   5.477   6.948  0.2669  0.7108  0.3538
   51CHL1   C20 3750   1.566   5.311   7.881  0.7188  0.5536 -0.3950
   51CHL1   H20 3751   1.455   5.305   7.872  0.8439 -2.6580 -0.6592
   51CHL1   C21 3752   1.613   5.453   7.901  0.1056 -0.1893  0.1629
   51CHL1  H21A 3753   1.568   5.517   7.980  0.6956  1.0067 -0.4413
   51CHL1  H21B 3754   1.595   5.508   7.806 -1.0502 -0.3283  0.2909
   51CHL1  H21C 3755   1.720   5.467   7.929  0.0178  3.4119 -0.7801
   51CHL1   C22 3756   1.610   5.236   8.011  0.4951 -0.4790 -0.3605
   51CHL1  H22A 3757   1.559   5.138   8.020 -2.6265  1.0962  0.3094
   51CHL1  H22B 3758   1.721   5.225   8.019  0.6106  0.5232 -0.3743
   51CHL1   C23 3759   1.565   5.297   8.141  0.4622 -0.9383  0.0824
   51CHL1  H23A 3760   1.607   5.397   8.166  2.1878 -1.7201  0.5122
   51CHL1  H23B 3761   1.455   5.297   8.152  0.6636  0.4786  3.4848
   51CHL1   C24 3762   1.624   5.211   8.256  0.2036  0.5131 -0.0162
   51CHL1  H24A 3763   1.578   5.115   8.225 -1.6025  1.2068  0.3888
   51CHL1  H24B 3764   1.735   5.199   8.251  0.1784 -0.6267  1.6685
   51CHL1   C25 3765   1.599   5.245   8.403 -0.0866  1.4924  0.8777
   51CHL1   H25 3766   1.620   5.353   8.419 -3.2948  2.4791 -0.6878
   51CHL1   C26 3767   1.456   5.218   8.436 -0.1465 -0.2653 -0.6170
   51CHL1  H26A 3768   1.395   5.296   8.386  0.0607 -0.3295 -0.9759
   51CHL1  H26B 3769   1.421   5.117   8.404 -1.6546 -0.7228  2.1866
   51CHL1  H26C 3770   1.430   5.223   8.544  0.5053 -2.6361 -0.2774
   51CHL1   C27 3771   1.687   5.158   8.497  0.1023  0.1120  0.1003
   51CHL1  H27A 3772   1.675   5.049   8.476  1.3189 -0.6455  2.8440
   51CHL1  H27B 3773   1.795   5.177   8.483 -0.0471  1.1772  0.3489
   51CHL1  H27C 3774   1.659   5.174   8.603 -1.1830 -0.2671 -0.1623
   52CHL1    C3 3775   3.487   0.463   6.801  0.4337  0.3129 -0.2401
   52CHL1    H3 3776   3.595   0.463   6.826  0.4297  1.6932 -0.1539
   52CHL1    O3 3777   3.475   0.453   6.657  0.5376  0.6224  0.3749
   52CHL1   H3' 3778   3.555   0.406   6.631 -0.5659 -0.3306 -1.4840
   52CHL1    C4 3779   3.414   0.347   6.876  0.1252 -0.0781  0.0797
   52CHL1   H4A 3780   3.306   0.365   6.862  0.8058  2.0139 -3.6129
   52CHL1   H4B 3781   3.462   0.253   6.841  1.5520  0.9123 -0.7125
   52CHL1    C5 3782   3.453   0.365   7.027 -0.6567  0.7184  0.4067
   52CHL1    C6 3783   3.528   0.265   7.091 -0.1450  0.3301 -0.6491
   52CHL1    H6 3784   3.556   0.174   7.035 -2.3371 -0.6598 -0.2556
   52CHL1    C7 3785   3.561   0.274   7.238  0.0944  0.9119  0.3152
   52CHL1   H7A 3786   3.537   0.176   7.284  3.0671 -0.5641 -1.0193
   52CHL1   H7B 3787   3.670   0.298   7.245  1.4304 -3.1547 -2.5880
   52CHL1    C8 3788   3.469   0.384   7.314 -0.5584  0.0834 -0.4149
   52CHL1    H8 3789   3.367   0.342   7.324 -1.3839  1.8504 -0.9999
   52CHL1   C14 3790   3.528   0.414   7.454 -0.0834  0.1423  0.0248
   52CHL1   H14 3791   3.628   0.456   7.432 -0.0032 -0.2925 -0.4520
   52CHL1   C15 3792   3.550   0.301   7.547 -0.2147  0.1483 -0.6520
   52CHL1  H15A 3793   3.470   0.226   7.561  0.7848 -0.6290  1.2444
   52CHL1  H15B 3794   3.641   0.247   7.511 -0.5460 -0.6916 -0.2465
   52CHL1   C16 3795   3.563   0.361   7.687 -0.1132 -0.3712 -1.1656
   52CHL1  H16A 3796   3.487   0.321   7.757 -0.3492 -0.3067 -1.3835
   52CHL1  H16B 3797   3.667   0.363   7.727 -0.2186 -1.2867 -0.8171
   52CHL1   C17 3798   3.512   0.503   7.675  0.3796 -0.5751  0.4495
   52CHL1   H17 3799   3.601   0.569   7.664 -0.1475  0.1008  0.1462
   52CHL1   C13 3800   3.441   0.509   7.537 -0.6718 -0.0820 -0.8615
   52CHL1   C18 3801   3.294   0.467   7.545  0.5772  0.1318 -0.4710
   52CHL1  H18A 3802   3.301   0.382   7.616  2.5954 -0.8546 -1.7453
   52CHL1  H18B 3803   3.240   0.551   7.594 -1.5618 -0.4884 -1.6384
   52CHL1  H18C 3804   3.250   0.437   7.448  2.5248  1.1123 -1.7363
   52CHL1   C12 3805   3.447   0.644   7.461  0.1102 -0.2769 -0.9039
   52CHL1  H12A 3806   3.378   0.718   7.507  0.1238 -1.2136  0.6836
   52CHL1  H12B 3807   3.549   0.686   7.477 -1.0146  1.7562  1.8108
   52CHL1   C11 3808   3.400   0.635   7.320  0.2693  0.1986  0.6944
   52CHL1  H11A 3809   3.289   0.631   7.324 -0.0185 -0.2433 -3.3287
   52CHL1  H11B 3810   3.417   0.734   7.273 -0.2961 -0.5316 -1.1268
   52CHL1    C9 3811   3.457   0.516   7.232  0.1609 -0.5837 -0.0902
   52CHL1    H9 3812   3.563   0.536   7.208  0.5098 -1.0481  1.0136
   52CHL1   C10 3813   3.403   0.499   7.086 -0.1360 -0.4399  0.1139
   52CHL1   C19 3814   3.253   0.485   7.091  0.1839 -0.7967 -0.0599
   52CHL1  H19A 3815   3.223   0.412   7.169  2.0830 -0.8714  0.6444
   52CHL1  H19B 3816   3.209   0.585   7.112  1.1388  0.0988 -2.0962
   52CHL1  H19C 3817   3.196   0.456   7.000  2.5329  0.1326 -1.9170
   52CHL1    C1 3818   3.450   0.615   6.991  0.0933 -0.2549 -0.1883
   52CHL1   H1A 3819   3.399   0.710   7.019  0.2787 -0.2748  0.2159
   52CHL1   H1B 3820   3.559   0.612   7.010  0.0617 -2.9099  0.0345
   52CHL1    C2 3821   3.433   0.593   6.841 -0.2593  0.4728 -0.0187
   52CHL1   H2A 3822   3.471   0.668   6.768  0.3866 -1.2464 -1.5117
   52CHL1   H2B 3823   3.327   0.612   6.812  0.6413  2.0247 -2.6867
   52CHL1   C20 3824   3.434   0.543   7.804 -0.4947  0.1102 -0.1360
   52CHL1   H20 3825   3.341   0.482   7.810  0.2924 -1.1286 -0.2877
   52CHL1   C21 3826   3.402   0.689   7.803  0.1508 -0.4344 -0.2951
   52CHL1  H21A 3827   3.327   0.709   7.724 -0.4403 -1.7449 -0.0864
   52CHL1  H21B 3828   3.497   0.745   7.786  1.5495 -2.0378  1.7588
   52CHL1  H21C 3829   3.354   0.726   7.896  0.5943  1.0997 -0.6511
   52CHL1   C22 3830   3.502   0.507   7.936 -0.2344  0.5681  0.8090
   52CHL1  H22A 3831   3.520   0.398   7.929 -0.0909  0.6945 -1.4438
   52CHL1  H22B 3832   3.602   0.553   7.925  0.1542 -0.5130 -0.5276
   52CHL1   C23 3833   3.428   0.528   8.065  0.5532  0.8491 -0.2115
   52CHL1  H23A 3834   3.408   0.635   8.089 -2.0160  0.2068  0.9497
   52CHL1  H23B 3835   3.332   0.473   8.052  0.4763  1.3207 -1.8319
   52CHL1   C24 3836   3.511   0.479   8.185 -0.3221 -0.2928 -0.8244
   52CHL1  H24A 3837   3.545   0.376   8.164  0.4456  0.2877 -2.7137
   52CHL1  H24B 3838   3.599   0.547   8.191 -1.7123  1.5327 -0.3045
   52CHL1   C25 3839   3.439   0.485   8.325  0.0346 -0.1983 -0.3955
   52CHL1   H25 3840   3.397   0.586   8.343  2.1900  0.7484 -0.2767
   52CHL1   C26 3841   3.331   0.382   8.316 -0.0337  0.2564 -0.0789
   52CHL1  H26A 3842   3.299   0.339   8.413  3.3258  0.6036  1.3107
   52CHL1  H26B 3843   3.243   0.435   8.273 -0.0732  1.6197  1.6033
   52CHL1  H26C 3844   3.362   0.293   8.255  0.2545 -0.0964  0.5750
   52CHL1   C27 3845   3.539   0.452   8.439  0.2042 -1.0984 -0.1770
   52CHL1  H27A 3846   3.635   0.507   8.432 -0.4682 -0.0643 -1.9063
   52CHL1  H27B 3847   3.494   0.471   8.539  0.6131 -1.4767  0.0807
   52CHL1  H27C 3848   3.562   0.344   8.426 -2.2987 -1.5246 -1.9244
   53CHL1    C3 3849   1.261   1.645   6.995  0.2892 -0.2162 -0.6396
   53CHL1    H3 3850   1.194   1.580   7.055 -2.8430  1.1508 -2.4673
   53CHL1    O3 3851   1.226   1.633   6.859 -0.5531  0.9658 -0.6079
   53CHL1   H3' 3852   1.300   1.672   6.811  1.2439  1.0604  2.0449
   53CHL1    C4 3853   1.234   1.789   7.039  0.0395 -0.1497 -0.5716
   53CHL1   H4A 3854   1.280   1.855   6.963 -1.1493  2.1547  0.5971
   53CHL1   H4B 3855   1.123   1.797   7.037 -0.0197 -0.9206 -0.8000
   53CHL1    C5 3856   1.294   1.814   7.175 -0.1016 -0.4565 -0.7054
   53CHL1    C6 3857   1.219   1.847   7.280 -1.0182 -1.0017 -0.1085
   53CHL1    H6 3858   1.110   1.860   7.270 -0.5734  2.6938 -1.3492
   53CHL1    C7 3859   1.271   1.883   7.419 -0.5402 -0.1008  0.0133
   53CHL1   H7A 3860   1.236   1.984   7.448 -0.9783  0.2757 -1.7492
   53CHL1   H7B 3861   1.235   1.811   7.496 -0.7544 -1.2372 -1.1236
   53CHL1    C8 3862   1.426   1.901   7.422  0.0964  0.4283  0.3213
   53CHL1    H8 3863   1.441   1.999   7.372 -1.3288  0.4019 -0.2009
   53CHL1   C14 3864   1.482   1.896   7.564  0.0785  0.1382  0.6590
   53CHL1   H14 3865   1.463   1.791   7.598 -1.0963 -0.1665 -0.8397
   53CHL1   C15 3866   1.426   1.980   7.682  0.1044  0.3833 -1.2267
   53CHL1  H15A 3867   1.421   2.087   7.651  1.6448  0.7897 -0.1988
   53CHL1  H15B 3868   1.331   1.949   7.729 -0.1394  1.7452 -0.7605
   53CHL1   C16 3869   1.533   1.970   7.793 -0.3496  0.3264  0.3282
   53CHL1  H16A 3870   1.563   2.072   7.828  3.0930  0.4728 -2.4915
   53CHL1  H16B 3871   1.508   1.912   7.885 -2.2236  1.4675  0.5864
   53CHL1   C17 3872   1.652   1.890   7.736  0.1855  0.0321 -0.0162
   53CHL1   H17 3873   1.629   1.784   7.758 -0.8830 -0.4353 -2.9645
   53CHL1   C13 3874   1.635   1.907   7.584 -0.4400  0.4237  0.2134
   53CHL1   C18 3875   1.673   2.056   7.539 -0.8605 -0.2263 -0.3401
   53CHL1  H18A 3876   1.622   2.097   7.448  1.2693  0.4898 -1.2755
   53CHL1  H18B 3877   1.667   2.131   7.621 -2.6224 -1.8296  1.0961
   53CHL1  H18C 3878   1.779   2.067   7.508 -0.9361  2.6319  0.0984
   53CHL1   C12 3879   1.699   1.803   7.497 -0.6388  0.2968 -0.0089
   53CHL1  H12A 3880   1.807   1.826   7.490  0.3044 -3.0391  1.4543
   53CHL1  H12B 3881   1.683   1.700   7.534 -2.5581  0.9217  1.0668
   53CHL1   C11 3882   1.652   1.807   7.349  0.5223 -0.4059 -0.7695
   53CHL1  H11A 3883   1.671   1.904   7.298 -2.1539  0.1273 -0.9135
   53CHL1  H11B 3884   1.696   1.717   7.300  0.5210 -2.0726  2.1159
   53CHL1    C9 3885   1.495   1.792   7.335  0.3935  0.6041 -0.0106
   53CHL1    H9 3886   1.473   1.699   7.393  0.5710 -0.2185 -1.2122
   53CHL1   C10 3887   1.443   1.789   7.183 -0.2387  0.0643 -0.4211
   53CHL1   C19 3888   1.526   1.869   7.087 -0.6909 -0.1147  0.4808
   53CHL1  H19A 3889   1.628   1.825   7.080 -0.8439 -0.2347 -1.4702
   53CHL1  H19B 3890   1.479   1.877   6.987  0.8877 -0.3419 -0.2978
   53CHL1  H19C 3891   1.537   1.974   7.121 -3.0316  0.7344 -1.1430
   53CHL1    C1 3892   1.456   1.634   7.151  0.0067  0.2543  0.0401
   53CHL1   H1A 3893   1.565   1.614   7.155  0.1317  0.9487  0.1996
   53CHL1   H1B 3894   1.411   1.570   7.230  0.7021  1.2482  1.2901
   53CHL1    C2 3895   1.413   1.604   7.009 -0.5119  0.2552  0.1191
   53CHL1   H2A 3896   1.423   1.495   6.991  0.2072  0.1993  0.8113
   53CHL1   H2B 3897   1.471   1.664   6.937 -3.1028 -0.6486 -2.9752
   53CHL1   C20 3898   1.786   1.934   7.792  0.0430  0.8227 -0.3821
   53CHL1   H20 3899   1.813   2.041   7.773  1.4151  0.6332  0.3616
   53CHL1   C21 3900   1.900   1.876   7.718  0.4841 -0.0640 -0.5545
   53CHL1  H21A 3901   1.881   1.771   7.686 -0.1443 -0.1570  0.1131
   53CHL1  H21B 3902   1.984   1.871   7.791 -2.4682 -1.0938  3.0944
   53CHL1  H21C 3903   1.937   1.942   7.636  0.1993  1.3674  0.4236
   53CHL1   C22 3904   1.800   1.921   7.941  0.1959 -0.1025  0.0936
   53CHL1  H22A 3905   1.908   1.937   7.962 -0.1762  1.3385  1.0778
   53CHL1  H22B 3906   1.740   2.002   7.987 -0.8883 -1.5614  1.3271
   53CHL1   C23 3907   1.761   1.783   8.000  1.2458 -0.5530 -0.2785
   53CHL1  H23A 3908   1.650   1.779   7.998  1.1225  1.8197 -0.7436
   53CHL1  H23B 3909   1.808   1.707   7.934 -0.8147  0.8330 -3.6368
   53CHL1   C24 3910   1.802   1.756   8.147  0.0187 -0.6575 -0.7078
   53CHL1  H24A 3911   1.765   1.660   8.187 -0.1618  0.3921  1.8322
   53CHL1  H24B 3912   1.912   1.740   8.148  0.1485 -0.3460 -2.9706
   53CHL1   C25 3913   1.759   1.864   8.244 -0.0536  0.0518 -0.3548
   53CHL1   H25 3914   1.783   1.965   8.205  0.8491  2.0486  4.6089
   53CHL1   C26 3915   1.607   1.865   8.270 -0.4620  0.8528 -0.1027
   53CHL1  H26A 3916   1.569   1.916   8.178 -1.8468  0.2543  0.1124
   53CHL1  H26B 3917   1.569   1.763   8.292 -0.7807  1.1386  0.7051
   53CHL1  H26C 3918   1.597   1.934   8.356 -1.0359  0.2419  0.3292
   53CHL1   C27 3919   1.839   1.854   8.382 -0.6206  0.6103  0.2390
   53CHL1  H27A 3920   1.823   1.947   8.441 -1.3071 -1.2806  3.2625
   53CHL1  H27B 3921   1.808   1.764   8.440 -0.3747  0.1797 -0.2864
   53CHL1  H27C 3922   1.944   1.840   8.349 -0.9888  0.1130 -0.7438
   54CHL1    C3 3923   1.940   4.162   6.565  0.0789 -0.2972 -0.4323
   54CHL1    H3 3924   1.834   4.135   6.549 -0.1611  0.4727 -0.1736
   54CHL1    O3 3925   2.004   4.210   6.446  0.0644  0.3412 -0.6353
   54CHL1   H3' 3926   2.065   4.282   6.465 -1.2510  0.7327  2.8322
   54CHL1    C4 3927   1.952   4.277   6.660 -0.3489  0.2320 -0.8768
   54CHL1   H4A 3928   2.055   4.319   6.658  0.0581 -0.4909  1.5742
   54CHL1   H4B 3929   1.893   4.362   6.620  1.0276  1.0404 -1.2818
   54CHL1    C5 3930   1.907   4.252   6.804 -0.4743  0.0001  0.1517
   54CHL1    C6 3931   1.814   4.320   6.872  1.1408 -0.0724  0.3980
   54CHL1    H6 3932   1.764   4.401   6.818  0.8676  0.7662  1.8564
   54CHL1    C7 3933   1.768   4.282   7.014 -0.7707  0.3829  0.1990
   54CHL1   H7A 3934   1.754   4.380   7.066  1.8437  1.1330 -0.3708
   54CHL1   H7B 3935   1.671   4.229   7.005 -0.1758 -0.8845  0.9881
   54CHL1    C8 3936   1.872   4.203   7.089 -0.7892 -0.5208  0.7723
   54CHL1    H8 3937   1.961   4.268   7.104 -0.2596 -1.1877  0.5880
   54CHL1   C14 3938   1.828   4.159   7.228 -0.1833 -0.1169 -0.1058
   54CHL1   H14 3939   1.728   4.113   7.213 -0.7050  0.7867  0.4817
   54CHL1   C15 3940   1.787   4.273   7.326 -0.2814 -0.3391  0.1720
   54CHL1  H15A 3941   1.869   4.348   7.320 -1.3950  0.9098  0.1517
   54CHL1  H15B 3942   1.699   4.328   7.289  0.0405 -0.5245 -0.8899
   54CHL1   C16 3943   1.792   4.207   7.463  0.3727  0.0799 -0.1369
   54CHL1  H16A 3944   1.851   4.270   7.534  0.2020 -0.4249  0.4627
   54CHL1  H16B 3945   1.687   4.206   7.499  0.7372  0.8615  1.0304
   54CHL1   C17 3946   1.864   4.070   7.441  0.2863  0.5250 -0.4095
   54CHL1   H17 3947   1.774   4.004   7.448 -1.0420  2.3306  0.3156
   54CHL1   C13 3948   1.923   4.068   7.300 -0.1685  0.2735 -0.3462
   54CHL1   C18 3949   2.062   4.142   7.321 -0.2778 -0.0999  0.2365
   54CHL1  H18A 3950   2.102   4.191   7.229 -0.2880 -0.4507  0.0409
   54CHL1  H18B 3951   2.068   4.224   7.396 -2.2229  1.6099 -1.3313
   54CHL1  H18C 3952   2.137   4.069   7.358  0.7338  0.7026 -0.1770
   54CHL1   C12 3953   1.936   3.939   7.218  0.2483  0.1723 -0.0040
   54CHL1  H12A 3954   1.998   3.858   7.261  1.0789  1.2645  0.9023
   54CHL1  H12B 3955   1.834   3.900   7.194 -0.8363  1.0977  2.7238
   54CHL1   C11 3956   1.997   3.982   7.082  0.1169 -0.4141  0.5784
   54CHL1  H11A 3957   2.102   4.009   7.103 -0.2624  1.5821  0.0804
   54CHL1  H11B 3958   2.001   3.887   7.024 -0.3550  0.1873 -0.4577
   54CHL1    C9 3959   1.912   4.087   7.004 -0.6934  0.0519 -0.0725
   54CHL1    H9 3960   1.817   4.038   6.975 -1.9274  2.0954  0.3022
   54CHL1   C10 3961   1.974   4.134   6.865  0.4389  0.4201 -0.7055
   54CHL1   C19 3962   2.122   4.169   6.885  0.3386  0.9499  0.1173
   54CHL1  H19A 3963   2.168   4.214   6.795  0.6414 -0.6307 -0.5483
   54CHL1  H19B 3964   2.144   4.239   6.968 -0.2916 -1.0738  2.1082
   54CHL1  H19C 3965   2.175   4.073   6.906 -1.1799  0.2831  1.0402
   54CHL1    C1 3966   1.959   4.010   6.765 -0.4183  0.1257  0.2001
   54CHL1   H1A 3967   1.992   3.916   6.814 -2.0374 -1.7314 -2.0370
   54CHL1   H1B 3968   1.851   3.988   6.768 -0.1885 -1.9141 -2.6782
   54CHL1    C2 3969   2.009   4.032   6.623  0.2731  0.3853 -0.0523
   54CHL1   H2A 3970   1.982   3.944   6.561  0.7613  0.6656 -0.6676
   54CHL1   H2B 3971   2.120   4.034   6.624  0.3680 -1.9440  0.9809
   54CHL1   C20 3972   1.946   4.027   7.559  0.2569 -0.5337 -0.0186
   54CHL1   H20 3973   2.013   4.113   7.583 -0.2923  0.1693 -0.9597
   54CHL1   C21 3974   2.023   3.893   7.532 -0.2645 -0.3039  0.1485
   54CHL1  H21A 3975   2.052   3.844   7.628 -0.6959 -1.6833 -0.4038
   54CHL1  H21B 3976   2.114   3.907   7.469 -0.4390  0.6943  0.1175
   54CHL1  H21C 3977   1.956   3.815   7.489  0.4696 -2.0166  1.9542
   54CHL1   C22 3978   1.855   4.010   7.681 -0.1451 -0.3436  0.2159
   54CHL1  H22A 3979   1.785   4.096   7.694 -1.9842 -1.7771  0.2995
   54CHL1  H22B 3980   1.789   3.924   7.655  1.2655 -0.5305 -3.2296
   54CHL1   C23 3981   1.933   3.984   7.812 -0.3548  0.5368  0.6384
   54CHL1  H23A 3982   1.976   3.882   7.814  0.6189  0.9437  2.0888
   54CHL1  H23B 3983   2.022   4.050   7.818  0.4885 -0.6760  1.9082
   54CHL1   C24 3984   1.853   4.019   7.942  0.0886 -0.1035  1.1436
   54CHL1  H24A 3985   1.805   4.118   7.929  1.0274  0.1651 -0.5893
   54CHL1  H24B 3986   1.771   3.944   7.950 -1.1446  1.1122  0.3374
   54CHL1   C25 3987   1.940   4.035   8.072  0.2863  0.8048  0.4184
   54CHL1   H25 3988   1.857   4.050   8.145 -2.9045 -0.4385 -2.7030
   54CHL1   C26 3989   2.022   3.911   8.106 -1.1920 -0.2462 -0.2845
   54CHL1  H26A 3990   2.092   3.895   8.021 -0.6178  0.4888  0.0472
   54CHL1  H26B 3991   2.086   3.940   8.192 -1.7851 -0.1431  0.1325
   54CHL1  H26C 3992   1.952   3.828   8.132 -1.5615 -0.0834 -0.7426
   54CHL1   C27 3993   2.014   4.167   8.066  0.7047  0.6852 -0.5954
   54CHL1  H27A 3994   2.066   4.207   8.155  1.4003 -1.0294 -0.2052
   54CHL1  H27B 3995   2.096   4.158   7.992  0.1795 -1.2682 -0.9993
   54CHL1  H27C 3996   1.939   4.245   8.040  1.2523  2.2336  2.0884
   55CHL1    C3 3997   2.013   5.726   7.029  0.0227 -0.4757 -0.1661
   55CHL1    H3 3998   2.123   5.712   7.021  0.2931  0.1511  1.8186
   55CHL1    O3 3999   1.960   5.752   6.897 -0.2371 -0.1138 -0.0129
   55CHL1   H3' 4000   2.009   5.830   6.871  0.0438 -0.6534 -1.1610
   55CHL1    C4 4001   1.949   5.605   7.101 -0.3247 -0.5922  1.1110
   55CHL1   H4A 4002   1.840   5.608   7.081 -0.3016  2.6258  0.9598
   55CHL1   H4B 4003   1.984   5.516   7.043  1.8564 -0.4908  2.1619
   55CHL1    C5 4004   1.990   5.596   7.243  0.8351 -0.4306 -0.2791
   55CHL1    C6 4005   2.045   5.485   7.295 -0.6374  0.1535  0.0810
   55CHL1    H6 4006   2.049   5.394   7.233  1.3632  0.4985 -0.3594
   55CHL1    C7 4007   2.096   5.469   7.434 -0.2051 -0.2111 -0.0346
   55CHL1   H7A 4008   2.069   5.370   7.477 -1.0485  0.3483  0.7776
   55CHL1   H7B 4009   2.207   5.473   7.433 -0.0412  1.5341  3.9665
   55CHL1    C8 4010   2.036   5.574   7.524 -0.1996  0.0294 -0.2180
   55CHL1    H8 4011   1.928   5.551   7.539 -1.0649  0.0869 -4.7689
   55CHL1   C14 4012   2.118   5.567   7.655  0.6521  0.3890 -0.9808
   55CHL1   H14 4013   2.227   5.580   7.637  0.9460  0.0893  0.4408
   55CHL1   C15 4014   2.107   5.435   7.731  0.0840  0.3125  0.5600
   55CHL1  H15A 4015   2.005   5.390   7.739  0.6428 -1.3060 -0.7250
   55CHL1  H15B 4016   2.173   5.360   7.683  0.1354  0.5399  0.2752
   55CHL1   C16 4017   2.164   5.475   7.868  0.0811  0.0965 -0.2057
   55CHL1  H16A 4018   2.091   5.439   7.943  0.5037 -0.2097  0.0666
   55CHL1  H16B 4019   2.269   5.444   7.886  0.2970  0.2577 -1.1462
   55CHL1   C17 4020   2.152   5.634   7.879  0.2773  0.3606  0.8959
   55CHL1   H17 4021   2.256   5.668   7.858 -0.4430  0.8365 -2.5942
   55CHL1   C13 4022   2.073   5.674   7.754  0.5010 -0.5378 -0.0148
   55CHL1   C18 4023   1.921   5.666   7.786 -0.3390 -0.6064  1.3881
   55CHL1  H18A 4024   1.864   5.660   7.691  3.6760 -0.1538 -1.2951
   55CHL1  H18B 4025   1.895   5.593   7.865 -0.9947 -2.6079 -0.6063
   55CHL1  H18C 4026   1.896   5.761   7.839  2.0917  1.5314 -0.9301
   55CHL1   C12 4027   2.104   5.812   7.694 -0.5365 -0.4638 -0.3684
   55CHL1  H12A 4028   2.069   5.898   7.756 -1.5861 -1.1136 -0.0267
   55CHL1  H12B 4029   2.214   5.815   7.687 -0.5453 -1.8149 -1.5281
   55CHL1   C11 4030   2.040   5.832   7.555  0.0298  0.2091 -0.2088
   55CHL1  H11A 4031   1.931   5.850   7.568  0.1705 -0.5010  2.5597
   55CHL1  H11B 4032   2.087   5.921   7.508 -0.7170  0.9364  0.4000
   55CHL1    C9 4033   2.056   5.713   7.464 -0.3079  0.0195 -0.2743
   55CHL1    H9 4034   2.163   5.706   7.435 -0.1932  0.7017 -0.0208
   55CHL1   C10 4035   1.974   5.723   7.325  0.2678 -0.1510 -0.5698
   55CHL1   C19 4036   1.819   5.737   7.359 -0.1326 -0.8741 -0.6061
   55CHL1  H19A 4037   1.793   5.675   7.448 -2.5213  1.0270  0.1104
   55CHL1  H19B 4038   1.806   5.843   7.389  0.8232 -0.7231 -0.6673
   55CHL1  H19C 4039   1.746   5.717   7.278 -1.1704  4.6924 -1.4798
   55CHL1    C1 4040   2.024   5.850   7.253 -0.2815 -0.5016  0.2004
   55CHL1   H1A 4041   1.993   5.942   7.308 -2.6138 -1.7162  1.0579
   55CHL1   H1B 4042   2.135   5.841   7.255 -0.2703 -0.3529  0.3309
   55CHL1    C2 4043   1.984   5.855   7.105  0.3489  0.0912  0.4771
   55CHL1   H2A 4044   2.035   5.943   7.060  0.0391 -1.1368 -2.5442
   55CHL1   H2B 4045   1.875   5.871   7.102  0.1588 -0.9537  1.3983
   55CHL1   C20 4046   2.110   5.687   8.022 -0.2810 -0.7544  0.0748
   55CHL1   H20 4047   2.006   5.656   8.044 -1.4881  3.3554  0.9645
   55CHL1   C21 4048   2.114   5.843   8.020 -0.1601 -0.2519 -0.2106
   55CHL1  H21A 4049   2.025   5.880   7.964 -1.5859 -1.2777  1.2456
   55CHL1  H21B 4050   2.214   5.868   7.979 -0.1010 -1.9060 -1.1838
   55CHL1  H21C 4051   2.107   5.889   8.120  2.1582  1.9239 -0.9676
   55CHL1   C22 4052   2.189   5.634   8.141 -0.8093  0.0677  0.2590
   55CHL1  H22A 4053   2.186   5.523   8.149 -0.4699  0.1485  1.6447
   55CHL1  H22B 4054   2.298   5.653   8.132 -0.8423  1.1514  1.8519
   55CHL1   C23 4055   2.136   5.672   8.280 -0.6034 -0.1365 -0.1677
   55CHL1  H23A 4056   2.195   5.753   8.328 -0.1902 -0.1055 -0.7135
   55CHL1  H23B 4057   2.031   5.707   8.278 -0.3552  0.8713  1.7810
   55CHL1   C24 4058   2.141   5.552   8.376  0.4310 -0.0253  0.3540
   55CHL1  H24A 4059   2.073   5.471   8.343 -2.0315  1.5801  1.1932
   55CHL1  H24B 4060   2.245   5.513   8.380  1.8611  3.3110 -0.9246
   55CHL1   C25 4061   2.082   5.595   8.513  0.1246 -0.3342  0.5306
   55CHL1   H25 4062   1.991   5.653   8.487  0.0694 -0.9230 -0.6790
   55CHL1   C26 4063   2.043   5.478   8.606 -0.7775  0.3455  0.6840
   55CHL1  H26A 4064   2.001   5.519   8.700 -1.9024  1.0117 -0.0928
   55CHL1  H26B 4065   1.961   5.417   8.564  0.7172 -0.7318 -0.8359
   55CHL1  H26C 4066   2.116   5.398   8.631 -0.8481  1.2412  4.3385
   55CHL1   C27 4067   2.187   5.683   8.583  0.1520  0.2038  0.0558
   55CHL1  H27A 4068   2.150   5.697   8.686 -0.1082 -1.2767  0.1920
   55CHL1  H27B 4069   2.280   5.622   8.591  0.5148  0.4300 -1.9255
   55CHL1  H27C 4070   2.210   5.781   8.536  0.5254  0.1590  0.1393
   56CHL1    C3 4071   1.436   3.011   7.011 -0.0027  0.8785  0.6309
   56CHL1    H3 4072   1.437   2.905   7.045 -0.6055  1.1987  1.7122
   56CHL1    O3 4073   1.423   3.008   6.869 -0.1351  0.2285 -0.2326
   56CHL1   H3' 4074   1.433   3.102   6.853 -1.2430  0.5421  0.7603
   56CHL1    C4 4075   1.321   3.079   7.068  0.4065 -0.1160 -0.3743
   56CHL1   H4A 4076   1.309   3.183   7.028  0.0199 -0.1721 -0.4135
   56CHL1   H4B 4077   1.224   3.040   7.032 -0.2027  0.0450  1.0068
   56CHL1    C5 4078   1.320   3.084   7.221  0.4717  0.3251  0.0716
   56CHL1    C6 4079   1.222   3.029   7.298  0.2797 -0.6728 -0.0587
   56CHL1    H6 4080   1.139   2.977   7.249 -0.9723  1.7022 -0.5864
   56CHL1    C7 4081   1.216   3.038   7.449 -0.1431 -0.3472 -0.0281
   56CHL1   H7A 4082   1.123   3.083   7.490 -0.3452  0.1207 -0.9657
   56CHL1   H7B 4083   1.224   2.933   7.483 -1.1391  0.0938  1.6715
   56CHL1    C8 4084   1.340   3.119   7.503  0.1272  0.7431  0.0452
   56CHL1    H8 4085   1.309   3.225   7.492 -1.6872  0.1946 -0.5016
   56CHL1   C14 4086   1.365   3.081   7.655 -1.4023 -0.0740  0.0995
   56CHL1   H14 4087   1.409   2.980   7.654  0.6226  0.7356  1.4662
   56CHL1   C15 4088   1.237   3.080   7.745  0.3808 -0.6303 -0.1657
   56CHL1  H15A 4089   1.183   3.176   7.732  1.2176 -0.0912  0.2376
   56CHL1  H15B 4090   1.180   2.986   7.729 -0.0022 -0.2618 -1.0151
   56CHL1   C16 4091   1.295   3.091   7.889 -0.3882  0.1278  0.8787
   56CHL1  H16A 4092   1.258   3.179   7.946  1.0536 -0.0810  2.2148
   56CHL1  H16B 4093   1.274   3.002   7.953 -0.8606 -0.0477  0.4767
   56CHL1   C17 4094   1.452   3.110   7.870 -0.2846 -0.7550 -0.2209
   56CHL1   H17 4095   1.485   3.004   7.870 -0.8773 -0.9506  0.2916
   56CHL1   C13 4096   1.470   3.169   7.725  0.2863 -0.0740  0.6238
   56CHL1   C18 4097   1.421   3.316   7.721  0.0205  0.0027  0.9519
   56CHL1  H18A 4098   1.422   3.358   7.618 -0.2006 -0.5801  0.7111
   56CHL1  H18B 4099   1.314   3.326   7.750 -0.1273 -1.1216  0.8306
   56CHL1  H18C 4100   1.488   3.385   7.776  2.8758  0.0721 -2.3308
   56CHL1   C12 4101   1.600   3.142   7.656  0.3180 -0.0833 -0.1994
   56CHL1  H12A 4102   1.683   3.209   7.687 -0.9485  1.6065 -0.2818
   56CHL1  H12B 4103   1.625   3.035   7.671 -1.5094 -0.4715  0.3149
   56CHL1   C11 4104   1.593   3.163   7.498  0.0842  0.0367 -0.0743
   56CHL1  H11A 4105   1.599   3.273   7.479  1.4102 -0.3455 -2.2454
   56CHL1  H11B 4106   1.687   3.124   7.453 -1.2563 -1.5544 -1.6336
   56CHL1    C9 4107   1.472   3.097   7.429 -0.5031 -0.2853 -0.0954
   56CHL1    H9 4108   1.500   2.990   7.441 -0.1401 -0.0260  1.8432
   56CHL1   C10 4109   1.460   3.132   7.278  0.7586  1.2138  0.0888
   56CHL1   C19 4110   1.466   3.288   7.260  0.2882 -0.2889  1.1652
   56CHL1  H19A 4111   1.442   3.312   7.155 -1.2483 -1.5672  1.1938
   56CHL1  H19B 4112   1.389   3.342   7.320 -0.5698 -0.3422  0.1329
   56CHL1  H19C 4113   1.572   3.318   7.277  0.8906 -2.0709  0.7969
   56CHL1    C1 4114   1.577   3.069   7.196 -0.4767  0.2457 -0.5143
   56CHL1   H1A 4115   1.678   3.106   7.226 -1.1991  1.8052  0.1488
   56CHL1   H1B 4116   1.576   2.962   7.224 -0.7278  0.3587 -0.0853
   56CHL1    C2 4117   1.567   3.081   7.043 -0.4354 -0.2618  0.0645
   56CHL1   H2A 4118   1.649   3.027   6.991 -0.7096 -0.5637 -0.0576
   56CHL1   H2B 4119   1.569   3.191   7.024  1.3514  0.3858  3.2302
   56CHL1   C20 4120   1.526   3.179   7.991 -0.2250 -0.9344  0.8436
   56CHL1   H20 4121   1.537   3.287   7.966 -3.4685 -0.5700  0.5113
   56CHL1   C21 4122   1.662   3.102   7.999  0.4022  1.0335  0.2650
   56CHL1  H21A 4123   1.711   3.127   7.903 -0.3554  1.1625 -0.0985
   56CHL1  H21B 4124   1.654   2.992   8.011 -1.0399  0.9275 -1.2343
   56CHL1  H21C 4125   1.717   3.144   8.086 -0.9073  0.7632  1.2466
   56CHL1   C22 4126   1.450   3.173   8.125  0.1789  0.1387 -0.2082
   56CHL1  H22A 4127   1.354   3.227   8.110  0.0738  0.5518  1.7084
   56CHL1  H22B 4128   1.443   3.066   8.152  1.1726  0.4047  1.1876
   56CHL1   C23 4129   1.526   3.230   8.248 -0.1139 -0.1199  0.0921
   56CHL1  H23A 4130   1.596   3.153   8.287  0.4315 -0.1977 -0.9953
   56CHL1  H23B 4131   1.575   3.314   8.194 -1.5894 -0.2847 -1.6222
   56CHL1   C24 4132   1.425   3.291   8.341  0.2430  0.0793 -0.1572
   56CHL1  H24A 4133   1.368   3.372   8.290  2.3332  1.8474  0.1569
   56CHL1  H24B 4134   1.346   3.216   8.364  0.3029  0.1431  0.2660
   56CHL1   C25 4135   1.488   3.345   8.475  0.0740 -0.2829 -0.6519
   56CHL1   H25 4136   1.546   3.271   8.534 -0.1451  0.5984  0.6946
   56CHL1   C26 4137   1.587   3.454   8.432  0.4399  0.9019 -0.2208
   56CHL1  H26A 4138   1.535   3.538   8.380 -1.5168 -1.1473 -1.7533
   56CHL1  H26B 4139   1.666   3.424   8.360  1.4037  0.6963  0.8909
   56CHL1  H26C 4140   1.648   3.498   8.514 -1.0359  3.1664 -0.2512
   56CHL1   C27 4141   1.379   3.405   8.562 -0.0491 -0.1240  0.5571
   56CHL1  H27A 4142   1.426   3.472   8.637 -2.3043  0.6897  1.3424
   56CHL1  H27B 4143   1.310   3.472   8.504 -0.1297 -0.6590  0.0211
   56CHL1  H27C 4144   1.307   3.328   8.597  0.6022 -0.4048  1.2833
   57SAPC     N 4145   2.696   1.441  10.837  0.7008 -0.2968  0.2900
   57SAPC   C12 4146   2.657   1.301  10.785 -0.7017 -0.0957  0.5571
   57SAPC  H12A 4147   2.697   1.226  10.851  0.0931  1.1627  1.5623
   57SAPC  H12B 4148   2.694   1.294  10.684 -2.2502  2.1088 -0.2449
   57SAPC   C13 4149   2.640   1.475  10.977  0.2923 -0.1545 -0.2929
   57SAPC  H13A 4150   2.539   1.440  10.988  0.0959  0.7307  1.0087
   57SAPC  H13B 4151   2.693   1.413  11.048  0.1493 -0.9680 -0.8884
   57SAPC  H13C 4152   2.651   1.581  10.997  2.8143  0.3948 -3.6774
   57SAPC   C14 4153   2.843   1.456  10.837  0.2650  0.0369  0.0343
   57SAPC  H14A 4154   2.869   1.548  10.888  0.6061  1.1848 -2.1047
   57SAPC  H14B 4155   2.886   1.366  10.879  0.8846 -0.5196 -1.7003
   57SAPC  H14C 4156   2.890   1.457  10.740 -0.0786  0.7976 -0.1264
   57SAPC   C15 4157   2.636   1.549  10.751 -0.5479  0.2943 -0.0509
   57SAPC  H15A 4158   2.661   1.536  10.647  0.8094 -0.3354  0.3307
   57SAPC  H15B 4159   2.531   1.544  10.775 -0.5985 -0.3536 -0.3901
   57SAPC  H15C 4160   2.689   1.639  10.776  1.3422 -0.6500 -0.4617
   57SAPC   C11 4161   2.504   1.277  10.755 -0.4178  0.9848  0.1360
   57SAPC  H11A 4162   2.504   1.197  10.679  1.1383  0.6720  0.4240
   57SAPC  H11B 4163   2.465   1.365  10.700  1.1322  1.1779 -0.7152
   57SAPC     P 4164   2.436   1.098  10.934 -0.2236 -0.0953 -0.5674
   57SAPC   O13 4165   2.574   1.078  10.980  0.1422 -0.6483  0.5624
   57SAPC   O14 4166   2.332   1.093  11.040  0.4173  0.3624  0.6243
   57SAPC   O12 4167   2.434   1.244  10.872 -0.1926 -0.0464 -0.0989
   57SAPC   O11 4168   2.404   1.001  10.815 -0.8438  0.2086 -0.0043
   57SAPC    C1 4169   2.267   0.995  10.767 -0.8867 -0.7469  0.6902
   57SAPC    HA 4170   2.199   0.950  10.843  1.0416 -1.6616  1.9318
   57SAPC    HB 4171   2.226   1.090  10.727  0.7782 -1.2695 -2.5848
   57SAPC    C2 4172   2.256   0.899  10.646  0.4040 -0.0429  0.2415
   57SAPC    HS 4173   2.263   0.792  10.674 -0.2165 -0.0696  0.3103
   57SAPC   O21 4174   2.352   0.945  10.553 -0.4057  0.2412  1.2428
   57SAPC   C21 4175   2.425   0.850  10.491  0.1208  0.1206 -0.0311
   57SAPC   O22 4176   2.416   0.729  10.511  1.0517  0.3045  0.0666
   57SAPC   C22 4177   2.536   0.905  10.403 -1.6712 -0.0254  0.1569
   57SAPC   H2R 4178   2.605   0.961  10.469 -0.4958  1.2928 -2.0440
   57SAPC   H2S 4179   2.585   0.816  10.357 -0.9913  0.3253  0.1902
   57SAPC    C3 4180   2.110   0.902  10.591  0.5506 -0.0047  0.1057
   57SAPC    HX 4181   2.061   1.002  10.584 -0.8029 -0.4884  1.8831
   57SAPC    HY 4182   2.055   0.851  10.672  1.9270 -0.1689  0.9665
   57SAPC   O31 4183   2.108   0.833  10.464 -0.8847 -0.5527  0.2613
   57SAPC   C31 4184   2.003   0.861  10.380  0.2007 -0.2125  0.8594
   57SAPC   O32 4185   1.920   0.947  10.397  0.6087  0.2259  0.0105
   57SAPC   C32 4186   2.011   0.767  10.257 -0.3975 -0.0248  0.1360
   57SAPC   H2X 4187   1.996   0.662  10.291 -4.1383  0.5328  0.7415
   57SAPC   H2Y 4188   2.117   0.763  10.224 -0.2743 -4.0030  0.4794
   57SAPC   C23 4189   2.481   0.984  10.277  0.2202 -0.5004  0.0851
   57SAPC   H3R 4190   2.558   1.040  10.220  0.3620 -0.6406  0.1369
   57SAPC   H3S 4191   2.409   1.057  10.321  0.1553 -0.3926 -0.2000
   57SAPC   C24 4192   2.404   0.886  10.187 -0.1211  0.2673  0.0547
   57SAPC   H4R 4193   2.327   0.947  10.135 -1.4021 -0.4153  1.0797
   57SAPC   H4S 4194   2.345   0.813  10.247  1.0667 -0.6054  0.2044
   57SAPC   C25 4195   2.496   0.807  10.091  0.6737  0.7919 -0.3333
   57SAPC   H5R 4196   2.596   0.792  10.133  0.8421  1.8568 -0.3308
   57SAPC   C26 4197   2.463   0.752   9.971  0.8261  0.3003  0.0730
   57SAPC   H6R 4198   2.541   0.700   9.914  0.2978 -1.2964  0.7499
   57SAPC   C27 4199   2.339   0.758   9.898  0.0350 -0.4214 -0.2242
   57SAPC   H7R 4200   2.249   0.786   9.957  0.5204  0.1167  0.2787
   57SAPC   H7S 4201   2.308   0.657   9.866  0.3136 -0.5756 -0.0127
   57SAPC   C28 4202   2.361   0.850   9.784 -0.6337  0.1389 -0.5277
   57SAPC   H8R 4203   2.376   0.954   9.814  2.0417 -0.4482  0.4121
   57SAPC   C29 4204   2.361   0.822   9.653 -0.3826  0.8365  0.8410
   57SAPC   H9R 4205   2.361   0.905   9.580 -2.0933 -0.9459 -1.2900
   57SAPC  C210 4206   2.351   0.690   9.580 -0.4403 -1.0490  0.0797
   57SAPC  H10R 4207   2.320   0.603   9.641 -2.0010 -0.0593  0.7823
   57SAPC  H10S 4208   2.449   0.667   9.534 -1.8296  0.1401 -3.9112
   57SAPC  C211 4209   2.252   0.716   9.474 -0.4369  0.1238  0.7358
   57SAPC  H11R 4210   2.148   0.737   9.504  0.0167  1.8760  1.2141
   57SAPC  C212 4211   2.278   0.721   9.340 -0.8408 -0.4394  0.8949
   57SAPC  H12R 4212   2.202   0.756   9.269  1.3806  1.9336 -0.5134
   57SAPC  C213 4213   2.408   0.711   9.263  0.1870 -0.0162 -0.0645
   57SAPC  H13R 4214   2.493   0.698   9.333 -0.7536  1.9292  1.5531
   57SAPC  H13S 4215   2.426   0.809   9.214  0.0167 -0.1691 -0.4370
   57SAPC  C214 4216   2.409   0.604   9.156  0.1486 -0.9260  0.0708
   57SAPC  H14R 4217   2.376   0.504   9.187  0.0571 -0.6418  0.9186
   57SAPC  C215 4218   2.420   0.638   9.023  0.3709  0.3144 -0.1257
   57SAPC  H15R 4219   2.416   0.552   8.955 -1.0831  0.0857  0.2304
   57SAPC  C216 4220   2.441   0.765   8.948 -0.1056  0.1161  0.3905
   57SAPC  H16R 4221   2.544   0.805   8.964 -0.6234  2.1037 -0.8608
   57SAPC  H16S 4222   2.369   0.842   8.983 -0.5908  0.1760 -0.7225
   57SAPC  C217 4223   2.406   0.763   8.799 -0.2731 -0.1271  0.2073
   57SAPC  H17R 4224   2.490   0.705   8.755  1.0982  1.1368  1.0785
   57SAPC  H17S 4225   2.410   0.868   8.761 -2.4853 -0.0332  0.0783
   57SAPC  C218 4226   2.271   0.708   8.754 -0.1771  0.3219  0.1446
   57SAPC  H18R 4227   2.190   0.718   8.829 -0.6441 -0.6733 -0.2196
   57SAPC  H18S 4228   2.286   0.599   8.738 -0.0621  0.2434  0.7680
   57SAPC  C219 4229   2.225   0.758   8.617 -0.9083 -0.1297 -0.1779
   57SAPC  H19R 4230   2.310   0.781   8.549 -1.9225 -1.6123 -2.0288
   57SAPC  H19S 4231   2.176   0.855   8.641  0.1408  0.1694  0.8738
   57SAPC  C220 4232   2.131   0.658   8.544 -0.2656  0.4302  0.0393
   57SAPC  H20R 4233   2.096   0.699   8.447 -2.7664  0.5329  0.9242
   57SAPC  H20S 4234   2.038   0.642   8.603 -1.5927  0.1717 -2.0554
   57SAPC  H20T 4235   2.181   0.561   8.521 -2.4399 -1.0719  1.3010
   57SAPC   C33 4236   1.910   0.798  10.139  0.2070  0.2877 -0.3808
   57SAPC   H3X 4237   1.956   0.897  10.117  0.1637  0.4541  0.2629
   57SAPC   H3Y 4238   1.805   0.815  10.171 -0.7257  0.0721 -3.0358
   57SAPC   C34 4239   1.918   0.702  10.021 -0.6789  0.6039  0.5626
   57SAPC   H4X 4240   1.860   0.612  10.053 -0.9894  1.2173  1.7890
   57SAPC   H4Y 4241   2.024   0.668  10.026 -1.6366 -2.8458  0.1747
   57SAPC   C35 4242   1.893   0.766   9.885  0.3254  0.3152 -0.5916
   57SAPC   H5X 4243   1.965   0.845   9.857 -1.2419  1.4447 -1.6071
   57SAPC   H5Y 4244   1.798   0.819   9.906  0.8498  0.7645  0.7543
   57SAPC   C36 4245   1.891   0.676   9.764 -0.1135  0.1307 -0.1570
   57SAPC   H6X 4246   1.827   0.589   9.788  1.1743 -0.6614  0.4608
   57SAPC   H6Y 4247   1.998   0.653   9.744  0.5599  2.2350  0.7544
   57SAPC   C37 4248   1.839   0.749   9.639  0.5790 -0.3038  0.0923
   57SAPC   H7X 4249   1.915   0.830   9.635 -0.3627  0.6270  0.7092
   57SAPC   H7Y 4250   1.742   0.800   9.656  0.2644 -1.1508  0.9203
   57SAPC   C38 4251   1.833   0.672   9.512 -0.2610 -0.6624 -0.4684
   57SAPC   H8X 4252   1.767   0.584   9.532 -0.0302 -0.1918  2.9345
   57SAPC   H8Y 4253   1.933   0.627   9.496  0.3580  0.4225  0.1853
   57SAPC   C39 4254   1.793   0.758   9.394 -0.6191 -0.1577 -0.0794
   57SAPC   H9X 4255   1.860   0.847   9.392  1.7608 -1.7992 -3.3327
   57SAPC   H9Y 4256   1.688   0.794   9.409 -0.7915  0.3689 -2.1183
   57SAPC  C310 4257   1.816   0.678   9.266 -0.2012  0.5939  0.2429
   57SAPC  H10X 4258   1.760   0.582   9.274  1.9472 -0.9644 -1.7234
   57SAPC  H10Y 4259   1.922   0.646   9.255 -0.1361  0.6932  0.5789
   57SAPC  C311 4260   1.759   0.735   9.139  0.5524 -0.3487  0.4021
   57SAPC  H11X 4261   1.796   0.837   9.116 -1.3162  0.0624 -0.9643
   57SAPC  H11Y 4262   1.648   0.736   9.139  0.4911 -1.6877 -1.8114
   57SAPC  C312 4263   1.797   0.639   9.018 -0.2127  0.5592 -0.5168
   57SAPC  H12X 4264   1.783   0.533   9.050 -0.8672  0.5028 -0.9628
   57SAPC  H12Y 4265   1.905   0.657   8.998 -0.2076 -0.0314 -1.0758
   57SAPC  C313 4266   1.715   0.662   8.886 -0.5952  0.2884 -0.2686
   57SAPC  H13X 4267   1.719   0.770   8.858  2.4422  0.9399  2.0759
   57SAPC  H13Y 4268   1.612   0.624   8.905  0.2551 -1.7836  0.5001
   57SAPC  C314 4269   1.783   0.581   8.767  0.1023 -0.2682 -0.3633
   57SAPC  H14X 4270   1.775   0.474   8.795 -1.2564  0.2282  1.3676
   57SAPC  H14Y 4271   1.886   0.621   8.766  0.0483  0.0185  1.7888
   57SAPC  C315 4272   1.717   0.604   8.631  0.0339  0.2121  0.6815
   57SAPC  H15X 4273   1.772   0.547   8.554 -0.5935 -0.7744  0.9487
   57SAPC  H15Y 4274   1.733   0.709   8.597 -1.5650 -0.1946 -1.5607
   57SAPC  C316 4275   1.569   0.564   8.611 -0.2209  0.2881 -0.6767
   57SAPC  H16X 4276   1.552   0.549   8.503  0.5092  1.5320 -0.9937
   57SAPC  H16Y 4277   1.500   0.643   8.648 -1.0236  0.0463 -1.6357
   57SAPC  C317 4278   1.546   0.424   8.679  0.0754 -0.7055 -1.8335
   57SAPC  H17X 4279   1.532   0.448   8.786  2.3272  1.2650 -1.8985
   57SAPC  H17Y 4280   1.636   0.362   8.660  2.8842  2.5800 -0.2859
   57SAPC  C318 4281   1.427   0.355   8.619  0.4319  0.0788 -0.8838
   57SAPC  H18X 4282   1.340   0.421   8.639 -1.9312 -2.8685 -0.7854
   57SAPC  H18Y 4283   1.407   0.263   8.678 -1.0799  1.7432  1.4298
   57SAPC  H18Z 4284   1.442   0.327   8.513  1.3613 -1.8076 -0.3072
   58SAPC     N 4285   3.829   3.841  10.658  0.3233 -0.0962 -0.2898
   58SAPC   C12 4286   3.677   3.853  10.656 -0.5698 -0.4337  0.0159
   58SAPC  H12A 4287   3.649   3.882  10.757 -2.6725 -0.6128 -0.4674
   58SAPC  H12B 4288   3.640   3.754  10.635 -2.5224  0.2910 -0.1208
   58SAPC   C13 4289   3.885   3.790  10.525 -0.2172  0.1912 -0.4760
   58SAPC  H13A 4290   3.862   3.688  10.497 -1.4306  0.6244 -1.1226
   58SAPC  H13B 4291   3.869   3.846  10.434 -3.1244  0.3970  0.0560
   58SAPC  H13C 4292   3.992   3.801  10.536 -0.6763  2.6684  3.1216
   58SAPC   C14 4293   3.896   3.971  10.683 -0.1265 -0.3811 -0.0219
   58SAPC  H14A 4294   4.001   3.956  10.706 -0.2434  0.7739  1.4342
   58SAPC  H14B 4295   3.876   4.043  10.605  2.3107  2.4600  1.7771
   58SAPC  H14C 4296   3.852   4.028  10.763  1.7205 -1.6471  2.0282
   58SAPC   C15 4297   3.872   3.753  10.769 -0.5398 -0.0514  0.1799
   58SAPC  H15A 4298   3.832   3.795  10.861 -0.3832 -1.2228  0.8011
   58SAPC  H15B 4299   3.836   3.652  10.765 -1.3556  0.1070  2.1456
   58SAPC  H15C 4300   3.979   3.743  10.785 -0.3753 -0.1132 -0.8943
   58SAPC   C11 4301   3.616   3.954  10.560  0.0154  0.6873 -0.1337
   58SAPC  H11A 4302   3.511   3.917  10.554  0.2860 -0.1156 -0.0003
   58SAPC  H11B 4303   3.658   3.948  10.457 -0.4711 -1.9575 -0.2289
   58SAPC     P 4304   3.510   4.194  10.603  0.0980  0.2466  0.5603
   58SAPC   O13 4305   3.393   4.147  10.684  0.7472 -0.3424 -0.2858
   58SAPC   O14 4306   3.567   4.321  10.650 -0.2537  0.0753  0.0824
   58SAPC   O12 4307   3.626   4.092  10.605 -0.0587 -0.2646  0.1624
   58SAPC   O11 4308   3.471   4.214  10.451  0.1076 -0.5695 -0.1557
   58SAPC    C1 4309   3.571   4.246  10.361 -0.1958 -0.3866 -0.5353
   58SAPC    HA 4310   3.623   4.339  10.392 -0.8107 -0.1411 -0.2039
   58SAPC    HB 4311   3.644   4.164  10.342 -0.8725 -1.1026 -0.1206
   58SAPC    C2 4312   3.510   4.278  10.215  0.3393 -0.5106 -0.1380
   58SAPC    HS 4313   3.590   4.325  10.153 -0.4597  0.4404 -0.4897
   58SAPC   O21 4314   3.391   4.363  10.229 -0.6307  0.6415 -0.0244
   58SAPC   C21 4315   3.423   4.486  10.258 -0.0470 -0.2270  0.6782
   58SAPC   O22 4316   3.539   4.531  10.245  0.3060 -0.5324 -0.3520
   58SAPC   C22 4317   3.302   4.572  10.274  0.4432 -0.3911 -0.2333
   58SAPC   H2R 4318   3.230   4.531  10.347 -0.8164 -1.1165 -1.8187
   58SAPC   H2S 4319   3.349   4.666  10.310  1.3989 -1.1706  0.6309
   58SAPC    C3 4320   3.465   4.139  10.153  0.7065 -0.5616  0.1409
   58SAPC    HX 4321   3.394   4.091  10.224  1.1557 -1.5685 -0.0659
   58SAPC    HY 4322   3.553   4.072  10.138  1.7862  0.7587  0.4529
   58SAPC   O31 4323   3.414   4.161  10.020  0.3159 -0.1565  0.3342
   58SAPC   C31 4324   3.288   4.190  10.004 -0.5871  0.3363  0.3469
   58SAPC   O32 4325   3.196   4.183  10.080 -0.0467  0.1761  0.0955
   58SAPC   C32 4326   3.281   4.265   9.865  0.6198 -0.1098  1.2003
   58SAPC   H2X 4327   3.321   4.368   9.875  1.9312 -0.5396  0.6297
   58SAPC   H2Y 4328   3.172   4.263   9.843  0.7448  1.2132  0.2997
   58SAPC   C23 4329   3.216   4.587  10.145 -0.4025 -0.5951  0.6427
   58SAPC   H3R 4330   3.121   4.635  10.178  0.2292 -0.2260  2.0014
   58SAPC   H3S 4331   3.176   4.490  10.108 -4.0779  0.0874  2.3522
   58SAPC   C24 4332   3.279   4.663  10.026  0.5800  0.3722  0.2798
   58SAPC   H4R 4333   3.206   4.647   9.944  1.1306 -2.7263  0.2548
   58SAPC   H4S 4334   3.375   4.613  10.000  0.3725 -1.8315  3.2555
   58SAPC   C25 4335   3.290   4.812  10.050 -0.4931  0.0149  0.1762
   58SAPC   H5R 4336   3.209   4.866  10.102 -2.0274  0.5819 -2.5773
   58SAPC   C26 4337   3.395   4.885   9.998 -0.3288  0.2811 -0.5612
   58SAPC   H6R 4338   3.383   4.994  10.010 -1.8704 -0.0267  1.1937
   58SAPC   C27 4339   3.518   4.838   9.915  0.4377  0.3355 -0.2790
   58SAPC   H7R 4340   3.548   4.737   9.950  2.3069  1.1904  0.7749
   58SAPC   H7S 4341   3.600   4.912   9.929  0.9166 -0.1435 -0.4993
   58SAPC   C28 4342   3.474   4.836   9.773  0.4014 -0.9957 -0.2620
   58SAPC   H8R 4343   3.444   4.739   9.729 -1.4251 -0.4904 -0.2135
   58SAPC   C29 4344   3.458   4.947   9.695  0.5467  0.6304 -0.3624
   58SAPC   H9R 4345   3.423   4.933   9.591  0.5647  1.8443 -0.5432
   58SAPC  C210 4346   3.481   5.089   9.746 -0.4778  0.1169 -0.6408
   58SAPC  H10R 4347   3.553   5.133   9.673 -0.4482 -0.9479 -1.2729
   58SAPC  H10S 4348   3.513   5.097   9.852  0.7445 -0.8122 -0.9218
   58SAPC  C211 4349   3.358   5.181   9.749 -0.0322 -0.1770  0.1279
   58SAPC  H11R 4350   3.309   5.192   9.847 -2.2657 -0.6382 -0.8888
   58SAPC  C212 4351   3.294   5.228   9.643  0.2063 -0.0035 -0.2203
   58SAPC  H12R 4352   3.214   5.302   9.660 -0.4395 -0.8391  0.4200
   58SAPC  C213 4353   3.332   5.208   9.498 -0.3921 -0.0166 -0.7474
   58SAPC  H13R 4354   3.437   5.174   9.480  0.8784  2.4960  1.2665
   58SAPC  H13S 4355   3.309   5.299   9.439 -0.6296  0.5060  0.1444
   58SAPC  C214 4356   3.231   5.102   9.460  0.2543  0.6522  0.4241
   58SAPC  H14R 4357   3.159   5.069   9.537 -0.8157  0.9902 -0.4074
   58SAPC  C215 4358   3.237   5.043   9.338  0.4648  0.4169  0.1857
   58SAPC  H15R 4359   3.147   4.983   9.320 -0.1021  0.9663  1.1415
   58SAPC  C216 4360   3.330   5.070   9.218 -0.1666  0.4329 -0.1526
   58SAPC  H16R 4361   3.405   4.988   9.212 -0.7555 -0.0201 -2.1634
   58SAPC  H16S 4362   3.390   5.163   9.231  1.5584 -0.5744 -0.5306
   58SAPC  C217 4363   3.264   5.065   9.081  0.3205 -0.0669  0.6998
   58SAPC  H17R 4364   3.195   5.152   9.070  1.1351  0.4921 -0.1502
   58SAPC  H17S 4365   3.209   4.971   9.062  1.3845 -0.1800 -2.2220
   58SAPC  C218 4366   3.374   5.089   8.976 -0.4702 -0.2348  0.8220
   58SAPC  H18R 4367   3.356   5.010   8.900 -0.9559  0.9383 -0.3303
   58SAPC  H18S 4368   3.473   5.094   9.025 -0.1258 -1.2203  0.2423
   58SAPC  C219 4369   3.354   5.222   8.910  0.0483  0.3361 -0.3381
   58SAPC  H19R 4370   3.371   5.297   8.990  1.4103 -0.5791  0.2576
   58SAPC  H19S 4371   3.252   5.237   8.867  0.5565  0.4337 -1.5513
   58SAPC  C220 4372   3.456   5.247   8.807 -0.3326 -0.4701  0.1958
   58SAPC  H20R 4373   3.468   5.169   8.728 -0.3322 -0.9053  0.6246
   58SAPC  H20S 4374   3.553   5.267   8.857 -0.9419 -1.0896  1.7026
   58SAPC  H20T 4375   3.433   5.341   8.753 -0.3883 -1.0016 -0.7381
   58SAPC   C33 4376   3.355   4.180   9.761  0.1445 -0.1131  0.1377
   58SAPC   H3X 4377   3.348   4.072   9.783  1.8598  0.0811  1.9878
   58SAPC   H3Y 4378   3.464   4.203   9.771 -0.3960  2.8671  0.2678
   58SAPC   C34 4379   3.311   4.200   9.624  0.7058  0.1997  0.7393
   58SAPC   H4X 4380   3.321   4.309   9.604  0.5987  0.2168  0.7802
   58SAPC   H4Y 4381   3.202   4.182   9.626  0.4112  1.7373 -0.2445
   58SAPC   C35 4382   3.379   4.115   9.519  0.1771  0.2697 -0.0596
   58SAPC   H5X 4383   3.359   4.007   9.534  1.5055 -0.2935 -1.9538
   58SAPC   H5Y 4384   3.488   4.121   9.537  0.0218 -0.6302  1.3318
   58SAPC   C36 4385   3.343   4.165   9.377 -1.0437  0.1830  0.2829
   58SAPC   H6X 4386   3.373   4.271   9.364 -0.9379  0.2265  0.8652
   58SAPC   H6Y 4387   3.233   4.153   9.363 -1.0959 -1.8710  1.8550
   58SAPC   C37 4388   3.418   4.070   9.274  0.1899 -0.7338  0.2384
   58SAPC   H7X 4389   3.366   3.972   9.270  0.5646 -0.9361  0.2258
   58SAPC   H7Y 4390   3.521   4.048   9.311 -0.6189 -1.1943  2.3980
   58SAPC   C38 4391   3.412   4.125   9.131 -0.6108  0.9308 -0.3952
   58SAPC   H8X 4392   3.475   4.216   9.127 -2.0501  2.1778  2.3762
   58SAPC   H8Y 4393   3.311   4.161   9.105 -0.8909 -0.0260 -0.6912
   58SAPC   C39 4394   3.474   4.034   9.026  0.9564  0.2205  0.7933
   58SAPC   H9X 4395   3.432   3.932   9.034  1.5564 -0.4088 -2.4709
   58SAPC   H9Y 4396   3.581   4.017   9.048  1.2197  2.2201  1.2618
   58SAPC  C310 4397   3.451   4.065   8.881 -0.3251  0.0814 -0.1368
   58SAPC  H10X 4398   3.528   4.013   8.820 -0.3764 -1.0640  0.7406
   58SAPC  H10Y 4399   3.469   4.174   8.870 -0.1365 -0.0081 -0.7858
   58SAPC  C311 4400   3.314   4.022   8.828 -0.1658 -0.0749 -0.2356
   58SAPC  H11X 4401   3.237   4.080   8.884  0.3564  0.8381 -0.4356
   58SAPC  H11Y 4402   3.296   3.916   8.854 -1.2913  0.2423  0.3390
   58SAPC  C312 4403   3.295   4.053   8.679 -0.2602  0.1247  0.4281
   58SAPC  H12X 4404   3.373   4.000   8.620  0.4222 -0.6204  1.9315
   58SAPC  H12Y 4405   3.317   4.161   8.664  0.0488  0.0682  0.4728
   58SAPC  C313 4406   3.156   4.021   8.612  0.2913  0.4023 -0.0460
   58SAPC  H13X 4407   3.150   3.911   8.617  0.5966  0.3952  0.1904
   58SAPC  H13Y 4408   3.156   4.060   8.507 -1.2505 -1.6675 -0.8896
   58SAPC  C314 4409   3.035   4.082   8.692 -0.0425 -0.7243  0.2029
   58SAPC  H14X 4410   3.062   4.181   8.736  0.7698 -0.3883 -1.0113
   58SAPC  H14Y 4411   3.020   4.013   8.778 -0.0552 -3.6827 -2.0396
   58SAPC  C315 4412   2.904   4.119   8.617  0.9714 -0.3239  0.1121
   58SAPC  H15X 4413   2.870   4.035   8.552 -0.7773  2.8408 -3.4362
   58SAPC  H15Y 4414   2.924   4.206   8.552  0.6656 -0.8041 -0.6364
   58SAPC  C316 4415   2.791   4.174   8.709  0.2600  0.2977 -0.8286
   58SAPC  H16X 4416   2.833   4.230   8.795  0.1761 -1.1014  0.1653
   58SAPC  H16Y 4417   2.731   4.089   8.748  1.1402 -1.0761 -2.3606
   58SAPC  C317 4418   2.697   4.257   8.631 -0.1499 -0.9276  0.4951
   58SAPC  H17X 4419   2.755   4.340   8.586 -0.7292 -0.9262 -0.2552
   58SAPC  H17Y 4420   2.622   4.296   8.703  0.7492  1.5655  0.1694
   58SAPC  C318 4421   2.623   4.168   8.529  0.1516  0.0310 -0.2051
   58SAPC  H18X 4422   2.517   4.202   8.523 -0.2338 -1.0954  0.0047
   58SAPC  H18Y 4423   2.622   4.061   8.560 -3.0794  0.6870  2.5487
   58SAPC  H18Z 4424   2.677   4.160   8.432  0.3026 -0.8118 -0.0622
   59SAPC     N 4425   5.639   2.141  11.252 -0.5479  0.5417  0.5660
   59SAPC   C12 4426   5.721   2.267  11.223  0.5313 -0.4676  0.1044
   59SAPC  H12A 4427   5.769   2.289  11.318 -2.4340 -3.3184  2.5316
   59SAPC  H12B 4428   5.652   2.349  11.212  0.9664 -0.4491 -3.3885
   59SAPC   C13 4429   5.727   2.043  11.325  0.0808 -0.2983  0.0451
   59SAPC  H13A 4430   5.830   2.051  11.293  0.5553 -0.3210  1.4768
   59SAPC  H13B 4431   5.712   2.060  11.431 -1.7564  0.9148 -0.3628
   59SAPC  H13C 4432   5.703   1.940  11.306  0.3708 -1.3006  4.0443
   59SAPC   C14 4433   5.528   2.167  11.341 -0.2108  0.1633 -0.0655
   59SAPC  H14A 4434   5.456   2.087  11.353 -2.2896  2.0857  1.1739
   59SAPC  H14B 4435   5.562   2.195  11.440 -2.0529  2.6113 -0.0457
   59SAPC  H14C 4436   5.458   2.238  11.300 -2.1023 -1.5647  0.0228
   59SAPC   C15 4437   5.592   2.076  11.124 -0.8587 -0.8135 -0.5368
   59SAPC  H15A 4438   5.674   2.075  11.054 -0.8868 -1.4524 -0.5694
   59SAPC  H15B 4439   5.562   1.972  11.132 -1.3997 -0.5338  1.9220
   59SAPC  H15C 4440   5.514   2.138  11.082  0.9571 -0.2250 -3.3020
   59SAPC   C11 4441   5.828   2.272  11.113  0.5182 -0.2183 -0.0981
   59SAPC  H11A 4442   5.875   2.372  11.115 -0.7231  0.4763 -2.1976
   59SAPC  H11B 4443   5.769   2.261  11.019 -2.7134 -0.1082  1.7695
   59SAPC     P 4444   5.967   2.066  11.019 -0.3645 -0.3607 -0.1983
   59SAPC   O13 4445   6.088   2.122  10.959  0.2861 -0.5167 -0.1407
   59SAPC   O14 4446   5.976   1.933  11.087  0.0440 -0.1980 -0.3819
   59SAPC   O12 4447   5.923   2.170  11.126 -0.2640  1.5000 -0.0486
   59SAPC   O11 4448   5.852   2.063  10.917  0.6171  0.5405 -0.2338
   59SAPC    C1 4449   5.880   1.983  10.795 -0.0016  0.0018 -0.9219
   59SAPC    HA 4450   5.975   2.015  10.746 -0.9084  0.1842 -2.6334
   59SAPC    HB 4451   5.902   1.878  10.824  1.2715 -0.1789 -2.4230
   59SAPC    C2 4452   5.761   1.983  10.697  0.4349 -0.2365 -0.0361
   59SAPC    HS 4453   5.773   1.906  10.618  0.0925  0.3690 -0.6859
   59SAPC   O21 4454   5.762   2.109  10.630 -0.1700 -0.2715  0.4165
   59SAPC   C21 4455   5.835   2.119  10.515  0.3091 -0.3711  0.0997
   59SAPC   O22 4456   5.900   2.023  10.481  0.2024  0.8244 -0.4884
   59SAPC   C22 4457   5.817   2.252  10.439 -0.1853  0.0494 -0.0426
   59SAPC   H2R 4458   5.734   2.307  10.487 -0.4264 -2.9165  3.3613
   59SAPC   H2S 4459   5.912   2.307  10.457  0.3440 -0.9509  0.3536
   59SAPC    C3 4460   5.625   1.965  10.772 -0.5607  0.2976  0.7450
   59SAPC    HX 4461   5.604   2.055  10.834  4.1574  2.0809  0.1429
   59SAPC    HY 4462   5.645   1.885  10.846 -1.0930 -2.0877 -1.5287
   59SAPC   O31 4463   5.527   1.920  10.680 -0.0556 -0.3775 -0.9989
   59SAPC   C31 4464   5.450   2.016  10.628 -1.1157  0.1352  0.3072
   59SAPC   O32 4465   5.452   2.131  10.669 -0.5943 -0.4601  0.4929
   59SAPC   C32 4466   5.341   1.953  10.546  0.0915  0.5839  1.0089
   59SAPC   H2X 4467   5.258   1.936  10.619 -0.5035  0.5760  0.3398
   59SAPC   H2Y 4468   5.381   1.852  10.522  0.0159  0.7921 -0.0358
   59SAPC   C23 4469   5.807   2.234  10.286  1.2404  0.3684  0.1493
   59SAPC   H3R 4470   5.785   2.332  10.239 -0.6090 -0.9659 -1.9560
   59SAPC   H3S 4471   5.714   2.176  10.270  1.3053  0.2589  0.1682
   59SAPC   C24 4472   5.926   2.172  10.214  0.2737 -0.2863  0.5480
   59SAPC   H4R 4473   5.904   2.164  10.105 -0.7060  2.6041  0.4688
   59SAPC   H4S 4474   5.954   2.069  10.245  0.0784 -0.2121  0.9817
   59SAPC   C25 4475   6.053   2.257  10.240  0.1546  0.4043  0.4589
   59SAPC   H5R 4476   6.095   2.241  10.341 -3.1691 -1.2783  1.7051
   59SAPC   C26 4477   6.111   2.344  10.158 -0.8679 -0.1814 -0.0347
   59SAPC   H6R 4478   6.198   2.406  10.188  1.1528 -0.8780 -3.8058
   59SAPC   C27 4479   6.061   2.381  10.020 -0.1748  0.1904  0.1241
   59SAPC   H7R 4480   6.057   2.491  10.009  0.7699  0.5735  2.7919
   59SAPC   H7S 4481   5.956   2.344  10.013  0.5345 -1.5939 -3.7951
   59SAPC   C28 4482   6.141   2.319   9.909 -0.5852  0.0155 -0.1168
   59SAPC   H8R 4483   6.249   2.322   9.929 -0.6009 -1.9055  0.4263
   59SAPC   C29 4484   6.101   2.259   9.794 -0.2031 -0.3087 -0.1000
   59SAPC   H9R 4485   6.173   2.219   9.722 -0.7952  0.8114 -1.3617
   59SAPC  C210 4486   5.963   2.248   9.741  0.6120 -0.5121 -0.0254
   59SAPC  H10R 4487   5.893   2.317   9.792 -0.6384 -2.9041  1.7095
   59SAPC  H10S 4488   5.921   2.151   9.777 -2.7943  0.6491 -0.5532
   59SAPC  C211 4489   5.957   2.266   9.590  0.3276 -0.4579 -0.9638
   59SAPC  H11R 4490   5.974   2.371   9.562 -0.9160 -0.1276 -0.5537
   59SAPC  C212 4491   5.918   2.169   9.499 -0.1496 -0.2871  0.0893
   59SAPC  H12R 4492   5.923   2.201   9.394 -0.7746  2.4287  0.8126
   59SAPC  C213 4493   5.868   2.030   9.533  1.0493 -0.7824  0.2648
   59SAPC  H13R 4494   5.774   2.015   9.474  1.9461  0.8506 -1.7014
   59SAPC  H13S 4495   5.819   2.024   9.633 -0.8885 -1.5894 -0.6716
   59SAPC  C214 4496   5.974   1.929   9.496 -0.9353 -0.8145  0.3165
   59SAPC  H14R 4497   6.018   1.933   9.395 -0.5955 -1.7163  0.4198
   59SAPC  C215 4498   6.035   1.835   9.581 -0.3814 -0.6199  0.0652
   59SAPC  H15R 4499   6.112   1.768   9.539 -1.1019 -1.9372  0.7971
   59SAPC  C216 4500   6.016   1.836   9.723  0.3430  1.2508  0.0917
   59SAPC  H16R 4501   5.914   1.805   9.755  0.5775 -1.4127 -1.4342
   59SAPC  H16S 4502   6.037   1.937   9.764 -0.4413  1.8341 -0.8973
   59SAPC  C217 4503   6.109   1.729   9.789 -0.2076 -0.0050  0.0475
   59SAPC  H17R 4504   6.213   1.723   9.750  0.2904  0.6462  1.2013
   59SAPC  H17S 4505   6.055   1.633   9.776 -0.6247 -0.0050  1.5358
   59SAPC  C218 4506   6.119   1.751   9.940  0.3544 -0.2682  0.8584
   59SAPC  H18R 4507   6.185   1.668   9.975  1.5343 -0.2616 -1.1913
   59SAPC  H18S 4508   6.019   1.751   9.989  0.4667  0.5834  1.0991
   59SAPC  C219 4509   6.201   1.879   9.969  0.3107 -0.1427 -0.4596
   59SAPC  H19R 4510   6.134   1.967   9.982  1.1399  0.2679  1.4764
   59SAPC  H19S 4511   6.267   1.885   9.880  0.1170  0.7537 -0.5482
   59SAPC  C220 4512   6.286   1.877  10.095  0.2217  0.0029 -0.4914
   59SAPC  H20R 4513   6.230   1.886  10.190  0.4058 -1.0669 -0.2675
   59SAPC  H20S 4514   6.355   1.964  10.103  1.6570 -1.1450  0.0257
   59SAPC  H20T 4515   6.337   1.778  10.096 -0.5053 -0.4468 -2.7520
   59SAPC   C33 4516   5.319   2.055  10.432  0.4621 -0.2118 -0.1070
   59SAPC   H3X 4517   5.294   2.154  10.477 -0.2457  0.4305 -1.8325
   59SAPC   H3Y 4518   5.229   2.028  10.373  1.4110 -0.1380 -1.6373
   59SAPC   C34 4519   5.435   2.070  10.333 -0.3977 -0.8091 -0.5092
   59SAPC   H4X 4520   5.441   1.966  10.294 -2.5510 -1.0436 -0.3431
   59SAPC   H4Y 4521   5.532   2.100  10.379 -1.1647 -0.2195  0.7699
   59SAPC   C35 4522   5.408   2.163  10.216 -0.2093  0.2030  0.0388
   59SAPC   H5X 4523   5.436   2.269  10.236  1.8846  0.0269 -1.5921
   59SAPC   H5Y 4524   5.303   2.163  10.179  0.1050 -1.5156 -0.9474
   59SAPC   C36 4525   5.495   2.114  10.098  0.2545 -0.1201 -0.5409
   59SAPC   H6X 4526   5.484   2.003  10.095 -0.8860  0.0039 -2.0618
   59SAPC   H6Y 4527   5.599   2.152  10.110 -0.1707  1.0785 -0.5778
   59SAPC   C37 4528   5.455   2.175   9.967  0.0004  0.1927  0.8276
   59SAPC   H7X 4529   5.469   2.285   9.965 -1.4817  0.3928 -0.3967
   59SAPC   H7Y 4530   5.351   2.154   9.932 -0.9691 -1.1593  4.0719
   59SAPC   C38 4531   5.541   2.123   9.854  0.8397 -0.4000 -0.1319
   59SAPC   H8X 4532   5.540   2.012   9.862 -2.6432 -0.5229 -0.3464
   59SAPC   H8Y 4533   5.645   2.152   9.877 -0.2662  3.3438  0.8689
   59SAPC   C39 4534   5.506   2.180   9.709  0.2229 -0.0812 -1.1965
   59SAPC   H9X 4535   5.607   2.185   9.662  0.7895  0.4118  0.0091
   59SAPC   H9Y 4536   5.466   2.282   9.727 -0.9683 -0.4080 -1.9595
   59SAPC  C310 4537   5.423   2.073   9.636  0.8009 -0.1866 -0.3186
   59SAPC  H10X 4538   5.328   2.058   9.693  1.2227 -1.2634  0.1359
   59SAPC  H10Y 4539   5.480   1.978   9.642 -0.3966 -0.8484  2.9372
   59SAPC  C311 4540   5.393   2.125   9.496  0.3257  0.2170  0.5730
   59SAPC  H11X 4541   5.342   2.223   9.501 -2.1531 -1.0396  3.0694
   59SAPC  H11Y 4542   5.324   2.049   9.453  1.7318  0.9906 -3.5565
   59SAPC  C312 4543   5.512   2.121   9.395  0.0259  0.6037 -0.5001
   59SAPC  H12X 4544   5.534   2.012   9.399  2.1681  0.8962 -2.2735
   59SAPC  H12Y 4545   5.600   2.169   9.443  0.1809 -0.5543  0.4260
   59SAPC  C313 4546   5.469   2.175   9.261 -0.9248 -0.3151 -0.0297
   59SAPC  H13X 4547   5.416   2.272   9.274 -1.2231 -0.2074 -1.7978
   59SAPC  H13Y 4548   5.389   2.108   9.222 -0.7240  0.0272 -1.0611
   59SAPC  C314 4549   5.583   2.184   9.158 -0.8691  0.3586  0.2207
   59SAPC  H14X 4550   5.610   2.077   9.144  1.0435  1.1702 -3.2650
   59SAPC  H14Y 4551   5.666   2.243   9.203 -0.8832  1.2572 -0.8956
   59SAPC  C315 4552   5.550   2.226   9.014  0.3323 -0.0054 -0.1900
   59SAPC  H15X 4553   5.479   2.311   9.013  0.3325 -0.0067 -0.5238
   59SAPC  H15Y 4554   5.504   2.142   8.959  0.6684  0.0009 -0.4858
   59SAPC  C316 4555   5.666   2.264   8.926  0.1082 -0.0505 -0.0899
   59SAPC  H16X 4556   5.724   2.173   8.898 -1.4207 -0.8797 -0.6907
   59SAPC  H16Y 4557   5.728   2.333   8.986 -0.0817 -1.2128  1.5142
   59SAPC  C317 4558   5.618   2.343   8.802  0.3105  0.0491 -0.0638
   59SAPC  H17X 4559   5.563   2.434   8.835  1.5222  0.2371  1.5371
   59SAPC  H17Y 4560   5.543   2.275   8.755 -2.1834  1.0485  2.1966
   59SAPC  C318 4561   5.722   2.377   8.693  0.1493 -1.0145  0.5502
   59SAPC  H18X 4562   5.800   2.450   8.723 -0.2529  0.4642 -1.7356
   59SAPC  H18Y 4563   5.662   2.429   8.615 -0.2822 -1.0530  0.8555
   59SAPC  H18Z 4564   5.762   2.281   8.655 -0.7653 -0.9614 -0.6398
   60SAPC     N 4565   5.134   5.728  10.834  0.2763 -0.5340 -0.5995
   60SAPC   C12 4566   5.106   5.810  10.709  0.0192  0.0511  0.4447
   60SAPC  H12A 4567   5.001   5.798  10.687  0.1289  0.4269 -0.3087
   60SAPC  H12B 4568   5.158   5.757  10.630 -2.0313 -2.9551  0.9476
   60SAPC   C13 4569   5.060   5.788  10.946  0.9113 -0.8708 -0.0569
   60SAPC  H13A 4570   4.957   5.772  10.920  1.3098 -2.8970 -0.6215
   60SAPC  H13B 4571   5.090   5.737  11.036 -1.9907 -2.7693 -0.0461
   60SAPC  H13C 4572   5.075   5.894  10.955  1.2140 -0.9884  0.9454
   60SAPC   C14 4573   5.089   5.584  10.822 -0.6859  1.0839 -0.1355
   60SAPC  H14A 4574   4.982   5.569  10.827 -0.4592 -1.1589 -0.8253
   60SAPC  H14B 4575   5.113   5.545  10.724  1.5086  2.6065 -0.2895
   60SAPC  H14C 4576   5.129   5.521  10.900 -0.1619 -0.3055 -1.4635
   60SAPC   C15 4577   5.279   5.724  10.857 -0.1697 -0.0561 -0.1880
   60SAPC  H15A 4578   5.333   5.673  10.779 -1.5025 -2.2023  0.1991
   60SAPC  H15B 4579   5.321   5.823  10.863 -0.7820  0.2597 -1.0368
   60SAPC  H15C 4580   5.301   5.675  10.951  1.3691 -0.1115 -0.5485
   60SAPC   C11 4581   5.146   5.956  10.706  0.3122  0.1524  0.5208
   60SAPC  H11A 4582   5.106   6.017  10.790  0.9043  0.0271  0.8947
   60SAPC  H11B 4583   5.094   5.980  10.611  1.0210 -3.0669 -0.7990
   60SAPC     P 4584   5.359   6.059  10.588  0.2205  0.0141 -0.6550
   60SAPC   O13 4585   5.368   6.200  10.629 -0.3394 -0.2971 -0.2176
   60SAPC   O14 4586   5.493   5.996  10.566 -0.7962  0.1571 -0.5246
   60SAPC   O12 4587   5.288   5.979  10.700  0.5591 -0.6358  0.0794
   60SAPC   O11 4588   5.276   6.035  10.459  0.0524 -0.5848  0.5537
   60SAPC    C1 4589   5.265   5.906  10.399  0.6268 -0.2984  0.4663
   60SAPC    HA 4590   5.288   5.828  10.475  2.6821  1.1949  1.4798
   60SAPC    HB 4591   5.164   5.891  10.356  0.5869  1.6366 -0.1823
   60SAPC    C2 4592   5.364   5.891  10.285 -0.1641  0.2354  0.4498
   60SAPC    HS 4593   5.465   5.890  10.330  0.3470  0.2341 -0.6602
   60SAPC   O21 4594   5.335   5.998  10.190 -0.3899 -0.4134  0.0147
   60SAPC   C21 4595   5.446   6.053  10.143 -0.3382  0.2678 -0.5780
   60SAPC   O22 4596   5.558   6.015  10.182  0.1008 -0.0318  0.0847
   60SAPC   C22 4597   5.426   6.171  10.051 -0.1581 -0.1840  0.0712
   60SAPC   H2R 4598   5.321   6.174  10.015 -1.1023 -0.7911  2.5406
   60SAPC   H2S 4599   5.448   6.257  10.118  0.6623 -0.4344  0.1297
   60SAPC    C3 4600   5.347   5.749  10.226  0.1013 -0.0679 -0.5194
   60SAPC    HX 4601   5.241   5.719  10.241  0.3248 -0.7513 -0.2459
   60SAPC    HY 4602   5.399   5.674  10.289 -0.7122  0.7189  1.1443
   60SAPC   O31 4603   5.378   5.754  10.089 -0.0368  0.2959 -0.2893
   60SAPC   C31 4604   5.492   5.691  10.056 -0.0479  0.5557  0.2221
   60SAPC   O32 4605   5.582   5.653  10.127 -0.1446 -0.0382  0.2240
   60SAPC   C32 4606   5.491   5.664   9.902 -0.1613 -1.0568 -0.3169
   60SAPC   H2X 4607   5.468   5.761   9.853 -1.6334 -2.2126 -2.0317
   60SAPC   H2Y 4608   5.414   5.586   9.881 -1.8775  0.7467 -1.1444
   60SAPC   C23 4609   5.521   6.179   9.931 -0.2341 -0.2255 -0.0322
   60SAPC   H3R 4610   5.628   6.168   9.961 -0.5346  0.2028  1.2458
   60SAPC   H3S 4611   5.523   6.282   9.889  1.6028 -0.3152 -0.2732
   60SAPC   C24 4612   5.485   6.077   9.823 -0.0965  0.0603 -0.2928
   60SAPC   H4R 4613   5.495   5.980   9.876 -1.8490  0.1377  0.2364
   60SAPC   H4S 4614   5.577   6.089   9.761  1.2023 -0.2754  1.5035
   60SAPC   C25 4615   5.354   6.079   9.748 -0.1086  0.6395  0.0751
   60SAPC   H5R 4616   5.264   6.091   9.810 -0.2682 -2.1666  0.5041
   60SAPC   C26 4617   5.333   6.056   9.616 -0.3465 -0.3617 -0.4394
   60SAPC   H6R 4618   5.229   6.073   9.585 -0.2948  1.2102  0.1380
   60SAPC   C27 4619   5.436   6.028   9.512  0.7766  0.3869  0.4130
   60SAPC   H7R 4620   5.385   5.969   9.433  0.6378 -1.0690  1.5470
   60SAPC   H7S 4621   5.517   5.960   9.548  0.6415 -0.5983 -1.0711
   60SAPC   C28 4622   5.503   6.150   9.458  0.1033  0.0534  0.1176
   60SAPC   H8R 4623   5.551   6.220   9.528 -0.3045 -0.1676  0.6226
   60SAPC   C29 4624   5.499   6.198   9.335  0.1129 -0.2004 -0.9890
   60SAPC   H9R 4625   5.561   6.288   9.320  1.8536 -1.2883 -0.5499
   60SAPC  C210 4626   5.423   6.136   9.216 -0.4496  0.5591 -0.5770
   60SAPC  H10R 4627   5.316   6.126   9.244  0.0674 -2.0766  0.7292
   60SAPC  H10S 4628   5.465   6.036   9.193 -0.0747  0.4872  0.3578
   60SAPC  C211 4629   5.431   6.228   9.094  0.0315  0.3518 -1.0833
   60SAPC  H11R 4630   5.513   6.301   9.085  1.0226 -0.2673  1.8890
   60SAPC  C212 4631   5.357   6.197   8.983 -0.7532  0.2362 -0.3334
   60SAPC  H12R 4632   5.378   6.261   8.896 -0.7350  1.9352  0.8550
   60SAPC  C213 4633   5.255   6.080   8.967  0.2507  0.1429  0.2010
   60SAPC  H13R 4634   5.267   5.990   9.031 -0.5774  0.3416  0.6431
   60SAPC  H13S 4635   5.269   6.045   8.862  2.5833 -0.8487  0.7814
   60SAPC  C214 4636   5.122   6.142   8.987 -0.5052 -0.2410  0.1650
   60SAPC  H14R 4637   5.111   6.164   9.094  2.0942 -0.2517  0.5065
   60SAPC  C215 4638   5.016   6.158   8.899 -0.1246  0.3098 -0.2853
   60SAPC  H15R 4639   4.921   6.203   8.932 -2.4336 -2.6534 -2.3560
   60SAPC  C216 4640   5.010   6.110   8.756 -0.1070  0.8217 -0.0974
   60SAPC  H16R 4641   4.904   6.083   8.738 -0.2530 -0.0625  1.7895
   60SAPC  H16S 4642   5.074   6.021   8.740 -0.9925 -0.1049  1.3504
   60SAPC  C217 4643   5.055   6.222   8.668  0.2947  0.0301 -0.3552
   60SAPC  H17R 4644   5.164   6.227   8.689  0.1536  0.5860  0.2829
   60SAPC  H17S 4645   5.012   6.320   8.697 -0.0564 -0.6058  1.3833
   60SAPC  C218 4646   5.023   6.209   8.516  0.3033  0.1686 -0.1277
   60SAPC  H18R 4647   5.069   6.290   8.453  2.1624  0.5383  1.5967
   60SAPC  H18S 4648   4.915   6.234   8.508  0.7897  2.1160 -1.6089
   60SAPC  C219 4649   5.043   6.068   8.458 -0.3885  0.0830  0.3168
   60SAPC  H19R 4650   4.989   5.985   8.509  0.6024 -1.4807 -1.0934
   60SAPC  H19S 4651   5.152   6.045   8.465 -0.5981 -0.4930  2.5401
   60SAPC  C220 4652   5.010   6.072   8.308  0.3637  0.7982 -0.0961
   60SAPC  H20R 4653   4.996   5.974   8.257  2.8974  0.2253  0.1893
   60SAPC  H20S 4654   5.062   6.143   8.241 -1.1474 -1.0436 -3.5226
   60SAPC  H20T 4655   4.901   6.090   8.318  0.2268 -0.4840  0.9713
   60SAPC   C33 4656   5.634   5.608   9.853 -0.0280  1.0382  0.1965
   60SAPC   H3X 4657   5.661   5.520   9.914 -2.6896 -1.5416 -2.0200
   60SAPC   H3Y 4658   5.714   5.684   9.861  0.7718  0.5687 -2.3297
   60SAPC   C34 4659   5.637   5.548   9.710  0.6224  0.6133  0.5490
   60SAPC   H4X 4660   5.576   5.456   9.711 -2.0359  2.2662  0.6243
   60SAPC   H4Y 4661   5.739   5.521   9.675  0.3205  0.6509 -0.3917
   60SAPC   C35 4662   5.589   5.660   9.606  0.2021  0.2410  0.9091
   60SAPC   H5X 4663   5.637   5.755   9.635  0.7315  0.8544 -1.6915
   60SAPC   H5Y 4664   5.480   5.664   9.624  0.3621 -0.9388  2.3503
   60SAPC   C36 4665   5.608   5.623   9.460 -0.0854 -0.6838  0.4957
   60SAPC   H6X 4666   5.560   5.527   9.432 -2.0801  0.3219  0.2569
   60SAPC   H6Y 4667   5.717   5.609   9.443 -0.2229 -0.9475 -0.2142
   60SAPC   C37 4668   5.556   5.719   9.357  1.0842  0.1778  0.7171
   60SAPC   H7X 4669   5.577   5.823   9.389  0.1265  0.2238  1.2528
   60SAPC   H7Y 4670   5.445   5.716   9.358  1.1006 -0.4921  0.9123
   60SAPC   C38 4671   5.615   5.681   9.219  0.7797 -0.0025 -0.7325
   60SAPC   H8X 4672   5.577   5.582   9.186 -4.1295  0.9459  1.2475
   60SAPC   H8Y 4673   5.726   5.680   9.224  0.8987  2.0289 -1.9111
   60SAPC   C39 4674   5.575   5.792   9.121  0.6241 -0.0678 -0.3219
   60SAPC   H9X 4675   5.622   5.891   9.143 -3.2295  1.8738  0.0839
   60SAPC   H9Y 4676   5.467   5.815   9.136  0.7171 -0.4954  1.1589
   60SAPC  C310 4677   5.609   5.771   8.973 -0.2124 -0.3847  0.1405
   60SAPC  H10X 4678   5.564   5.679   8.929 -1.2072  0.8609 -1.5694
   60SAPC  H10Y 4679   5.720   5.759   8.967  0.0521  2.1552 -2.2628
   60SAPC  C311 4680   5.555   5.884   8.898 -0.4253 -0.7930  0.7280
   60SAPC  H11X 4681   5.591   5.983   8.934  0.9931 -1.1444  0.3074
   60SAPC  H11Y 4682   5.446   5.894   8.918 -0.5283 -0.6655  0.1054
   60SAPC  C312 4683   5.571   5.863   8.744 -0.1321 -0.2054  1.3740
   60SAPC  H12X 4684   5.541   5.760   8.716  2.4672 -0.0368 -2.7800
   60SAPC  H12Y 4685   5.680   5.872   8.725 -0.1077 -0.6599  1.2864
   60SAPC  C313 4686   5.485   5.957   8.661 -0.2917 -0.2898 -0.3283
   60SAPC  H13X 4687   5.380   5.945   8.696  0.4626 -0.6952  1.9542
   60SAPC  H13Y 4688   5.489   5.925   8.554  1.5995  1.5667 -0.8744
   60SAPC  C314 4689   5.541   6.101   8.664  0.2084  0.3602  0.3536
   60SAPC  H14X 4690   5.647   6.107   8.629  0.3275  2.7969  0.9883
   60SAPC  H14Y 4691   5.557   6.156   8.759  1.3290  2.4255 -0.9448
   60SAPC  C315 4692   5.464   6.204   8.573 -0.3023 -0.0888  0.4724
   60SAPC  H15X 4693   5.524   6.297   8.574 -2.2980  1.4024 -2.3589
   60SAPC  H15Y 4694   5.370   6.230   8.626  0.6196  1.0451  1.6122
   60SAPC  C316 4695   5.434   6.153   8.429 -0.5403 -0.1367 -0.0740
   60SAPC  H16X 4696   5.368   6.065   8.416 -0.0591 -0.2109 -2.5367
   60SAPC  H16Y 4697   5.540   6.135   8.402 -0.4336 -0.1719  0.3575
   60SAPC  C317 4698   5.386   6.263   8.337 -0.1118 -0.2302 -0.0945
   60SAPC  H17X 4699   5.447   6.351   8.368 -0.2614  0.6335 -2.1316
   60SAPC  H17Y 4700   5.280   6.288   8.361 -0.1961 -1.5392  1.0189
   60SAPC  C318 4701   5.392   6.238   8.189  0.2131 -0.6914 -0.2755
   60SAPC  H18X 4702   5.492   6.215   8.146  0.0688 -1.7711 -0.0650
   60SAPC  H18Y 4703   5.356   6.323   8.128  0.2013 -0.8466 -0.4872
   60SAPC  H18Z 4704   5.338   6.146   8.158 -1.4095  0.0881  0.1587
   61SAPC     N 4705   6.362   4.998  10.992 -0.9224  0.3015  0.4446
   61SAPC   C12 4706   6.286   5.122  11.010  0.1909  0.8299  0.4899
   61SAPC  H12A 4707   6.232   5.118  11.103  1.9111  1.5592  1.5788
   61SAPC  H12B 4708   6.211   5.132  10.933  2.0725  1.7170 -1.3270
   61SAPC   C13 4709   6.491   5.000  11.068  0.2108  1.0250 -0.1448
   61SAPC  H13A 4710   6.479   5.008  11.175 -1.2321  0.9462 -0.2855
   61SAPC  H13B 4711   6.530   4.899  11.070 -0.1508  0.8298 -1.9068
   61SAPC  H13C 4712   6.566   5.068  11.031 -0.5694  1.6928 -0.5005
   61SAPC   C14 4713   6.282   4.878  11.028  0.8582 -0.8334 -0.4643
   61SAPC  H14A 4714   6.233   4.900  11.122 -0.9327  0.6971 -1.6801
   61SAPC  H14B 4715   6.205   4.866  10.953 -3.9179 -0.3512  3.8529
   61SAPC  H14C 4716   6.348   4.793  11.019  0.3908 -1.4421  1.3649
   61SAPC   C15 4717   6.387   4.985  10.850 -0.1022  0.1561 -0.0175
   61SAPC  H15A 4718   6.432   5.074  10.809 -2.1997  1.2221 -0.1179
   61SAPC  H15B 4719   6.464   4.914  10.821  0.7793  1.2786 -0.4705
   61SAPC  H15C 4720   6.304   4.968  10.782 -0.5072  0.2984  0.4414
   61SAPC   C11 4721   6.363   5.261  11.014 -0.4336 -0.3940  0.2024
   61SAPC  H11A 4722   6.423   5.259  11.107  0.6534 -2.1185 -0.4937
   61SAPC  H11B 4723   6.287   5.342  11.018 -1.0313 -0.9555  0.5354
   61SAPC     P 4724   6.587   5.334  10.915 -0.2792 -0.3203  0.2022
   61SAPC   O13 4725   6.581   5.459  11.004 -0.0729 -0.4348  0.4361
   61SAPC   O14 4726   6.676   5.223  10.957  0.1191 -0.4094  0.8134
   61SAPC   O12 4727   6.447   5.269  10.897  0.6287 -0.3986 -0.3202
   61SAPC   O11 4728   6.630   5.379  10.772 -0.2336  0.3142 -0.5108
   61SAPC    C1 4729   6.570   5.494  10.707 -0.0289 -0.5204 -0.0503
   61SAPC    HA 4730   6.481   5.537  10.757  0.1142  1.3155 -1.2848
   61SAPC    HB 4731   6.645   5.575  10.706 -1.6032  1.0372  1.6900
   61SAPC    C2 4732   6.519   5.449  10.565 -0.4983  0.4069  1.2522
   61SAPC    HS 4733   6.425   5.397  10.595 -1.6077  1.2284 -0.5828
   61SAPC   O21 4734   6.621   5.372  10.491  0.2407 -0.0016 -0.0845
   61SAPC   C21 4735   6.584   5.256  10.455  0.1446 -0.3192  0.0843
   61SAPC   O22 4736   6.474   5.206  10.468  0.5076 -0.4800 -0.3944
   61SAPC   C22 4737   6.705   5.183  10.388  0.0272  0.1547 -0.2308
   61SAPC   H2R 4738   6.797   5.241  10.410  0.8778 -0.4970 -1.8476
   61SAPC   H2S 4739   6.701   5.086  10.441 -2.6997 -0.2215 -0.9824
   61SAPC    C3 4740   6.476   5.569  10.477 -0.2569  0.6990 -0.3229
   61SAPC    HX 4741   6.572   5.624  10.463  0.0003  1.3030  2.9551
   61SAPC    HY 4742   6.409   5.635  10.535  2.4075  0.4409  3.4041
   61SAPC   O31 4743   6.411   5.532  10.354  0.2895 -0.0007  0.2987
   61SAPC   C31 4744   6.290   5.477  10.366  0.1817  0.3238  0.2371
   61SAPC   O32 4745   6.229   5.461  10.469 -0.0468  0.1779  0.2367
   61SAPC   C32 4746   6.226   5.458  10.230  0.4866 -0.1012 -0.9981
   61SAPC   H2X 4747   6.264   5.368  10.177  1.9856  0.2599 -0.5771
   61SAPC   H2Y 4748   6.266   5.541  10.168  0.7080 -1.4952 -2.8081
   61SAPC   C23 4749   6.682   5.163  10.235  0.3988  0.1214  0.6833
   61SAPC   H3R 4750   6.573   5.167  10.217  0.2844 -2.1273  0.6987
   61SAPC   H3S 4751   6.720   5.064  10.203  2.0804  0.2460  2.1133
   61SAPC   C24 4752   6.754   5.274  10.153  0.0214  0.2305 -0.2614
   61SAPC   H4R 4753   6.737   5.245  10.047  0.2833 -0.9563  0.0038
   61SAPC   H4S 4754   6.862   5.270  10.179  0.3762  1.4863 -1.4177
   61SAPC   C25 4755   6.716   5.424  10.176  0.3029  0.0109 -0.1145
   61SAPC   H5R 4756   6.746   5.461  10.275 -0.1472 -1.6875  0.6889
   61SAPC   C26 4757   6.669   5.513  10.086  0.0507  0.1928 -1.3999
   61SAPC   H6R 4758   6.674   5.619  10.114  1.5672 -0.4782  1.2030
   61SAPC   C27 4759   6.624   5.474   9.939 -0.9511  0.0782  0.0590
   61SAPC   H7R 4760   6.667   5.385   9.890 -2.6455  0.5772 -2.5020
   61SAPC   H7S 4761   6.668   5.557   9.879  1.1874 -2.7574 -2.5580
   61SAPC   C28 4762   6.471   5.463   9.925  0.1850  0.2589 -0.2512
   61SAPC   H8R 4763   6.416   5.457  10.020 -0.6987  0.8375 -0.7010
   61SAPC   C29 4764   6.398   5.442   9.808  0.4038  0.1771 -0.4705
   61SAPC   H9R 4765   6.292   5.428   9.833  0.5924  3.3817  3.0805
   61SAPC  C210 4766   6.453   5.437   9.671 -0.3633  0.4184  0.0943
   61SAPC  H10R 4767   6.563   5.452   9.674 -0.5275  1.5598  0.8332
   61SAPC  H10S 4768   6.412   5.523   9.614  0.0945 -0.4548 -1.6386
   61SAPC  C211 4769   6.411   5.310   9.596  0.2414  0.1102  0.1428
   61SAPC  H11R 4770   6.383   5.221   9.654 -2.1918 -0.6471 -2.0205
   61SAPC  C212 4771   6.396   5.300   9.462 -0.0701  0.4992 -0.6828
   61SAPC  H12R 4772   6.382   5.201   9.418 -2.1157 -0.4095  1.7804
   61SAPC  C213 4773   6.413   5.411   9.359 -0.3748 -0.1730 -0.4394
   61SAPC  H13R 4774   6.519   5.414   9.327 -0.0244  0.8686  0.7296
   61SAPC  H13S 4775   6.400   5.505   9.417  2.3291 -0.4334  0.6997
   61SAPC  C214 4776   6.322   5.411   9.240  0.6614 -0.1732 -0.0423
   61SAPC  H14R 4777   6.367   5.375   9.147 -2.7988 -0.5557 -1.7357
   61SAPC  C215 4778   6.196   5.463   9.237  0.4545 -0.7563 -0.1886
   61SAPC  H15R 4779   6.134   5.472   9.146 -0.2056  0.9925  0.4068
   61SAPC  C216 4780   6.128   5.521   9.351 -0.2319 -0.5767  0.3305
   61SAPC  H16R 4781   6.062   5.599   9.307 -0.8779 -2.5928 -2.5533
   61SAPC  H16S 4782   6.198   5.574   9.419 -1.2145  2.0749 -0.5887
   61SAPC  C217 4783   6.065   5.411   9.437 -0.2357  0.4610 -0.4691
   61SAPC  H17R 4784   6.133   5.345   9.495  0.1004 -0.3207 -1.7072
   61SAPC  H17S 4785   6.003   5.343   9.374 -2.9215  1.0868  1.3455
   61SAPC  C218 4786   5.979   5.468   9.553 -0.1979  0.1580 -0.4908
   61SAPC  H18R 4787   5.922   5.381   9.593  0.4986 -0.0201  0.1424
   61SAPC  H18S 4788   5.905   5.541   9.515 -1.2217 -1.1356 -1.0859
   61SAPC  C219 4789   6.069   5.526   9.667  0.0717 -0.4346 -0.1093
   61SAPC  H19R 4790   6.146   5.591   9.620  1.2156 -0.4653  1.6374
   61SAPC  H19S 4791   6.133   5.446   9.711  0.0175 -1.0058 -1.0501
   61SAPC  C220 4792   5.989   5.608   9.775 -0.1288  0.4759  0.2875
   61SAPC  H20R 4793   5.907   5.669   9.732 -1.0733  2.1476  4.0372
   61SAPC  H20S 4794   6.055   5.679   9.829 -2.3426  1.8418  1.3336
   61SAPC  H20T 4795   5.950   5.540   9.854 -1.2746  0.9748  0.1691
   61SAPC   C33 4796   6.066   5.461  10.225  0.3738  0.0443 -0.3228
   61SAPC   H3X 4797   6.017   5.494  10.130  2.6397 -0.6260 -1.8103
   61SAPC   H3Y 4798   6.032   5.537  10.299  0.6824  0.2561 -0.3996
   61SAPC   C34 4799   6.012   5.320  10.260 -0.3802  0.2610  0.1995
   61SAPC   H4X 4800   6.021   5.314  10.370  0.8530  0.7803  0.1317
   61SAPC   H4Y 4801   6.073   5.239  10.215 -0.6412  1.0861 -1.7429
   61SAPC   C35 4802   5.866   5.294  10.216  0.6287  0.3093  0.4355
   61SAPC   H5X 4803   5.795   5.367  10.259 -0.9529 -0.5082 -0.6951
   61SAPC   H5Y 4804   5.840   5.196  10.262  0.8507 -1.9630 -3.7073
   61SAPC   C36 4805   5.848   5.279  10.064  0.0635 -0.3374  0.3986
   61SAPC   H6X 4806   5.917   5.197  10.035  2.1129  1.2084  0.5907
   61SAPC   H6Y 4807   5.881   5.369  10.008 -0.5116 -0.3353  0.0640
   61SAPC   C37 4808   5.708   5.224  10.027 -0.0814 -0.3203  0.2251
   61SAPC   H7X 4809   5.627   5.294  10.057 -0.1194 -1.3034  2.6716
   61SAPC   H7Y 4810   5.692   5.129  10.082 -2.7570  0.2388  0.5640
   61SAPC   C38 4811   5.698   5.201   9.873 -0.1097 -0.3640  0.3779
   61SAPC   H8X 4812   5.750   5.108   9.843 -0.5285  0.2204 -2.3790
   61SAPC   H8Y 4813   5.739   5.286   9.815  0.4742 -1.3503 -0.6905
   61SAPC   C39 4814   5.554   5.176   9.824 -0.1167  0.0583  0.0629
   61SAPC   H9X 4815   5.500   5.273   9.828 -0.7187 -0.3032  1.0704
   61SAPC   H9Y 4816   5.502   5.116   9.902  0.7000 -0.5521  0.1622
   61SAPC  C310 4817   5.554   5.098   9.695 -0.0778  0.1034  0.3652
   61SAPC  H10X 4818   5.450   5.081   9.660  1.3686 -0.8962 -4.0263
   61SAPC  H10Y 4819   5.594   4.997   9.718 -1.5101 -0.9309 -1.4599
   61SAPC  C311 4820   5.624   5.159   9.566  0.8117 -0.0701  0.1514
   61SAPC  H11X 4821   5.728   5.194   9.583  0.4800  0.5800  0.9338
   61SAPC  H11Y 4822   5.565   5.250   9.543 -0.2588 -1.0936 -1.3113
   61SAPC  C312 4823   5.611   5.071   9.444  0.8106  1.0808 -0.2926
   61SAPC  H12X 4824   5.515   5.014   9.442 -0.0244  2.4676 -0.6423
   61SAPC  H12Y 4825   5.693   5.001   9.417  0.7015  0.2198  1.4379
   61SAPC  C313 4826   5.583   5.165   9.316 -0.4076  0.3302  0.0385
   61SAPC  H13X 4827   5.497   5.228   9.346  0.7747  1.3072  1.5576
   61SAPC  H13Y 4828   5.551   5.114   9.223 -0.2112  1.3874 -0.6261
   61SAPC  C314 4829   5.716   5.230   9.270 -1.0610 -0.1227  0.1022
   61SAPC  H14X 4830   5.796   5.153   9.267 -0.2400  0.7068  0.2064
   61SAPC  H14Y 4831   5.756   5.310   9.335 -1.4390 -1.4256  2.0335
   61SAPC  C315 4832   5.709   5.284   9.126  0.0715 -0.9229  0.1625
   61SAPC  H15X 4833   5.623   5.352   9.109  1.5298  1.2735  1.1477
   61SAPC  H15Y 4834   5.690   5.199   9.056  0.2578 -0.2935 -0.6693
   61SAPC  C316 4835   5.837   5.345   9.067 -0.6966  0.6412  0.6980
   61SAPC  H16X 4836   5.901   5.265   9.023 -0.9152  0.5701  0.5061
   61SAPC  H16Y 4837   5.896   5.396   9.146  1.5696  0.9774 -1.0927
   61SAPC  C317 4838   5.815   5.441   8.942  0.0795  0.1444  0.9963
   61SAPC  H17X 4839   5.735   5.517   8.946  0.7482  0.9908 -0.7108
   61SAPC  H17Y 4840   5.788   5.372   8.859  0.3081  0.4402  0.6702
   61SAPC  C318 4841   5.938   5.519   8.896 -0.2759 -0.3659  0.0277
   61SAPC  H18X 4842   5.912   5.593   8.817 -1.5100  1.1186  1.7498
   61SAPC  H18Y 4843   6.013   5.451   8.850  1.1089  0.9065  0.3455
   61SAPC  H18Z 4844   5.985   5.573   8.980 -1.4790 -0.6480  0.8947
   62SAPC     N 4845   1.293   4.414  10.859 -0.1024 -0.2435 -0.5573
   62SAPC   C12 4846   1.274   4.305  10.755 -0.9146 -0.2882 -0.2551
   62SAPC  H12A 4847   1.368   4.256  10.737 -1.0113 -0.8298  0.6357
   62SAPC  H12B 4848   1.251   4.366  10.669  0.0124 -4.3980 -3.7503
   62SAPC   C13 4849   1.304   4.364  10.996  0.1210 -0.0869 -0.0697
   62SAPC  H13A 4850   1.216   4.307  11.020  0.5170 -1.2554 -1.2602
   62SAPC  H13B 4851   1.389   4.300  11.012  1.7318  2.1665  0.9785
   62SAPC  H13C 4852   1.303   4.446  11.067 -2.5950  0.4029 -0.5533
   62SAPC   C14 4853   1.419   4.501  10.828  0.5265 -0.0890  0.0274
   62SAPC  H14A 4854   1.411   4.528  10.724  3.3504 -1.7268 -0.6924
   62SAPC  H14B 4855   1.428   4.595  10.882 -0.4603  1.6007 -2.5576
   62SAPC  H14C 4856   1.513   4.449  10.829  0.3296 -0.5159 -1.3709
   62SAPC   C15 4857   1.172   4.504  10.860 -0.2317 -0.3086 -0.2483
   62SAPC  H15A 4858   1.082   4.449  10.885 -0.0316 -0.5789 -0.1179
   62SAPC  H15B 4859   1.192   4.574  10.940 -0.1057  0.4497 -0.9342
   62SAPC  H15C 4860   1.150   4.565  10.774 -1.5108 -1.6120 -0.8714
   62SAPC   C11 4861   1.167   4.197  10.771  0.8834 -0.3312 -0.5231
   62SAPC  H11A 4862   1.178   4.139  10.865  0.6776  0.3574 -0.0644
   62SAPC  H11B 4863   1.171   4.126  10.686  1.6125 -2.4380  1.1573
   62SAPC     P 4864   0.945   4.258  10.645 -0.0158  0.0934 -0.2913
   62SAPC   O13 4865   0.944   4.114  10.604  0.0399 -0.3751 -0.2748
   62SAPC   O14 4866   0.813   4.321  10.680 -0.1760  0.6028 -0.0884
   62SAPC   O12 4867   1.041   4.267  10.772  0.4856  0.0440 -0.4735
   62SAPC   O11 4868   1.029   4.347  10.549 -0.7797  0.1367  0.0249
   62SAPC    C1 4869   0.990   4.473  10.498  0.1448 -0.6442  0.8189
   62SAPC    HA 4870   0.924   4.527  10.569  1.0762 -0.3661  1.5011
   62SAPC    HB 4871   1.077   4.542  10.486 -0.5100  0.2589  1.1996
   62SAPC    C2 4872   0.907   4.468  10.371  0.3106  0.1454 -0.0638
   62SAPC    HS 4873   0.825   4.395  10.390  0.7632 -0.1594  0.7933
   62SAPC   O21 4874   0.999   4.420  10.270  0.0497  0.1855  0.4302
   62SAPC   C21 4875   0.950   4.327  10.184 -0.7844 -0.0138  0.2503
   62SAPC   O22 4876   0.833   4.294  10.181  0.1158  0.5502  0.1945
   62SAPC   C22 4877   1.057   4.269  10.091  0.3518  0.1075 -0.6562
   62SAPC   H2R 4878   1.145   4.246  10.154  0.6599  0.5794 -0.9104
   62SAPC   H2S 4879   1.015   4.173  10.054  2.5474 -1.3369  0.4087
   62SAPC    C3 4880   0.849   4.601  10.318  0.2864 -0.1245  0.1536
   62SAPC    HX 4881   0.942   4.657  10.292  0.3935 -0.5101 -0.3052
   62SAPC    HY 4882   0.793   4.650  10.400 -1.7500  0.5445 -1.5369
   62SAPC   O31 4883   0.763   4.590  10.203  0.1269  0.2056  0.2842
   62SAPC   C31 4884   0.639   4.540  10.230  0.1810  0.8298 -0.0885
   62SAPC   O32 4885   0.597   4.492  10.330 -0.0736  0.2145  0.1277
   62SAPC   C32 4886   0.547   4.563  10.107  0.6518 -0.2624 -0.2620
   62SAPC   H2X 4887   0.589   4.501  10.025 -3.3643 -3.8562  0.0572
   62SAPC   H2Y 4888   0.551   4.672  10.085  0.8887  0.0371  1.2230
   62SAPC   C23 4889   1.102   4.372   9.983 -0.1877  0.1220 -0.1713
   62SAPC   H3R 4890   1.193   4.334   9.930 -0.1122  0.2920 -0.1637
   62SAPC   H3S 4891   1.131   4.468  10.030  1.1461 -1.0144  1.4793
   62SAPC   C24 4892   0.996   4.390   9.880  0.1497  0.7192 -0.3966
   62SAPC   H4R 4893   1.007   4.485   9.823 -1.1536  1.1197 -0.0216
   62SAPC   H4S 4894   0.893   4.394   9.921  0.1152 -1.3768 -0.2018
   62SAPC   C25 4895   1.002   4.272   9.783 -0.0201 -0.2815  0.1108
   62SAPC   H5R 4896   1.027   4.178   9.834  0.2344  0.3124  1.1260
   62SAPC   C26 4897   0.968   4.259   9.651  0.0678 -0.4291  0.1750
   62SAPC   H6R 4898   0.999   4.168   9.598 -2.2975 -1.2719  0.0767
   62SAPC   C27 4899   0.915   4.373   9.558  0.4143 -0.2780 -0.0615
   62SAPC   H7R 4900   0.893   4.466   9.616 -1.2345 -0.1788 -0.7650
   62SAPC   H7S 4901   0.816   4.349   9.513  0.6500 -0.4339 -0.4965
   62SAPC   C28 4902   1.000   4.424   9.445 -0.3154  0.0457  0.0201
   62SAPC   H8R 4903   1.033   4.529   9.453 -0.2677  0.0338 -0.0250
   62SAPC   C29 4904   1.016   4.361   9.322  0.5311  0.9949  0.1915
   62SAPC   H9R 4905   1.055   4.413   9.234  0.1088 -0.3021 -0.7959
   62SAPC  C210 4906   0.959   4.225   9.294 -0.6149  0.9744 -0.1463
   62SAPC  H10R 4907   0.864   4.212   9.349  0.8992 -2.8417  1.9362
   62SAPC  H10S 4908   1.036   4.154   9.330 -0.2916  1.7896  0.8164
   62SAPC  C211 4909   0.937   4.211   9.142 -0.7197  0.0557 -0.3715
   62SAPC  H11R 4910   0.929   4.307   9.088 -0.6479  1.4079  1.8989
   62SAPC  C212 4911   0.887   4.104   9.087 -0.2161 -0.3727 -0.1586
   62SAPC  H12R 4912   0.878   4.099   8.978  1.5586  0.5475 -0.3819
   62SAPC  C213 4913   0.852   3.975   9.158  0.0059 -0.4747  0.1547
   62SAPC  H13R 4914   0.765   3.926   9.111 -1.5400  4.0626 -2.3275
   62SAPC  H13S 4915   0.819   4.007   9.260  1.1587  3.0056 -0.4300
   62SAPC  C214 4916   0.973   3.889   9.177  0.2236  0.1061  0.5028
   62SAPC  H14R 4917   1.040   3.921   9.258  1.2731  0.2053 -0.3733
   62SAPC  C215 4918   1.011   3.795   9.085 -0.0569  0.3780 -0.0213
   62SAPC  H15R 4919   1.102   3.741   9.114 -0.9430 -1.1887 -0.0827
   62SAPC  C216 4920   0.937   3.753   8.960 -0.0871  0.1510 -0.6260
   62SAPC  H16R 4921   0.831   3.782   8.974  0.1093 -0.8176  5.3977
   62SAPC  H16S 4922   0.933   3.642   8.962 -1.8738  0.1569 -1.8223
   62SAPC  C217 4923   1.011   3.790   8.834 -0.0368 -0.0452 -0.7179
   62SAPC  H17R 4924   1.115   3.752   8.825  0.1391 -0.7100  2.7871
   62SAPC  H17S 4925   1.013   3.899   8.815 -0.4537  0.2856  1.0391
   62SAPC  C218 4926   0.936   3.727   8.719 -0.6251 -0.0860 -0.2383
   62SAPC  H18R 4927   0.959   3.788   8.629 -2.0052  3.0114  1.3820
   62SAPC  H18S 4928   0.826   3.730   8.735 -0.8688  0.3785 -1.8395
   62SAPC  C219 4929   0.957   3.581   8.697 -0.3087  0.2960 -0.0949
   62SAPC  H19R 4930   0.897   3.519   8.766 -0.3145 -1.0413 -1.2591
   62SAPC  H19S 4931   1.060   3.541   8.709 -0.5840 -0.2232  0.5850
   62SAPC  C220 4932   0.922   3.536   8.557 -0.4531  0.4487 -0.1138
   62SAPC  H20R 4933   0.821   3.579   8.540 -0.2884  0.9528  0.1817
   62SAPC  H20S 4934   0.913   3.425   8.562 -0.1476  0.4677  1.1327
   62SAPC  H20T 4935   0.997   3.550   8.476  2.5267  0.4727  2.4491
   62SAPC   C33 4936   0.404   4.521  10.135 -0.0655  0.2106 -0.2380
   62SAPC   H3X 4937   0.361   4.547  10.234 -1.1173 -0.6176 -0.4573
   62SAPC   H3Y 4938   0.385   4.411  10.141  0.8012  0.0594 -0.0302
   62SAPC   C34 4939   0.298   4.588  10.045 -0.0356  0.2896  0.3565
   62SAPC   H4X 4940   0.298   4.696  10.071  2.2141  0.5742 -0.6623
   62SAPC   H4Y 4941   0.201   4.542  10.076  0.6290 -0.8811  0.7740
   62SAPC   C35 4942   0.333   4.557   9.897  0.1042  0.4654  0.3336
   62SAPC   H5X 4943   0.347   4.448   9.883 -1.0864  0.4251 -0.8285
   62SAPC   H5Y 4944   0.425   4.616   9.878 -0.7081  1.2711 -1.3099
   62SAPC   C36 4945   0.213   4.581   9.805  0.7466  0.5878  0.4229
   62SAPC   H6X 4946   0.191   4.687   9.832  1.0134  0.6145  0.5446
   62SAPC   H6Y 4947   0.136   4.505   9.829 -0.2067  0.7660 -1.8326
   62SAPC   C37 4948   0.251   4.578   9.651 -0.0878 -0.6312 -0.2383
   62SAPC   H7X 4949   0.293   4.476   9.636  0.1906 -0.4046 -1.0161
   62SAPC   H7Y 4950   0.335   4.649   9.635 -0.6877  0.5218  1.3978
   62SAPC   C38 4951   0.127   4.584   9.556  0.2110 -0.9323 -0.2888
   62SAPC   H8X 4952   0.078   4.683   9.545 -1.0862 -1.6212 -1.1164
   62SAPC   H8Y 4953   0.046   4.519   9.598  1.4317 -1.2379  1.7299
   62SAPC   C39 4954   0.166   4.525   9.416 -0.4052 -0.1640  0.0862
   62SAPC   H9X 4955   0.203   4.420   9.424 -0.3925 -0.1062  0.7720
   62SAPC   H9Y 4956   0.242   4.595   9.376 -3.5681  3.0473 -0.7496
   62SAPC  C310 4957   0.043   4.509   9.319 -0.0334 -0.3460  0.9099
   62SAPC  H10X 4958  -0.011   4.605   9.303 -0.0842 -0.1167  2.3722
   62SAPC  H10Y 4959  -0.024   4.437   9.370 -2.9780  2.1723  0.8407
   62SAPC  C311 4960   0.092   4.462   9.185  0.3473  0.1138 -0.1083
   62SAPC  H11X 4961  -0.001   4.431   9.135  1.5522 -0.4212 -2.1234
   62SAPC  H11Y 4962   0.155   4.372   9.202  0.5797 -0.1120 -2.0047
   62SAPC  C312 4963   0.159   4.561   9.095  0.0161 -0.3995 -0.4346
   62SAPC  H12X 4964   0.253   4.598   9.142 -0.5891 -0.8677  1.2124
   62SAPC  H12Y 4965   0.094   4.649   9.075 -3.9622 -2.8819  0.4900
   62SAPC  C313 4966   0.209   4.492   8.964 -0.3346 -0.7743 -0.6018
   62SAPC  H13X 4967   0.131   4.421   8.929  0.5326 -2.4399  0.6985
   62SAPC  H13Y 4968   0.297   4.426   8.984  0.6720  1.1689  1.8834
   62SAPC  C314 4969   0.238   4.593   8.853  0.5898  0.2720  0.1135
   62SAPC  H14X 4970   0.142   4.645   8.830  1.3954  2.1054  0.6662
   62SAPC  H14Y 4971   0.251   4.534   8.760 -2.9064  0.0917 -0.3855
   62SAPC  C315 4972   0.359   4.679   8.876  0.1271 -0.3969  0.0261
   62SAPC  H15X 4973   0.448   4.615   8.855  3.1108  2.4497  2.8165
   62SAPC  H15Y 4974   0.369   4.701   8.985 -2.0043 -1.8147  0.5701
   62SAPC  C316 4975   0.368   4.796   8.769  0.1144 -0.4994 -0.4327
   62SAPC  H16X 4976   0.463   4.848   8.794 -0.2810  0.1754 -0.3110
   62SAPC  H16Y 4977   0.287   4.870   8.790 -1.9622 -2.8847  0.5857
   62SAPC  C317 4978   0.357   4.756   8.623 -0.1105  0.9769  0.7318
   62SAPC  H17X 4979   0.358   4.852   8.567 -2.5499  0.6913  0.0955
   62SAPC  H17Y 4980   0.264   4.698   8.606 -0.1264  1.7397 -2.2615
   62SAPC  C318 4981   0.480   4.673   8.581  0.0675  0.3011 -0.0962
   62SAPC  H18X 4982   0.493   4.593   8.657 -1.0415 -0.0546 -0.2561
   62SAPC  H18Y 4983   0.573   4.734   8.579 -0.1569  0.6378 -0.7410
   62SAPC  H18Z 4984   0.466   4.618   8.485 -0.4860 -0.1523  0.2347
   63SAPC     N 4985   2.192   2.597   6.347 -0.5715  0.2032 -0.1639
   63SAPC   C12 4986   2.210   2.682   6.466 -0.2557 -1.0041 -0.4757
   63SAPC  H12A 4987   2.246   2.621   6.548  2.9834 -0.7060 -1.5290
   63SAPC  H12B 4988   2.116   2.723   6.499  0.3313 -0.9722  1.2861
   63SAPC   C13 4989   2.102   2.481   6.375  0.2349 -0.6720 -0.4490
   63SAPC  H13A 4990   2.142   2.441   6.467  0.2658  2.3982  0.9958
   63SAPC  H13B 4991   2.004   2.519   6.402  0.4098 -0.3841 -0.2127
   63SAPC  H13C 4992   2.091   2.414   6.291  1.4022 -1.0550 -0.3136
   63SAPC   C14 4993   2.143   2.679   6.233 -0.2606 -0.3173 -0.3097
   63SAPC  H14A 4994   2.209   2.752   6.189 -1.0151 -0.5795 -1.9616
   63SAPC  H14B 4995   2.123   2.614   6.149  1.0329  0.6982 -1.4488
   63SAPC  H14C 4996   2.049   2.732   6.243 -0.9547 -1.4385 -0.7330
   63SAPC   C15 4997   2.324   2.544   6.309  0.5598  0.5358 -0.2838
   63SAPC  H15A 4998   2.401   2.613   6.280  1.8422 -0.3318  0.9276
   63SAPC  H15B 4999   2.367   2.503   6.399 -0.2100  1.0046  0.3131
   63SAPC  H15C 5000   2.320   2.472   6.229  2.1659 -0.1407  0.2053
   63SAPC   C11 5001   2.296   2.808   6.457 -0.9331  1.3156 -0.3047
   63SAPC  H11A 5002   2.380   2.777   6.391 -0.8023 -1.9608  1.1814
   63SAPC  H11B 5003   2.346   2.831   6.554  1.8206  3.1795 -2.0114
   63SAPC     P 5004   2.102   2.980   6.466  0.8991  0.3446 -0.3901
   63SAPC   O13 5005   2.136   3.127   6.494 -0.2256  0.4605  0.1383
   63SAPC   O14 5006   1.983   2.946   6.384 -0.2406  0.1667  0.4637
   63SAPC   O12 5007   2.227   2.919   6.397 -0.0160  0.0778 -0.3292
   63SAPC   O11 5008   2.087   2.899   6.598  0.0649 -0.5603 -0.1064
   63SAPC    C1 5009   1.956   2.884   6.668  0.1269  0.3107  0.3834
   63SAPC    HA 5010   1.884   2.965   6.644 -1.4937 -1.0813  0.3433
   63SAPC    HB 5011   1.905   2.792   6.632  1.4569 -1.0346  1.7855
   63SAPC    C2 5012   1.977   2.869   6.815 -0.4969 -0.0767 -0.1027
   63SAPC    HS 5013   1.873   2.854   6.852 -0.2136  0.7636  1.0958
   63SAPC   O21 5014   2.047   2.990   6.868 -0.1836  0.4628 -0.0546
   63SAPC   C21 5015   1.961   3.091   6.883 -0.8422  0.2195  0.4070
   63SAPC   O22 5016   1.839   3.085   6.863  0.8610 -0.6442  0.4919
   63SAPC   C22 5017   2.037   3.206   6.947 -0.0239  0.3050  0.1083
   63SAPC   H2R 5018   2.115   3.242   6.876 -0.4077  4.5049  1.5451
   63SAPC   H2S 5019   1.966   3.288   6.969  0.5147  1.7353 -2.9414
   63SAPC    C3 5020   2.065   2.749   6.842  0.1294 -0.5599  0.1997
   63SAPC    HX 5021   2.161   2.752   6.784 -0.2518  1.2962 -0.4152
   63SAPC    HY 5022   2.019   2.661   6.793 -0.2777  0.6486 -1.7099
   63SAPC   O31 5023   2.078   2.729   6.984  0.3090  0.0685 -0.6439
   63SAPC   C31 5024   2.180   2.805   7.041  0.1389  0.6117 -1.0030
   63SAPC   O32 5025   2.258   2.870   6.977  0.1900 -0.2900  0.5835
   63SAPC   C32 5026   2.180   2.805   7.193  0.0978  0.7056 -0.1017
   63SAPC   H2X 5027   2.195   2.699   7.222  2.5133  0.9293 -0.2918
   63SAPC   H2Y 5028   2.078   2.839   7.221 -0.1776  0.5905 -0.9594
   63SAPC   C23 5029   2.105   3.174   7.083  0.5990 -0.1277  0.6665
   63SAPC   H3R 5030   2.151   3.265   7.125 -2.2188  1.8477 -0.2683
   63SAPC   H3S 5031   2.183   3.095   7.076  0.0359 -0.7590  1.3078
   63SAPC   C24 5032   2.011   3.124   7.199  0.3762 -0.1993  0.7412
   63SAPC   H4R 5033   2.085   3.087   7.272  1.2276 -0.2148 -0.1143
   63SAPC   H4S 5034   1.953   3.036   7.164  1.3673  0.3295 -2.6790
   63SAPC   C25 5035   1.933   3.243   7.250  0.5029 -0.0734 -0.2972
   63SAPC   H5R 5036   1.867   3.293   7.177 -0.7960 -0.1446  0.8057
   63SAPC   C26 5037   1.934   3.283   7.377 -0.3628 -0.0599  0.3554
   63SAPC   H6R 5038   1.878   3.375   7.401  0.7072  0.7211 -0.0514
   63SAPC   C27 5039   2.001   3.210   7.491  0.3366  0.5370  0.3129
   63SAPC   H7R 5040   2.103   3.175   7.464  0.7064  0.3749  1.8028
   63SAPC   H7S 5041   1.946   3.115   7.511 -0.5347  0.9898  0.0948
   63SAPC   C28 5042   2.012   3.301   7.612 -0.1242  0.7705 -0.0064
   63SAPC   H8R 5043   2.005   3.407   7.586 -0.6274  0.8849  0.5660
   63SAPC   C29 5044   2.028   3.258   7.739  0.0001 -1.1817 -0.4848
   63SAPC   H9R 5045   2.026   3.331   7.821  0.6358 -0.1748 -1.3471
   63SAPC  C210 5046   2.044   3.117   7.777  0.1845 -0.0610  0.1732
   63SAPC  H10R 5047   2.081   3.055   7.692  1.2439  1.9801 -0.9465
   63SAPC  H10S 5048   1.946   3.077   7.810  0.4570  0.2034  1.3348
   63SAPC  C211 5049   2.149   3.102   7.882  0.5638 -0.4960 -0.4036
   63SAPC  H11R 5050   2.247   3.113   7.833 -0.4142 -2.0404 -2.8817
   63SAPC  C212 5051   2.128   3.104   8.015  0.5450 -0.4415 -0.5336
   63SAPC  H12R 5052   2.222   3.097   8.071  0.7184 -0.7819 -0.8625
   63SAPC  C213 5053   1.998   3.097   8.092  0.0565  0.6758  0.4861
   63SAPC  H13R 5054   1.918   3.115   8.016  1.6867  2.6832 -0.8698
   63SAPC  H13S 5055   1.994   3.187   8.156  0.1406  0.3215  0.9948
   63SAPC  C214 5056   1.980   2.970   8.170  0.5374 -0.2757  0.7960
   63SAPC  H14R 5057   2.026   2.880   8.127 -0.2329  0.4086 -1.6046
   63SAPC  C215 5058   1.921   2.963   8.288  0.1069 -0.5025 -0.0125
   63SAPC  H15R 5059   1.921   2.867   8.343  1.2748  0.5410  1.9036
   63SAPC  C216 5060   1.862   3.085   8.356 -0.1098  0.1303  0.2436
   63SAPC  H16R 5061   1.767   3.047   8.399 -0.0457 -2.4600 -1.6708
   63SAPC  H16S 5062   1.825   3.166   8.290  1.7792  1.3654  0.6176
   63SAPC  C217 5063   1.944   3.149   8.462 -0.0500  0.1291 -0.7891
   63SAPC  H17R 5064   2.043   3.184   8.426 -0.5562  1.7037 -0.7401
   63SAPC  H17S 5065   1.962   3.073   8.541 -1.5064  1.9978  1.5163
   63SAPC  C218 5066   1.870   3.272   8.535 -0.0881  0.6329  0.0401
   63SAPC  H18R 5067   1.772   3.235   8.571 -0.1104  0.0309 -0.6304
   63SAPC  H18S 5068   1.856   3.351   8.458  2.8501  2.3616  1.0823
   63SAPC  C219 5069   1.962   3.324   8.649 -0.3477  0.2320 -0.0132
   63SAPC  H19R 5070   2.067   3.320   8.615 -0.6395 -1.6968 -0.8310
   63SAPC  H19S 5071   1.954   3.252   8.733  0.6229 -0.4611 -0.5031
   63SAPC  C220 5072   1.930   3.463   8.692 -0.0194 -0.2070 -0.2920
   63SAPC  H20R 5073   1.991   3.492   8.779 -0.3794  0.8581 -0.3880
   63SAPC  H20S 5074   1.821   3.477   8.712 -0.2169 -0.7438 -0.9370
   63SAPC  H20T 5075   1.956   3.537   8.613 -0.4705 -0.6479 -0.8750
   63SAPC   C33 5076   2.291   2.888   7.261  0.1656 -0.4449 -0.0509
   63SAPC   H3X 5077   2.289   2.991   7.219 -1.0889  0.0463  1.1534
   63SAPC   H3Y 5078   2.388   2.835   7.246 -0.5114 -2.4948  2.1182
   63SAPC   C34 5079   2.279   2.913   7.411  0.4424  0.3010  0.3044
   63SAPC   H4X 5080   2.181   2.961   7.433 -0.6472 -0.8266 -1.7210
   63SAPC   H4Y 5081   2.363   2.981   7.437  0.8152  0.3619 -0.9548
   63SAPC   C35 5082   2.284   2.783   7.504 -0.1802  1.1378 -0.1718
   63SAPC   H5X 5083   2.378   2.731   7.479 -0.9917 -1.0454  1.0832
   63SAPC   H5Y 5084   2.214   2.705   7.467  1.5377  0.0330 -1.1995
   63SAPC   C36 5085   2.275   2.809   7.648  0.1453 -0.0097 -0.0700
   63SAPC   H6X 5086   2.192   2.881   7.667 -1.3691 -0.8177 -3.0528
   63SAPC   H6Y 5087   2.362   2.873   7.676  0.9622 -2.4303  3.6685
   63SAPC   C37 5088   2.275   2.689   7.743  0.1201  0.1922 -0.6159
   63SAPC   H7X 5089   2.371   2.635   7.733 -0.8441 -2.1506  1.5212
   63SAPC   H7Y 5090   2.183   2.626   7.738  1.2590 -1.7336  1.0004
   63SAPC   C38 5091   2.277   2.734   7.892 -0.3143  0.1862  0.2038
   63SAPC   H8X 5092   2.211   2.821   7.910 -0.6533 -0.0672  0.1925
   63SAPC   H8Y 5093   2.375   2.783   7.910 -0.7678  0.6422  1.6260
   63SAPC   C39 5094   2.275   2.621   7.998 -0.6157 -0.6329 -0.2627
   63SAPC   H9X 5095   2.330   2.531   7.964 -0.3586 -1.2143  1.5688
   63SAPC   H9Y 5096   2.171   2.582   7.998 -0.4467 -1.1384  1.2217
   63SAPC  C310 5097   2.305   2.669   8.140 -0.6084  0.0891  0.3850
   63SAPC  H10X 5098   2.241   2.759   8.155 -3.7535 -1.8673 -0.3958
   63SAPC  H10Y 5099   2.413   2.694   8.141 -0.5894  0.0047  0.8729
   63SAPC  C311 5100   2.287   2.556   8.248  0.0229  0.5383 -0.3596
   63SAPC  H11X 5101   2.344   2.584   8.339 -0.1382 -0.3064  0.0121
   63SAPC  H11Y 5102   2.306   2.455   8.207  1.8567  1.1406 -1.0979
   63SAPC  C312 5103   2.135   2.537   8.287  0.0505  0.3042 -0.3263
   63SAPC  H12X 5104   2.084   2.510   8.193 -2.0126 -1.3889  1.1772
   63SAPC  H12Y 5105   2.100   2.638   8.319  1.4327  0.7410 -0.1545
   63SAPC  C313 5106   2.107   2.430   8.395 -0.1256 -0.5219  0.0256
   63SAPC  H13X 5107   2.154   2.472   8.487  0.5446  2.9050 -1.7186
   63SAPC  H13Y 5108   2.156   2.334   8.371  2.5568  0.3685  1.4225
   63SAPC  C314 5109   1.959   2.400   8.430 -0.3119 -0.0862 -0.8229
   63SAPC  H14X 5110   1.960   2.322   8.509 -0.3582  1.0973  0.3739
   63SAPC  H14Y 5111   1.911   2.351   8.342 -3.2686 -1.3467  1.3456
   63SAPC  C315 5112   1.861   2.506   8.477 -0.1523  0.2907  0.1891
   63SAPC  H15X 5113   1.843   2.580   8.395 -2.9794  0.1329  0.5644
   63SAPC  H15Y 5114   1.909   2.562   8.560  1.4340 -0.2418 -0.3460
   63SAPC  C316 5115   1.722   2.455   8.511 -0.0493  0.5702 -0.1381
   63SAPC  H16X 5116   1.660   2.543   8.541 -0.4245  0.4538 -0.5725
   63SAPC  H16Y 5117   1.735   2.393   8.602 -1.3686  0.2305 -0.1629
   63SAPC  C317 5118   1.652   2.383   8.399 -0.5071 -0.7561  0.8069
   63SAPC  H17X 5119   1.717   2.293   8.392  1.0964  0.4686 -0.9252
   63SAPC  H17Y 5120   1.668   2.451   8.313 -1.1313 -1.8145 -0.1649
   63SAPC  C318 5121   1.503   2.344   8.410  0.9153  0.4326 -1.0015
   63SAPC  H18X 5122   1.447   2.439   8.397  1.4370  0.8421 -0.2986
   63SAPC  H18Y 5123   1.467   2.305   8.507  2.2130  0.1044 -0.6294
   63SAPC  H18Z 5124   1.479   2.271   8.329  0.2110  0.1391 -0.5401
   64SAPC     N 5125   4.233   2.132   6.218  0.3561 -0.5470 -0.4783
   64SAPC   C12 5126   4.277   2.235   6.321 -0.1290  0.2387  0.8827
   64SAPC  H12A 5127   4.264   2.194   6.420  1.6175  1.3330  1.6128
   64SAPC  H12B 5128   4.201   2.311   6.321 -0.5264 -0.0056 -2.5091
   64SAPC   C13 5129   4.113   2.058   6.270  0.6620 -0.3200  0.0805
   64SAPC  H13A 5130   4.092   1.970   6.212  0.8490  0.2959 -0.9429
   64SAPC  H13B 5131   4.135   2.020   6.369  1.9042 -1.2601 -0.5161
   64SAPC  H13C 5132   4.025   2.121   6.276 -0.2139 -1.5616  0.6588
   64SAPC   C14 5133   4.194   2.196   6.094  0.5342 -0.2199 -0.4397
   64SAPC  H14A 5134   4.267   2.260   6.046  2.2293 -2.8350 -1.5585
   64SAPC  H14B 5135   4.174   2.120   6.019 -0.9977  0.7959 -1.1163
   64SAPC  H14C 5136   4.111   2.261   6.118  1.5492  0.5658  1.1837
   64SAPC   C15 5137   4.338   2.027   6.200  0.6752  0.8194  0.0191
   64SAPC  H15A 5138   4.300   1.947   6.139 -1.2019  1.1514  0.6931
   64SAPC  H15B 5139   4.415   2.081   6.146 -1.2474  1.2836 -2.4399
   64SAPC  H15C 5140   4.384   2.000   6.293 -0.3395  1.4431  0.7292
   64SAPC   C11 5141   4.413   2.308   6.313 -0.1865  0.1366  0.1679
   64SAPC  H11A 5142   4.497   2.237   6.326  0.2874  0.8855  1.3369
   64SAPC  H11B 5143   4.415   2.379   6.398 -0.7690  0.4909 -0.1098
   64SAPC     P 5144   4.408   2.507   6.142 -0.0751 -0.0072 -0.0356
   64SAPC   O13 5145   4.496   2.559   6.032 -0.3994  0.0669 -0.2235
   64SAPC   O14 5146   4.261   2.524   6.115 -0.3370  0.5603  1.0455
   64SAPC   O12 5147   4.446   2.361   6.183 -0.3350 -0.1108 -0.0976
   64SAPC   O11 5148   4.435   2.591   6.263  0.1409 -0.7522  0.5534
   64SAPC    C1 5149   4.552   2.667   6.285 -0.0271  0.4122 -0.2405
   64SAPC    HA 5150   4.629   2.593   6.314 -0.8968 -0.1950  0.5575
   64SAPC    HB 5151   4.583   2.728   6.197  0.4562  0.6528  0.0964
   64SAPC    C2 5152   4.526   2.759   6.405 -0.6570  0.4001 -1.2093
   64SAPC    HS 5153   4.623   2.802   6.440 -0.3820  0.8116 -2.4303
   64SAPC   O21 5154   4.457   2.684   6.515 -0.2642 -0.1736 -0.4114
   64SAPC   C21 5155   4.538   2.608   6.582 -0.4096 -0.4632 -0.1085
   64SAPC   O22 5156   4.657   2.608   6.566 -0.0568  0.6764  0.1308
   64SAPC   C22 5157   4.461   2.536   6.690 -0.0340  0.4117 -0.1016
   64SAPC   H2R 5158   4.366   2.584   6.720  0.6224  0.6703  1.6835
   64SAPC   H2S 5159   4.425   2.438   6.650  2.3686 -0.8236  0.5721
   64SAPC    C3 5160   4.437   2.885   6.374  0.0457  0.2366  0.3881
   64SAPC    HX 5161   4.356   2.846   6.310 -0.9857 -0.5132  2.0817
   64SAPC    HY 5162   4.500   2.946   6.306  3.6474 -0.8810  2.4421
   64SAPC   O31 5163   4.386   2.960   6.488 -0.1872  0.1317 -0.1135
   64SAPC   C31 5164   4.271   3.014   6.463  0.1812 -0.0453 -0.3661
   64SAPC   O32 5165   4.204   3.000   6.364  0.6185 -0.4661 -0.0714
   64SAPC   C32 5166   4.236   3.100   6.589  0.5439 -0.1671 -0.0003
   64SAPC   H2X 5167   4.135   3.141   6.569  0.9492 -0.2107 -2.4530
   64SAPC   H2Y 5168   4.307   3.183   6.611 -1.8406  1.5534  1.7463
   64SAPC   C23 5169   4.547   2.509   6.803  0.4036 -0.4160  0.5325
   64SAPC   H3R 5170   4.652   2.486   6.775  0.7863  1.7339  0.0510
   64SAPC   H3S 5171   4.507   2.418   6.854 -1.5832 -1.1851 -2.1450
   64SAPC   C24 5172   4.560   2.630   6.898  0.4155  0.8268 -0.0276
   64SAPC   H4R 5173   4.601   2.719   6.845 -1.0689  1.3589 -0.3386
   64SAPC   H4S 5174   4.640   2.599   6.969  0.7022 -0.5483 -0.9227
   64SAPC   C25 5175   4.431   2.663   6.968 -0.0613  0.5002  0.2936
   64SAPC   H5R 5176   4.340   2.650   6.907  0.1086  1.7259 -0.2423
   64SAPC   C26 5177   4.409   2.707   7.092 -0.3540  0.0118 -0.0221
   64SAPC   H6R 5178   4.306   2.712   7.129  0.0320  1.9166  0.9377
   64SAPC   C27 5179   4.514   2.736   7.202 -0.2659  0.6838  0.1008
   64SAPC   H7R 5180   4.525   2.846   7.203 -0.4025  0.6955  0.3112
   64SAPC   H7S 5181   4.610   2.685   7.179  0.8405  1.1436  3.1614
   64SAPC   C28 5182   4.469   2.688   7.340 -0.5144 -0.5747  0.0707
   64SAPC   H8R 5183   4.394   2.756   7.382 -0.8023 -0.5321 -0.4991
   64SAPC   C29 5184   4.482   2.581   7.410 -0.6397  0.1679 -0.0182
   64SAPC   H9R 5185   4.426   2.587   7.504 -2.8698  1.1799 -1.3448
   64SAPC  C210 5186   4.551   2.453   7.377  0.3723  0.6117  0.7987
   64SAPC  H10R 5187   4.610   2.467   7.283 -0.4317  1.5330  0.4116
   64SAPC  H10S 5188   4.470   2.383   7.350  1.2074  0.0223 -0.2844
   64SAPC  C211 5189   4.652   2.399   7.476  0.4715  0.2529 -0.1312
   64SAPC  H11R 5190   4.619   2.416   7.579 -1.3123 -0.4529 -0.5397
   64SAPC  C212 5191   4.771   2.340   7.449 -0.4998  0.3071 -0.6054
   64SAPC  H12R 5192   4.832   2.300   7.531  0.0377 -1.7211 -1.9151
   64SAPC  C213 5193   4.816   2.306   7.310  0.9642  0.0219  0.1390
   64SAPC  H13R 5194   4.905   2.367   7.284 -0.5781  3.5038  2.2656
   64SAPC  H13S 5195   4.742   2.324   7.229 -0.8807 -2.2461  1.2317
   64SAPC  C214 5196   4.861   2.162   7.321  0.5985  0.1380  0.3873
   64SAPC  H14R 5197   4.943   2.137   7.389  1.3977  0.6368 -0.3807
   64SAPC  C215 5198   4.813   2.058   7.246 -0.0594  0.3810 -0.2976
   64SAPC  H15R 5199   4.856   1.960   7.271 -1.4291 -0.5608 -1.4891
   64SAPC  C216 5200   4.702   2.043   7.144 -0.1549 -0.7412 -0.2714
   64SAPC  H16R 5201   4.638   2.131   7.163  1.0621  0.6687 -2.3265
   64SAPC  H16S 5202   4.657   1.947   7.177 -1.1958 -0.1224  0.1644
   64SAPC  C217 5203   4.761   2.040   6.995 -0.0365  0.0611  0.1930
   64SAPC  H17R 5204   4.668   2.009   6.941 -1.7540  1.8042  1.9739
   64SAPC  H17S 5205   4.846   1.968   6.990  0.6993  0.9907 -1.0861
   64SAPC  C218 5206   4.801   2.179   6.950 -1.3670 -0.3770  0.0115
   64SAPC  H18R 5207   4.881   2.208   7.021 -0.1867 -0.8060 -1.1017
   64SAPC  H18S 5208   4.722   2.257   6.963  0.6578  1.6626  0.6794
   64SAPC  C219 5209   4.855   2.177   6.814  0.6621  0.6307  0.5251
   64SAPC  H19R 5210   4.917   2.269   6.821  0.0305  0.9155  3.1429
   64SAPC  H19S 5211   4.775   2.191   6.738 -2.5383 -1.8198  3.1311
   64SAPC  C220 5212   4.935   2.057   6.767  0.8477 -0.2948 -0.3799
   64SAPC  H20R 5213   5.032   2.043   6.819  0.6357  1.0059  0.4203
   64SAPC  H20S 5214   4.971   2.086   6.666 -0.3607  0.4323 -0.6251
   64SAPC  H20T 5215   4.886   1.957   6.765  1.1389 -0.4429 -0.1216
   64SAPC   C33 5216   4.234   3.008   6.713  0.3715 -0.6347 -0.5835
   64SAPC   H3X 5217   4.325   2.947   6.734  0.2660 -1.2616 -1.8380
   64SAPC   H3Y 5218   4.148   2.938   6.705 -0.6504  0.6360 -1.0527
   64SAPC   C34 5219   4.214   3.093   6.839  0.0931 -0.1797 -0.0493
   64SAPC   H4X 5220   4.119   3.151   6.838  0.2665  0.1572  1.0457
   64SAPC   H4Y 5221   4.294   3.169   6.828 -0.4159  0.5586  1.1134
   64SAPC   C35 5222   4.229   3.014   6.966  0.8651  0.3743  0.0836
   64SAPC   H5X 5223   4.325   2.958   6.972  1.6703  1.7955  1.5597
   64SAPC   H5Y 5224   4.154   2.932   6.966 -0.1588  1.2593 -1.4022
   64SAPC   C36 5225   4.214   3.098   7.092  0.2273  0.0413  0.2171
   64SAPC   H6X 5226   4.116   3.149   7.101  0.5316  0.3482  2.6542
   64SAPC   H6Y 5227   4.280   3.188   7.087  0.1331  0.1300  0.5047
   64SAPC   C37 5228   4.238   3.007   7.212 -0.9022  0.4595  0.2091
   64SAPC   H7X 5229   4.332   2.950   7.201  0.0790  2.4802 -3.3514
   64SAPC   H7Y 5230   4.163   2.926   7.220 -0.5365  0.1094  0.0918
   64SAPC   C38 5231   4.245   3.074   7.350 -0.5810  0.2339 -0.4046
   64SAPC   H8X 5232   4.148   3.126   7.369  0.0684  1.3029  0.0641
   64SAPC   H8Y 5233   4.330   3.144   7.361 -1.5246  0.9871  3.2425
   64SAPC   C39 5234   4.251   2.972   7.461  0.0653 -0.4603 -0.4197
   64SAPC   H9X 5235   4.352   2.925   7.457  0.4601  0.2012  0.9557
   64SAPC   H9Y 5236   4.175   2.893   7.469  1.4989 -1.8986 -0.4628
   64SAPC  C310 5237   4.241   3.048   7.595  0.3009 -0.6733  0.0732
   64SAPC  H10X 5238   4.152   3.115   7.593 -0.3348 -1.5139 -1.4063
   64SAPC  H10Y 5239   4.325   3.120   7.597  0.3704 -0.7123 -0.8607
   64SAPC  C311 5240   4.240   2.963   7.721 -0.1945  0.6102 -0.1574
   64SAPC  H11X 5241   4.332   2.905   7.742  0.4755  1.5045 -0.5540
   64SAPC  H11Y 5242   4.161   2.884   7.730  1.6483 -1.2281  0.7674
   64SAPC  C312 5243   4.215   3.058   7.839  0.1796  0.3113  0.2458
   64SAPC  H12X 5244   4.113   3.103   7.842  0.3636  0.9622 -1.7091
   64SAPC  H12Y 5245   4.287   3.142   7.834 -0.0664  0.4712 -1.7234
   64SAPC  C313 5246   4.249   2.991   7.970  1.0524  0.1063  0.2596
   64SAPC  H13X 5247   4.359   2.982   7.987  0.8597  0.8958  2.2498
   64SAPC  H13Y 5248   4.212   2.887   7.973 -0.0655  0.4847  0.0732
   64SAPC  C314 5249   4.210   3.065   8.104 -0.2705  0.6554  0.1706
   64SAPC  H14X 5250   4.271   3.157   8.118  0.9054 -0.0943  0.0292
   64SAPC  H14Y 5251   4.224   2.984   8.178  0.2958  0.5262 -0.0722
   64SAPC  C315 5252   4.068   3.108   8.105  0.0607 -0.0898  0.1030
   64SAPC  H15X 5253   4.001   3.020   8.090  0.2911 -0.2257 -0.1499
   64SAPC  H15Y 5254   4.045   3.182   8.025  0.2312  0.7055  0.7810
   64SAPC  C316 5255   4.037   3.192   8.230  0.1982  0.2988  0.9639
   64SAPC  H16X 5256   3.926   3.191   8.244  0.2801  0.3402  1.6504
   64SAPC  H16Y 5257   4.080   3.294   8.228  0.0336  0.4017 -1.7562
   64SAPC  C317 5258   4.075   3.139   8.372  0.5555  0.0961 -0.6117
   64SAPC  H17X 5259   4.182   3.112   8.364 -0.2704 -3.4271 -1.3919
   64SAPC  H17Y 5260   4.011   3.050   8.389  1.5511 -1.0620 -2.5430
   64SAPC  C318 5261   4.027   3.230   8.483  0.0394 -0.2517  0.1566
   64SAPC  H18X 5262   4.088   3.323   8.481  3.1037 -2.1527 -0.8613
   64SAPC  H18Y 5263   4.020   3.189   8.585  0.3984  1.2435  0.8114
   64SAPC  H18Z 5264   3.920   3.243   8.457  0.4263 -0.8750 -1.9510
   65SAPC     N 5265   4.158   5.820   5.603  0.1953 -0.2965 -0.1535
   65SAPC   C12 5266   4.267   5.803   5.710  0.3277 -0.3480  0.5263
   65SAPC  H12A 5267   4.317   5.895   5.734 -0.1673 -0.1090  0.6604
   65SAPC  H12B 5268   4.347   5.744   5.668 -0.9502 -0.0125 -2.7321
   65SAPC   C13 5269   4.087   5.690   5.596  0.7153  0.2341  0.2265
   65SAPC  H13A 5270   4.037   5.676   5.690  1.3321  1.2571  0.7211
   65SAPC  H13B 5271   4.009   5.692   5.521  1.3818 -2.2194 -0.6267
   65SAPC  H13C 5272   4.155   5.609   5.573  0.7170 -0.4076  2.3429
   65SAPC   C14 5273   4.065   5.934   5.630  0.2813 -0.0824 -0.7803
   65SAPC  H14A 5274   3.990   5.939   5.552  0.0443  1.5336 -0.4813
   65SAPC  H14B 5275   4.014   5.915   5.724 -0.1292 -1.6014 -1.2725
   65SAPC  H14C 5276   4.112   6.030   5.642 -1.3553  0.6594  0.0186
   65SAPC   C15 5277   4.215   5.841   5.473  0.5514  0.3808  0.1017
   65SAPC  H15A 5278   4.146   5.840   5.391  0.8774 -0.8739 -0.1873
   65SAPC  H15B 5279   4.270   5.934   5.469 -0.2467  0.8145 -1.1078
   65SAPC  H15C 5280   4.290   5.765   5.455 -0.5215 -0.4813 -0.8007
   65SAPC   C11 5281   4.221   5.727   5.842  0.3228 -0.1180 -0.2902
   65SAPC  H11A 5282   4.308   5.726   5.911 -1.2845 -0.9784  1.8370
   65SAPC  H11B 5283   4.200   5.620   5.823  2.6364 -0.7863  0.5925
   65SAPC     P 5284   3.973   5.735   5.943 -0.4587  0.5037  0.5169
   65SAPC   O13 5285   3.866   5.825   5.892 -0.6458 -0.1286 -0.5338
   65SAPC   O14 5286   3.977   5.594   5.900 -0.4723  0.2058 -0.4986
   65SAPC   O12 5287   4.116   5.797   5.908 -0.1760 -0.0133  0.7517
   65SAPC   O11 5288   3.969   5.736   6.100  0.0686  0.0530 -0.0551
   65SAPC    C1 5289   4.004   5.860   6.161  0.1496 -0.2428 -0.5965
   65SAPC    HA 5290   4.114   5.862   6.179 -0.0126  0.6187  0.3761
   65SAPC    HB 5291   3.979   5.951   6.104 -0.1161 -0.2865 -0.5492
   65SAPC    C2 5292   3.919   5.874   6.300  0.3639  0.2256 -0.1995
   65SAPC    HS 5293   3.924   5.972   6.351 -3.5849 -0.2828  1.5283
   65SAPC   O21 5294   3.946   5.766   6.389 -0.1372  0.2310 -0.4521
   65SAPC   C21 5295   4.068   5.770   6.442 -0.2030 -0.3352  0.0186
   65SAPC   O22 5296   4.148   5.861   6.430  0.5768 -0.4237 -0.2152
   65SAPC   C22 5297   4.099   5.654   6.524 -0.2069  0.5948  0.0239
   65SAPC   H2R 5298   4.122   5.566   6.461 -2.4553 -1.0623  1.3836
   65SAPC   H2S 5299   4.193   5.686   6.574 -0.7924  1.7214  0.4342
   65SAPC    C3 5300   3.769   5.875   6.259  0.1134  0.1237 -0.0451
   65SAPC    HX 5301   3.759   5.777   6.208  3.3280 -0.3040 -0.0565
   65SAPC    HY 5302   3.759   5.953   6.181  1.4635  2.1044  1.6631
   65SAPC   O31 5303   3.688   5.903   6.369  0.1625  0.0946 -0.7846
   65SAPC   C31 5304   3.636   5.802   6.435 -0.1902  0.3867 -0.8350
   65SAPC   O32 5305   3.611   5.695   6.386 -0.2935  0.6651  0.5270
   65SAPC   C32 5306   3.598   5.852   6.577  0.0915  0.1883  0.0328
   65SAPC   H2X 5307   3.511   5.921   6.568  0.2671  0.6857  1.8135
   65SAPC   H2Y 5308   3.680   5.915   6.615 -1.0350  0.4742  2.1448
   65SAPC   C23 5309   3.984   5.623   6.621  0.0301  0.0516  0.3388
   65SAPC   H3R 5310   4.021   5.540   6.684 -0.5521 -0.2165  0.3309
   65SAPC   H3S 5311   3.893   5.586   6.569  0.2219  1.8037 -1.3636
   65SAPC   C24 5312   3.942   5.733   6.713  0.9282  0.2360  0.7793
   65SAPC   H4R 5313   3.864   5.692   6.781 -0.4083  1.4696  0.0285
   65SAPC   H4S 5314   3.904   5.821   6.658  0.8667  0.0532  0.5261
   65SAPC   C25 5315   4.058   5.780   6.801 -0.3284 -0.2811 -0.0729
   65SAPC   H5R 5316   4.127   5.844   6.743 -2.4986  0.6221 -1.7889
   65SAPC   C26 5317   4.079   5.759   6.930  0.2242 -0.2984 -0.5322
   65SAPC   H6R 5318   4.160   5.808   6.985  1.8080 -1.2090 -1.9666
   65SAPC   C27 5319   3.996   5.677   7.030  0.0079  0.1014  0.1187
   65SAPC   H7R 5320   3.934   5.605   6.972  0.9498  0.4554 -1.3931
   65SAPC   H7S 5321   3.935   5.741   7.097 -2.0380  0.2759 -1.8063
   65SAPC   C28 5322   4.090   5.584   7.106 -0.5744 -0.5310 -0.2166
   65SAPC   H8R 5323   4.171   5.531   7.054  0.3402 -1.0211  1.6098
   65SAPC   C29 5324   4.089   5.542   7.232  0.8661 -0.1547 -0.8429
   65SAPC   H9R 5325   4.155   5.460   7.262  2.2704  1.0246 -0.6027
   65SAPC  C210 5326   4.003   5.588   7.348 -0.2896 -0.0544  0.4200
   65SAPC  H10R 5327   3.950   5.683   7.327  1.1478 -0.0192 -4.0776
   65SAPC  H10S 5328   4.072   5.628   7.426 -2.4259  0.5608  2.0998
   65SAPC  C211 5329   3.909   5.487   7.404  0.1352 -0.5434  0.5813
   65SAPC  H11R 5330   3.859   5.430   7.324  0.7443  0.7771 -0.7965
   65SAPC  C212 5331   3.870   5.472   7.531  0.5593 -0.0542 -0.3129
   65SAPC  H12R 5332   3.788   5.401   7.551  1.0949 -0.3265  0.9728
   65SAPC  C213 5333   3.918   5.549   7.653 -0.2036 -0.3570  0.3186
   65SAPC  H13R 5334   4.029   5.552   7.654 -0.1099 -0.7182  3.8875
   65SAPC  H13S 5335   3.870   5.510   7.745  0.2934 -3.5293 -0.6705
   65SAPC  C214 5336   3.877   5.695   7.639  0.0623 -0.2229  0.0943
   65SAPC  H14R 5337   3.864   5.729   7.535 -0.9685 -0.2910  0.1965
   65SAPC  C215 5338   3.863   5.781   7.742 -0.0957 -0.2465 -0.2023
   65SAPC  H15R 5339   3.849   5.883   7.704 -0.3834 -0.7868 -1.6001
   65SAPC  C216 5340   3.880   5.751   7.890  1.1570 -0.3074  0.3100
   65SAPC  H16R 5341   3.937   5.836   7.932 -1.1797  0.5881  1.8930
   65SAPC  H16S 5342   3.934   5.659   7.921  0.5428  0.0009  2.4745
   65SAPC  C217 5343   3.743   5.760   7.969 -0.3082 -0.3983  0.2040
   65SAPC  H17R 5344   3.670   5.700   7.909  1.2060 -1.0490 -1.0586
   65SAPC  H17S 5345   3.698   5.862   7.970 -2.9755 -1.4914  0.6906
   65SAPC  C218 5346   3.746   5.719   8.119  0.9913  0.1336  0.2904
   65SAPC  H18R 5347   3.785   5.615   8.127  0.3977 -0.1011  0.1945
   65SAPC  H18S 5348   3.639   5.710   8.150  0.1573 -1.0274 -2.5876
   65SAPC  C219 5349   3.832   5.813   8.197  0.0309  0.2761  0.0730
   65SAPC  H19R 5350   3.801   5.914   8.160  0.0409  0.7039  1.1941
   65SAPC  H19S 5351   3.939   5.808   8.167 -1.1463 -0.7595 -4.7102
   65SAPC  C220 5352   3.808   5.809   8.348  0.2397 -0.6270  0.2899
   65SAPC  H20R 5353   3.703   5.817   8.382  0.9692  6.1393  2.4910
   65SAPC  H20S 5354   3.853   5.902   8.390 -1.5938  0.6043 -0.3994
   65SAPC  H20T 5355   3.863   5.727   8.399  1.2922  1.3465  2.5684
   65SAPC   C33 5356   3.577   5.738   6.674 -0.8154 -0.6648 -0.5368
   65SAPC   H3X 5357   3.648   5.654   6.660  0.1036 -0.0295  0.1698
   65SAPC   H3Y 5358   3.477   5.693   6.659 -1.7853  1.6523 -1.3868
   65SAPC   C34 5359   3.577   5.804   6.815  0.4863 -0.6016 -0.4517
   65SAPC   H4X 5360   3.509   5.892   6.819  0.4427 -0.5367 -2.0256
   65SAPC   H4Y 5361   3.681   5.840   6.830 -0.1856  1.2159  0.0878
   65SAPC   C35 5362   3.555   5.701   6.920 -0.1955  0.6935 -0.0870
   65SAPC   H5X 5363   3.620   5.613   6.902 -2.7116 -1.5712  1.2468
   65SAPC   H5Y 5364   3.449   5.669   6.912 -0.4872  0.6003  2.8468
   65SAPC   C36 5365   3.583   5.751   7.064 -0.1886 -0.2698 -0.3689
   65SAPC   H6X 5366   3.505   5.826   7.088  2.1580  1.8221  1.1782
   65SAPC   H6Y 5367   3.682   5.800   7.064  0.5512 -1.7114 -0.5738
   65SAPC   C37 5368   3.573   5.643   7.174  0.4597 -0.3980 -0.1958
   65SAPC   H7X 5369   3.646   5.562   7.153  1.7896  0.6973  0.1042
   65SAPC   H7Y 5370   3.469   5.606   7.163 -0.0793  0.7559  0.7881
   65SAPC   C38 5371   3.599   5.699   7.309 -0.2265  0.5004  0.0362
   65SAPC   H8X 5372   3.682   5.770   7.290 -1.6699  2.1676 -0.3620
   65SAPC   H8Y 5373   3.641   5.623   7.378  1.2744  1.3272  0.0817
   65SAPC   C39 5374   3.477   5.761   7.379 -0.1299 -0.2353  0.7472
   65SAPC   H9X 5375   3.404   5.681   7.403  0.1630 -0.6047  0.4160
   65SAPC   H9Y 5376   3.439   5.841   7.312  0.4540 -1.3868 -1.0209
   65SAPC  C310 5377   3.518   5.815   7.524  0.9510 -0.2842 -0.9830
   65SAPC  H10X 5378   3.575   5.908   7.504  2.7559 -0.9447  0.7692
   65SAPC  H10Y 5379   3.582   5.746   7.583  1.3290  0.3669 -0.6256
   65SAPC  C311 5380   3.394   5.831   7.609 -0.0761 -0.0427 -0.5507
   65SAPC  H11X 5381   3.345   5.731   7.612 -0.2299  0.0141  2.2283
   65SAPC  H11Y 5382   3.320   5.893   7.556  1.7215  0.9193 -2.0313
   65SAPC  C312 5383   3.429   5.867   7.758  0.1752  0.5598 -0.1695
   65SAPC  H12X 5384   3.480   5.965   7.744  0.0296  0.4406 -1.8046
   65SAPC  H12Y 5385   3.491   5.787   7.804 -0.3284  1.1255  1.5334
   65SAPC  C313 5386   3.302   5.889   7.838 -0.2878 -0.2922 -0.5910
   65SAPC  H13X 5387   3.283   5.785   7.873  1.2147 -0.1494  0.7316
   65SAPC  H13Y 5388   3.224   5.939   7.777  0.7922  2.4856  0.1840
   65SAPC  C314 5389   3.319   5.976   7.964  0.2174 -0.0631 -0.1431
   65SAPC  H14X 5390   3.221   6.021   7.991  0.5573  2.0237 -2.0845
   65SAPC  H14Y 5391   3.389   6.057   7.936  2.5518 -1.5954  0.9158
   65SAPC  C315 5392   3.385   5.902   8.083  0.6086 -0.1412  0.0959
   65SAPC  H15X 5393   3.478   5.852   8.050  1.5172  0.8506  1.0883
   65SAPC  H15Y 5394   3.316   5.815   8.091  0.4307 -0.3915 -2.9605
   65SAPC  C316 5395   3.397   5.979   8.212 -0.4014 -0.9672  0.0137
   65SAPC  H16X 5396   3.420   5.912   8.297  0.1717  0.7970  1.3221
   65SAPC  H16Y 5397   3.303   6.034   8.235  1.0558  1.1861  1.1826
   65SAPC  C317 5398   3.522   6.071   8.221  0.1309 -0.4000 -0.1718
   65SAPC  H17X 5399   3.521   6.164   8.161 -1.2485  0.9785  1.8282
   65SAPC  H17Y 5400   3.603   6.003   8.187  0.8992  0.0449  0.7135
   65SAPC  C318 5401   3.553   6.111   8.366 -0.0527  0.1904  0.0193
   65SAPC  H18X 5402   3.655   6.153   8.382 -0.3380  0.4147  1.3582
   65SAPC  H18Y 5403   3.547   6.020   8.429  3.5073  0.7656  1.4237
   65SAPC  H18Z 5404   3.487   6.195   8.397  0.8698  1.0132 -0.2108
   66SAPC     N 5405   3.963   3.331   5.758 -0.3476 -0.7315  0.1269
   66SAPC   C12 5406   3.917   3.255   5.874  1.7246 -0.3443 -0.1573
   66SAPC  H12A 5407   3.924   3.308   5.968  3.1585 -1.3800  0.3569
   66SAPC  H12B 5408   3.982   3.170   5.890  1.1666 -1.2803 -2.4437
   66SAPC   C13 5409   3.929   3.272   5.630  0.0649  0.6500 -0.7265
   66SAPC  H13A 5410   3.923   3.348   5.554 -2.2879  0.9180 -0.3550
   66SAPC  H13B 5411   4.002   3.201   5.594  2.2607  2.6620 -0.5440
   66SAPC  H13C 5412   3.831   3.228   5.637 -0.2019  1.3922  0.8638
   66SAPC   C14 5413   3.896   3.467   5.757  0.5596 -0.2488 -0.2350
   66SAPC  H14A 5414   3.926   3.530   5.675  1.4660  1.8900  1.6403
   66SAPC  H14B 5415   3.788   3.462   5.746  0.7358 -0.2048 -2.2220
   66SAPC  H14C 5416   3.913   3.517   5.851 -0.2346 -1.7089  0.7297
   66SAPC   C15 5417   4.115   3.362   5.763 -0.1602 -0.0619 -0.1490
   66SAPC  H15A 5418   4.148   3.428   5.685 -1.2963  0.9549  0.1952
   66SAPC  H15B 5419   4.155   3.399   5.856  0.4272  0.2453 -0.5174
   66SAPC  H15C 5420   4.173   3.272   5.750 -0.4150 -0.0948 -1.0737
   66SAPC   C11 5421   3.770   3.198   5.867 -0.2078 -0.0562 -0.4197
   66SAPC  H11A 5422   3.761   3.123   5.949  2.1826  0.5034  0.4339
   66SAPC  H11B 5423   3.761   3.147   5.769 -0.4271  0.5520 -0.7190
   66SAPC     P 5424   3.592   3.324   6.005  0.0904  0.0263 -0.4847
   66SAPC   O13 5425   3.513   3.445   5.988  0.3042 -0.1219  0.1666
   66SAPC   O14 5426   3.518   3.202   6.033 -0.0005 -0.4804  0.4970
   66SAPC   O12 5427   3.677   3.304   5.872 -0.0731 -0.5459  0.3601
   66SAPC   O11 5428   3.705   3.346   6.110  0.5746  0.3234 -0.3260
   66SAPC    C1 5429   3.775   3.467   6.122  0.1909  0.3137  0.1079
   66SAPC    HA 5430   3.883   3.440   6.119 -0.0020 -0.6268  0.9945
   66SAPC    HB 5431   3.766   3.541   6.040  2.1623  0.9082  0.3535
   66SAPC    C2 5432   3.752   3.537   6.260  0.1255 -0.0569 -0.1204
   66SAPC    HS 5433   3.809   3.632   6.260 -0.9168  0.5867 -0.8229
   66SAPC   O21 5434   3.781   3.437   6.362  0.4672 -0.4358 -0.8335
   66SAPC   C21 5435   3.891   3.463   6.428 -0.0653 -0.0633  0.2145
   66SAPC   O22 5436   3.963   3.560   6.411  0.0061  0.0914  0.1444
   66SAPC   C22 5437   3.919   3.357   6.532 -0.8577 -0.1108  0.0051
   66SAPC   H2R 5438   3.925   3.263   6.473 -1.9345  0.8452 -1.7248
   66SAPC   H2S 5439   4.019   3.372   6.578 -0.4442 -2.1475 -0.1575
   66SAPC    C3 5440   3.598   3.582   6.276 -0.3899  0.0152  0.0418
   66SAPC    HX 5441   3.535   3.492   6.293  1.5045 -1.2249  0.8637
   66SAPC    HY 5442   3.557   3.629   6.184 -1.3952 -1.2005 -0.1577
   66SAPC   O31 5443   3.588   3.681   6.382  0.2404  0.6075  0.3787
   66SAPC   C31 5444   3.548   3.627   6.495 -0.4086  0.0943  1.3197
   66SAPC   O32 5445   3.490   3.520   6.514  0.0310  0.3117 -0.6311
   66SAPC   C32 5446   3.600   3.714   6.601 -0.4347 -0.3461  0.2639
   66SAPC   H2X 5447   3.594   3.819   6.566  1.5446 -0.9015 -2.0142
   66SAPC   H2Y 5448   3.709   3.697   6.614 -0.7593 -1.2883  2.2123
   66SAPC   C23 5449   3.815   3.336   6.643  0.5214 -0.5558  0.0446
   66SAPC   H3R 5450   3.747   3.255   6.608  1.8286 -0.7763 -2.2107
   66SAPC   H3S 5451   3.767   3.435   6.638  0.8228 -0.4395 -0.6996
   66SAPC   C24 5452   3.865   3.319   6.783 -0.5166  0.7379 -0.3194
   66SAPC   H4R 5453   3.958   3.375   6.806 -0.1391 -0.0418  0.1138
   66SAPC   H4S 5454   3.879   3.211   6.805  0.3371  1.3186  2.2501
   66SAPC   C25 5455   3.757   3.359   6.877 -0.0304  0.6270  0.2370
   66SAPC   H5R 5456   3.655   3.356   6.837  0.1245  0.3523 -0.1479
   66SAPC   C26 5457   3.778   3.382   7.003 -0.4124 -0.2056 -0.1518
   66SAPC   H6R 5458   3.691   3.420   7.058 -0.2427 -1.3469  0.9529
   66SAPC   C27 5459   3.908   3.378   7.082  0.4229 -0.5830 -0.6822
   66SAPC   H7R 5460   3.951   3.477   7.107 -0.6957 -0.0962 -0.6159
   66SAPC   H7S 5461   3.982   3.328   7.016  1.7392 -1.2859  1.2163
   66SAPC   C28 5462   3.907   3.301   7.217  0.1749 -1.1494  0.9544
   66SAPC   H8R 5463   3.944   3.198   7.205  0.2850 -0.8894 -1.3805
   66SAPC   C29 5464   3.853   3.354   7.327  0.2401  0.0621 -0.9161
   66SAPC   H9R 5465   3.858   3.291   7.418  0.7999  2.2422  0.6516
   66SAPC  C210 5466   3.790   3.489   7.353 -0.1307 -0.0480 -0.6947
   66SAPC  H10R 5467   3.696   3.481   7.294 -2.1996  0.2050  2.3233
   66SAPC  H10S 5468   3.861   3.566   7.315  0.6535 -0.4746 -0.1165
   66SAPC  C211 5469   3.755   3.530   7.493  0.5878 -0.8372  0.0959
   66SAPC  H11R 5470   3.648   3.508   7.509  0.7377 -1.1354  0.7105
   66SAPC  C212 5471   3.842   3.559   7.593  0.0101  0.8582 -0.4355
   66SAPC  H12R 5472   3.798   3.561   7.693  0.8065  0.4360 -0.0687
   66SAPC  C213 5473   3.992   3.560   7.579  0.2823  0.2160  0.2594
   66SAPC  H13R 5474   4.034   3.656   7.617 -0.6121  0.7858 -0.1477
   66SAPC  H13S 5475   4.016   3.551   7.471 -2.4111 -0.2853 -0.3814
   66SAPC  C214 5476   4.056   3.445   7.650  0.1994  0.0752  0.4213
   66SAPC  H14R 5477   4.043   3.350   7.596  2.7659  0.5170 -1.1381
   66SAPC  C215 5478   4.099   3.438   7.775  0.0628  0.0428 -1.2867
   66SAPC  H15R 5479   4.105   3.338   7.819 -2.0192  0.6089  0.5065
   66SAPC  C216 5480   4.115   3.556   7.873  0.4596  0.9381  0.1089
   66SAPC  H16R 5481   4.019   3.570   7.927 -1.0084 -1.1766 -1.7513
   66SAPC  H16S 5482   4.139   3.651   7.821  0.8402  2.0091  2.1694
   66SAPC  C217 5483   4.236   3.517   7.962 -0.6962 -0.1473  0.1010
   66SAPC  H17R 5484   4.312   3.488   7.886 -2.5019 -0.7943 -1.5539
   66SAPC  H17S 5485   4.224   3.422   8.017 -2.4526 -0.2777 -0.4482
   66SAPC  C218 5486   4.270   3.631   8.058  0.1588  0.8557  0.6594
   66SAPC  H18R 5487   4.186   3.661   8.123 -1.5241 -0.1764 -0.9523
   66SAPC  H18S 5488   4.290   3.723   7.999  0.4004  0.0840 -0.4926
   66SAPC  C219 5489   4.402   3.600   8.139  0.3842 -0.7607  0.1764
   66SAPC  H19R 5490   4.470   3.546   8.069  1.1158  1.8134 -1.1982
   66SAPC  H19S 5491   4.383   3.536   8.228  0.0850  0.5842  1.1053
   66SAPC  C220 5492   4.471   3.725   8.199  0.7282 -0.7313  0.1619
   66SAPC  H20R 5493   4.453   3.736   8.308 -0.3814 -0.4182 -0.0394
   66SAPC  H20S 5494   4.424   3.821   8.166  1.4625 -0.3479  0.2102
   66SAPC  H20T 5495   4.580   3.714   8.181  0.3978 -2.5748 -0.9788
   66SAPC   C33 5496   3.523   3.697   6.728 -0.7028 -0.5141 -0.3877
   66SAPC   H3X 5497   3.563   3.612   6.786 -0.4685  0.2308  0.5773
   66SAPC   H3Y 5498   3.416   3.673   6.707 -1.2916  1.7703 -0.3532
   66SAPC   C34 5499   3.538   3.818   6.820 -0.1356 -0.1398  0.0611
   66SAPC   H4X 5500   3.493   3.903   6.765 -2.1363 -1.7911 -0.9944
   66SAPC   H4Y 5501   3.645   3.845   6.833 -0.0378 -0.2629 -0.4627
   66SAPC   C35 5502   3.488   3.804   6.960  0.5284 -0.4366  0.0731
   66SAPC   H5X 5503   3.379   3.782   6.959  0.8078 -1.9827  0.2500
   66SAPC   H5Y 5504   3.487   3.899   7.017 -0.4250 -0.6299  0.3970
   66SAPC   C36 5505   3.569   3.698   7.051 -0.2911 -0.0623 -0.3969
   66SAPC   H6X 5506   3.675   3.726   7.069 -1.1100  1.7938  1.8837
   66SAPC   H6Y 5507   3.567   3.611   6.981  1.2663 -0.7107  0.3056
   66SAPC   C37 5508   3.492   3.662   7.176 -0.5934  0.3776  0.3625
   66SAPC   H7X 5509   3.518   3.559   7.208  1.0105  0.7976  0.5181
   66SAPC   H7Y 5510   3.383   3.660   7.155 -0.7143 -1.8032  0.9731
   66SAPC   C38 5511   3.524   3.755   7.293  0.2042  0.2608 -0.0307
   66SAPC   H8X 5512   3.500   3.860   7.265  2.0622  0.8842  0.5754
   66SAPC   H8Y 5513   3.634   3.756   7.311 -0.0095 -1.7725  1.7782
   66SAPC   C39 5514   3.459   3.723   7.430  0.9654 -0.7044 -0.3696
   66SAPC   H9X 5515   3.466   3.614   7.452  2.8098 -0.3347  1.1426
   66SAPC   H9Y 5516   3.350   3.744   7.432  1.3927  1.7217  0.0884
   66SAPC  C310 5517   3.518   3.806   7.544 -0.1392  0.3519 -0.0650
   66SAPC  H10X 5518   3.496   3.914   7.530 -2.0834  0.2511  1.6848
   66SAPC  H10Y 5519   3.628   3.797   7.551  0.0640  1.1387 -1.8016
   66SAPC  C311 5520   3.453   3.752   7.672 -0.0823  0.6297 -0.7074
   66SAPC  H11X 5521   3.451   3.641   7.676  0.5801  0.6579  1.0483
   66SAPC  H11Y 5522   3.349   3.791   7.666  0.1202  1.1787 -0.7124
   66SAPC  C312 5523   3.534   3.799   7.801  0.0197  0.1231  0.2683
   66SAPC  H12X 5524   3.553   3.909   7.803 -0.3022  0.1627  2.2374
   66SAPC  H12Y 5525   3.627   3.738   7.801 -0.7689 -1.1514 -0.9690
   66SAPC  C313 5526   3.460   3.762   7.927  1.1578  0.2315 -0.2625
   66SAPC  H13X 5527   3.462   3.651   7.923 -3.0742  0.0059 -0.4154
   66SAPC  H13Y 5528   3.355   3.798   7.926  0.6004 -1.2506  0.4387
   66SAPC  C314 5529   3.533   3.809   8.053 -0.6932  0.4020  0.4591
   66SAPC  H14X 5530   3.639   3.821   8.021 -0.8322 -0.3356 -0.3232
   66SAPC  H14Y 5531   3.520   3.727   8.127  0.2548  0.1070  0.3045
   66SAPC  C315 5532   3.468   3.933   8.093  0.1044  0.2966 -0.5371
   66SAPC  H15X 5533   3.366   3.897   8.119  0.3440 -1.7537 -2.2110
   66SAPC  H15Y 5534   3.463   4.010   8.013  1.3380 -1.4771 -2.4052
   66SAPC  C316 5535   3.534   3.993   8.221  0.6046 -0.6916  0.0621
   66SAPC  H16X 5536   3.531   3.911   8.297 -0.2382  0.0797  0.8761
   66SAPC  H16Y 5537   3.475   4.080   8.255  2.6766  0.7882  0.0362
   66SAPC  C317 5538   3.674   4.053   8.220 -0.4207 -0.2156 -0.2634
   66SAPC  H17X 5539   3.680   4.126   8.137 -0.6886 -0.6835 -0.6978
   66SAPC  H17Y 5540   3.750   3.978   8.190 -0.9465 -1.1180  0.5744
   66SAPC  C318 5541   3.707   4.110   8.359  0.3939  0.6382  0.0111
   66SAPC  H18X 5542   3.802   4.164   8.342  0.3502  0.9712  0.7864
   66SAPC  H18Y 5543   3.740   4.030   8.429 -0.9135  1.5388  1.7675
   66SAPC  H18Z 5544   3.630   4.179   8.401  2.1785  1.7748  1.6019
   67SAPC     N 5545   3.750   5.381   6.136 -0.8427 -0.3073 -0.2416
   67SAPC   C12 5546   3.705   5.271   6.227  0.6776 -0.2602  0.2415
   67SAPC  H12A 5547   3.673   5.185   6.170  0.2082 -0.4988  0.8585
   67SAPC  H12B 5548   3.618   5.304   6.282  0.0973  0.5450 -1.1180
   67SAPC   C13 5549   3.848   5.323   6.032 -0.0444  0.9752  0.3365
   67SAPC  H13A 5550   3.930   5.268   6.075 -0.2483 -0.9501 -1.5890
   67SAPC  H13B 5551   3.793   5.252   5.972  2.1559 -1.4483  1.0345
   67SAPC  H13C 5552   3.885   5.398   5.963 -0.6046  2.1352  1.2633
   67SAPC   C14 5553   3.635   5.436   6.062 -0.2316  0.6934  0.1349
   67SAPC  H14A 5554   3.592   5.365   5.994  2.4132 -0.5780 -0.3438
   67SAPC  H14B 5555   3.551   5.478   6.115 -0.4140  1.4264 -0.7066
   67SAPC  H14C 5556   3.660   5.519   5.997  1.3118  1.0263  1.0988
   67SAPC   C15 5557   3.825   5.488   6.220 -1.4419  0.3375  0.3857
   67SAPC  H15A 5558   3.900   5.441   6.283  0.8047  3.0294 -0.0711
   67SAPC  H15B 5559   3.870   5.557   6.150  0.3741 -3.0216 -2.0677
   67SAPC  H15C 5560   3.758   5.534   6.291 -2.6147 -1.5866  0.5798
   67SAPC   C11 5561   3.800   5.207   6.328  0.5409  0.7350 -0.1162
   67SAPC  H11A 5562   3.752   5.126   6.386 -0.4160  0.1324 -1.6749
   67SAPC  H11B 5563   3.827   5.292   6.395 -2.8581  2.0304 -0.1665
   67SAPC     P 5564   4.026   5.056   6.322  0.0757 -0.2864  0.1450
   67SAPC   O13 5565   3.960   4.936   6.368 -0.1324  0.2244 -0.5808
   67SAPC   O14 5566   4.132   5.037   6.217  0.8198 -0.5283 -0.0622
   67SAPC   O12 5567   3.916   5.161   6.270 -0.1388  0.1976  0.0076
   67SAPC   O11 5568   4.083   5.129   6.451  0.0906 -0.0644 -0.1060
   67SAPC    C1 5569   4.165   5.251   6.457  0.3578  0.8674  0.5298
   67SAPC    HA 5570   4.155   5.305   6.360 -1.3088  1.8808  1.2175
   67SAPC    HB 5571   4.137   5.324   6.535 -0.4747  1.7500 -0.5566
   67SAPC    C2 5572   4.314   5.219   6.477 -0.5744  0.4500 -0.2127
   67SAPC    HS 5573   4.353   5.161   6.390 -2.2049  0.4345 -0.9783
   67SAPC   O21 5574   4.343   5.144   6.597  0.0265 -0.2499  0.3738
   67SAPC   C21 5575   4.470   5.095   6.603 -0.1909  0.0406  0.9876
   67SAPC   O22 5576   4.554   5.111   6.514  0.4827  0.7145 -0.4133
   67SAPC   C22 5577   4.494   5.031   6.741 -0.2254  0.5016 -0.4532
   67SAPC   H2R 5578   4.438   5.092   6.815  0.1886  1.3525 -0.8258
   67SAPC   H2S 5579   4.463   4.924   6.749 -0.7664  0.7399  0.8899
   67SAPC    C3 5580   4.389   5.358   6.468 -0.0616 -0.2194  0.1012
   67SAPC    HX 5581   4.364   5.404   6.370 -0.7595 -2.2129 -0.7114
   67SAPC    HY 5582   4.499   5.346   6.457  0.4003  0.6126  2.8828
   67SAPC   O31 5583   4.341   5.439   6.578 -0.1610 -0.0973 -0.2464
   67SAPC   C31 5584   4.433   5.473   6.672 -0.2358 -0.3130  0.0028
   67SAPC   O32 5585   4.550   5.440   6.676  0.7072  0.2756 -0.4707
   67SAPC   C32 5586   4.361   5.555   6.778  0.5052 -0.2955  0.5817
   67SAPC   H2X 5587   4.269   5.498   6.802 -0.9037  1.5712 -0.1483
   67SAPC   H2Y 5588   4.337   5.658   6.745  0.2173 -0.5107  0.1101
   67SAPC   C23 5589   4.647   5.037   6.784 -0.6627 -0.4292  0.7432
   67SAPC   H3R 5590   4.674   5.141   6.812 -0.4741 -0.3960  0.4411
   67SAPC   H3S 5591   4.704   5.007   6.694 -2.6444 -0.1674 -0.6631
   67SAPC   C24 5592   4.704   4.945   6.889 -0.0530  0.8185  1.3320
   67SAPC   H4R 5593   4.811   4.923   6.867 -0.5285 -0.8335  0.5341
   67SAPC   H4S 5594   4.642   4.854   6.876  0.3633  1.0374 -4.6618
   67SAPC   C25 5595   4.682   4.995   7.029  0.0557  0.6603  0.2306
   67SAPC   H5R 5596   4.611   5.078   7.042 -0.9195 -0.2450  0.8593
   67SAPC   C26 5597   4.728   4.948   7.149  0.3452  0.0463  0.0829
   67SAPC   H6R 5598   4.690   4.998   7.238  0.0374 -2.1130  1.2324
   67SAPC   C27 5599   4.819   4.833   7.183  0.4676  0.0894  0.3995
   67SAPC   H7R 5600   4.916   4.880   7.212  0.9039 -0.6226  0.1469
   67SAPC   H7S 5601   4.834   4.769   7.093  1.1084 -0.9275  1.1963
   67SAPC   C28 5602   4.770   4.748   7.296 -0.5871  0.9713  0.1026
   67SAPC   H8R 5603   4.667   4.711   7.285 -0.4894  0.6514  0.2401
   67SAPC   C29 5604   4.842   4.718   7.410  0.1229 -0.4001 -0.4180
   67SAPC   H9R 5605   4.792   4.661   7.491  0.3737  0.6701  0.5193
   67SAPC  C210 5606   4.980   4.770   7.439 -0.0121 -0.3474 -0.2018
   67SAPC  H10R 5607   5.014   4.863   7.389 -2.0140  1.1539  1.0617
   67SAPC  H10S 5608   5.053   4.694   7.407  0.0518  0.6256 -2.5311
   67SAPC  C211 5609   4.986   4.802   7.593  0.1104  0.6693 -0.8348
   67SAPC  H11R 5610   4.999   4.910   7.608 -0.9231  0.4029  3.0303
   67SAPC  C212 5611   4.999   4.718   7.693 -0.2620  0.7287 -0.7999
   67SAPC  H12R 5612   4.998   4.763   7.793  1.2150  0.7879 -0.7888
   67SAPC  C213 5613   4.990   4.568   7.682  0.5074 -0.5330 -0.2585
   67SAPC  H13R 5614   4.986   4.548   7.573 -0.4462  0.7669 -0.4835
   67SAPC  H13S 5615   4.895   4.524   7.719  0.2524 -1.4795 -1.9459
   67SAPC  C214 5616   5.118   4.507   7.746  0.2767 -0.0030  0.3066
   67SAPC  H14R 5617   5.123   4.516   7.856 -2.4937 -1.9678  0.7038
   67SAPC  C215 5618   5.222   4.449   7.684  0.2141  0.3071  0.3740
   67SAPC  H15R 5619   5.303   4.409   7.747  0.0906 -1.3589 -0.4652
   67SAPC  C216 5620   5.249   4.436   7.538  0.1687  0.6206  0.4673
   67SAPC  H16R 5621   5.347   4.481   7.511 -0.7552  1.3647 -1.9482
   67SAPC  H16S 5622   5.189   4.516   7.490  0.8787  1.6510  1.2577
   67SAPC  C217 5623   5.230   4.301   7.466  0.2477  0.8240  0.3190
   67SAPC  H17R 5624   5.127   4.264   7.482 -0.2748  2.8820  2.0351
   67SAPC  H17S 5625   5.307   4.234   7.510  0.5110  0.3570 -0.8146
   67SAPC  C218 5626   5.259   4.307   7.314  0.7868  0.6864 -0.1723
   67SAPC  H18R 5627   5.364   4.337   7.291  0.5162  0.6544 -1.5393
   67SAPC  H18S 5628   5.188   4.385   7.278 -0.8687 -0.8289 -0.2921
   67SAPC  C219 5629   5.224   4.180   7.241 -0.7063  0.5636 -0.1173
   67SAPC  H19R 5630   5.209   4.189   7.131  0.6924  0.1223 -0.3733
   67SAPC  H19S 5631   5.130   4.151   7.292 -1.5669 -0.0544 -1.9785
   67SAPC  C220 5632   5.338   4.072   7.259  0.4220  0.4911 -0.0255
   67SAPC  H20R 5633   5.335   3.999   7.175  1.8565  0.0650  0.2633
   67SAPC  H20S 5634   5.343   4.022   7.358  0.4114  0.4181 -0.0611
   67SAPC  H20T 5635   5.438   4.115   7.241  0.8479 -0.4352  0.0541
   67SAPC   C33 5636   4.455   5.567   6.902  0.4249 -0.1832 -0.1560
   67SAPC   H3X 5637   4.396   5.631   6.971  0.2902  0.4396 -0.8367
   67SAPC   H3Y 5638   4.548   5.623   6.879 -0.4642  0.5300 -2.2639
   67SAPC   C34 5639   4.491   5.434   6.975  0.6072 -0.2262 -0.7143
   67SAPC   H4X 5640   4.557   5.379   6.904  2.1410 -0.8295  1.0777
   67SAPC   H4Y 5641   4.393   5.386   6.998  0.7668 -0.2093  0.0317
   67SAPC   C35 5642   4.560   5.465   7.106  0.1887  0.0743 -0.1353
   67SAPC   H5X 5643   4.646   5.531   7.078  0.1562  0.0572 -0.2761
   67SAPC   H5Y 5644   4.606   5.374   7.150 -2.1222 -1.0072  0.1595
   67SAPC   C36 5645   4.472   5.528   7.203 -0.2416 -0.3625 -0.5214
   67SAPC   H6X 5646   4.393   5.452   7.217  0.1809 -1.0360 -1.6147
   67SAPC   H6Y 5647   4.416   5.622   7.180  0.6785  0.7052  1.3741
   67SAPC   C37 5648   4.558   5.560   7.331  0.1272 -0.1519 -0.0960
   67SAPC   H7X 5649   4.627   5.478   7.358 -0.4214 -0.9289 -0.9928
   67SAPC   H7Y 5650   4.489   5.563   7.418  1.1149 -0.6805  0.7176
   67SAPC   C38 5651   4.613   5.701   7.308 -0.0231 -0.3273  0.3638
   67SAPC   H8X 5652   4.539   5.776   7.274  0.1306 -0.0430  0.6436
   67SAPC   H8Y 5653   4.689   5.701   7.227 -0.2572  3.2107 -0.0060
   67SAPC   C39 5654   4.666   5.762   7.445 -0.9169  0.4888  0.7569
   67SAPC   H9X 5655   4.706   5.675   7.502  0.2075 -0.3647 -1.2378
   67SAPC   H9Y 5656   4.580   5.790   7.510 -0.5638  1.0594  0.9847
   67SAPC  C310 5657   4.766   5.881   7.415 -0.2966 -0.1418 -0.2022
   67SAPC  H10X 5658   4.728   5.968   7.473 -0.6649 -1.1420  1.1010
   67SAPC  H10Y 5659   4.762   5.915   7.309 -0.9146  0.7881  0.1088
   67SAPC  C311 5660   4.904   5.864   7.480  0.3541 -0.4363  0.2297
   67SAPC  H11X 5661   4.963   5.780   7.438 -1.2674 -1.5964  0.1488
   67SAPC  H11Y 5662   4.882   5.830   7.583 -0.1478 -0.5965  0.0785
   67SAPC  C312 5663   4.990   5.993   7.480 -0.0110  0.0202 -0.1747
   67SAPC  H12X 5664   5.081   5.964   7.535  1.0600  1.2791 -1.2141
   67SAPC  H12Y 5665   4.944   6.080   7.533 -1.2059  0.2830 -1.5586
   67SAPC  C313 5666   5.047   6.043   7.345  0.1669 -0.3066 -0.1762
   67SAPC  H13X 5667   4.967   6.053   7.269 -1.2730 -0.1756  1.3064
   67SAPC  H13Y 5668   5.145   5.997   7.318  0.9409  0.8015  0.6257
   67SAPC  C314 5669   5.089   6.195   7.355 -0.8086  0.2406  0.1095
   67SAPC  H14X 5670   5.169   6.212   7.430 -0.0415  2.5165 -1.1372
   67SAPC  H14Y 5671   4.997   6.251   7.379 -0.4863  0.4153  0.9533
   67SAPC  C315 5672   5.124   6.249   7.215 -0.7743 -0.2241 -1.0259
   67SAPC  H15X 5673   5.128   6.360   7.215  0.2377 -0.2503 -0.6367
   67SAPC  H15Y 5674   5.045   6.219   7.143 -3.2140 -1.0900  1.7650
   67SAPC  C316 5675   5.260   6.203   7.154  0.6347 -0.1165 -0.0532
   67SAPC  H16X 5676   5.243   6.095   7.132  2.6835 -1.0244  2.3425
   67SAPC  H16Y 5677   5.341   6.219   7.228  1.0537 -1.4761 -0.1802
   67SAPC  C317 5678   5.300   6.264   7.026  0.0786  0.6196  0.0903
   67SAPC  H17X 5679   5.402   6.227   7.002  0.2752 -2.0142  4.0656
   67SAPC  H17Y 5680   5.313   6.372   7.047  3.6935  0.4120 -0.5612
   67SAPC  C318 5681   5.206   6.232   6.908  0.1720  0.1507 -0.1165
   67SAPC  H18X 5682   5.203   6.121   6.894  1.5946  0.0260  0.3151
   67SAPC  H18Y 5683   5.244   6.285   6.819 -1.0207 -1.3613 -1.5790
   67SAPC  H18Z 5684   5.108   6.270   6.942  0.1219 -0.2364  0.1839
   68SAPC     N 5685   2.767   5.289   6.040  0.3731 -0.6220 -0.0541
   68SAPC   C12 5686   2.701   5.157   6.025  0.0398 -0.3010  0.1743
   68SAPC  H12A 5687   2.750   5.103   5.945 -0.2344  0.2591 -0.3904
   68SAPC  H12B 5688   2.601   5.179   5.990  0.8987  0.5041 -1.9328
   68SAPC   C13 5689   2.700   5.362   6.154 -0.1193  0.1665 -0.3133
   68SAPC  H13A 5690   2.593   5.363   6.140  0.0963 -0.2048 -2.1417
   68SAPC  H13B 5691   2.730   5.324   6.251 -1.8672 -0.2157  0.1229
   68SAPC  H13C 5692   2.739   5.463   6.152 -0.3210  0.2308 -1.4594
   68SAPC   C14 5693   2.920   5.267   6.060 -0.1501  0.6374  0.0747
   68SAPC  H14A 5694   2.966   5.214   5.978 -2.0783  0.4540 -0.9341
   68SAPC  H14B 5695   2.970   5.362   6.068  0.3899  0.2958  0.8684
   68SAPC  H14C 5696   2.926   5.210   6.152  1.5974 -0.6551 -0.7802
   68SAPC   C15 5697   2.743   5.368   5.914  0.4718  0.2006 -0.2170
   68SAPC  H15A 5698   2.765   5.307   5.828  1.1669 -0.2163  0.2387
   68SAPC  H15B 5699   2.640   5.400   5.906  0.2422 -0.6043 -0.5911
   68SAPC  H15C 5700   2.806   5.456   5.910  1.0550 -0.2245 -0.5625
   68SAPC   C11 5701   2.683   5.069   6.149 -0.7818  0.3316  0.1016
   68SAPC  H11A 5702   2.627   4.980   6.112 -1.3890  0.6958  0.1281
   68SAPC  H11B 5703   2.613   5.114   6.222  0.4679  1.4445  0.6441
   68SAPC     P 5704   2.813   4.928   6.312 -0.1370 -0.0732  0.2615
   68SAPC   O13 5705   2.758   4.805   6.254  0.6845  0.1502 -0.0964
   68SAPC   O14 5706   2.949   4.917   6.372 -0.0311  0.2929 -0.2063
   68SAPC   O12 5707   2.817   5.030   6.195 -0.3076  0.1703  0.7726
   68SAPC   O11 5708   2.711   4.983   6.410 -0.2295  0.1121 -0.1784
   68SAPC    C1 5709   2.722   5.106   6.480  0.3474  0.6808  0.4447
   68SAPC    HA 5710   2.754   5.191   6.416 -0.4925 -0.5314 -1.7193
   68SAPC    HB 5711   2.620   5.130   6.515  0.2672 -0.0998  0.7601
   68SAPC    C2 5712   2.818   5.099   6.605  0.9065 -0.2394  0.2768
   68SAPC    HS 5713   2.916   5.069   6.562  0.2669 -2.1858  0.1032
   68SAPC   O21 5714   2.756   4.997   6.689 -0.2076  0.2033 -1.0449
   68SAPC   C21 5715   2.845   4.922   6.756  0.0736  0.0986  0.0715
   68SAPC   O22 5716   2.963   4.903   6.726 -0.5825  0.0828  0.0541
   68SAPC   C22 5717   2.773   4.860   6.871  0.4391  0.5274 -0.0252
   68SAPC   H2R 5718   2.688   4.928   6.893  0.2260  0.1105  0.4372
   68SAPC   H2S 5719   2.729   4.764   6.835 -0.1713 -0.5199  3.2456
   68SAPC    C3 5720   2.842   5.230   6.678  0.2651  0.0135  0.5710
   68SAPC    HX 5721   2.744   5.246   6.728 -0.1550 -1.8227  0.4090
   68SAPC    HY 5722   2.846   5.320   6.613 -0.2701 -2.2317 -2.8496
   68SAPC   O31 5723   2.931   5.220   6.785  0.0871 -0.3821 -0.0076
   68SAPC   C31 5724   3.062   5.222   6.756  0.9727 -0.1577  0.6423
   68SAPC   O32 5725   3.109   5.226   6.646 -0.2285 -0.3352  0.1572
   68SAPC   C32 5726   3.145   5.225   6.885  0.1627  0.3812 -0.0075
   68SAPC   H2X 5727   3.218   5.142   6.877 -0.8816 -0.9509  2.9243
   68SAPC   H2Y 5728   3.086   5.198   6.975  0.6795  2.3489  0.9889
   68SAPC   C23 5729   2.865   4.827   6.990 -0.3514  0.1768 -0.2613
   68SAPC   H3R 5730   2.942   4.756   6.955  0.1505  0.4297  0.3124
   68SAPC   H3S 5731   2.803   4.782   7.071 -1.9308 -0.3536 -1.7059
   68SAPC   C24 5732   2.943   4.943   7.049 -0.9784 -0.2149  0.3270
   68SAPC   H4R 5733   3.006   4.978   6.964  0.0654 -3.1080 -0.2335
   68SAPC   H4S 5734   3.008   4.907   7.131 -0.7971 -0.5409  0.0468
   68SAPC   C25 5735   2.841   5.035   7.106  0.1689  0.9252  0.3169
   68SAPC   H5R 5736   2.804   5.110   7.035  0.6678  1.0335  0.1674
   68SAPC   C26 5737   2.807   5.050   7.237 -0.7125  0.3155  0.1161
   68SAPC   H6R 5738   2.728   5.120   7.269 -2.8315 -2.3652  1.0896
   68SAPC   C27 5739   2.864   4.955   7.343 -0.4107 -0.0910  0.5193
   68SAPC   H7R 5740   2.877   4.851   7.305 -0.2620  0.7517 -1.9181
   68SAPC   H7S 5741   2.785   4.940   7.419 -1.3882  2.1314  0.0002
   68SAPC   C28 5742   2.999   5.001   7.401 -0.3932  0.6646 -0.3046
   68SAPC   H8R 5743   3.066   5.045   7.325  0.8508  0.8333  0.8483
   68SAPC   C29 5744   3.038   5.017   7.526 -0.1986 -0.4919  0.4574
   68SAPC   H9R 5745   3.142   5.046   7.549 -0.6501  0.8423  0.9056
   68SAPC  C210 5746   2.958   4.998   7.652 -0.8255  0.8140 -0.1900
   68SAPC  H10R 5747   2.849   4.987   7.635 -1.3830  0.8132  2.7627
   68SAPC  H10S 5748   2.973   5.095   7.704 -0.8930  1.0823 -0.6700
   68SAPC  C211 5749   3.019   4.880   7.729  0.4758  0.6164 -0.2092
   68SAPC  H11R 5750   3.023   4.789   7.669 -0.9068  0.0338  0.5439
   68SAPC  C212 5751   3.061   4.870   7.857 -0.3344  0.2320  0.3608
   68SAPC  H12R 5752   3.094   4.768   7.885 -0.7134  0.0765  0.2475
   68SAPC  C213 5753   3.064   4.977   7.956 -0.4374 -0.8879 -0.2561
   68SAPC  H13R 5754   2.977   5.044   7.938  1.3065  1.3146 -0.9548
   68SAPC  H13S 5755   3.158   5.036   7.944  0.7885 -2.4765  1.1911
   68SAPC  C214 5756   3.051   4.923   8.101 -0.4692 -0.3292 -0.3199
   68SAPC  H14R 5757   2.976   4.843   8.110 -1.0132  0.0375 -1.4492
   68SAPC  C215 5758   3.115   4.962   8.214  0.1521 -0.8989 -0.2332
   68SAPC  H15R 5759   3.085   4.920   8.311  0.1441 -2.8794 -1.0436
   68SAPC  C216 5760   3.204   5.083   8.228  0.6056  0.4421 -0.0327
   68SAPC  H16R 5761   3.162   5.157   8.299 -0.0641  1.0438 -1.0297
   68SAPC  H16S 5762   3.195   5.148   8.138  0.7139  0.1510 -0.2534
   68SAPC  C217 5763   3.353   5.059   8.257  0.2598 -0.5991  0.6022
   68SAPC  H17R 5764   3.413   5.152   8.250 -1.6537  0.6124 -0.4329
   68SAPC  H17S 5765   3.395   4.977   8.194  2.7578 -0.3142  1.7501
   68SAPC  C218 5766   3.360   5.007   8.403  0.6280 -0.0725 -0.2772
   68SAPC  H18R 5767   3.304   4.911   8.410  1.2169 -0.5413 -1.7133
   68SAPC  H18S 5768   3.318   5.085   8.470  0.2076 -2.1618  2.0406
   68SAPC  C219 5769   3.501   4.996   8.455  0.0378 -0.3113 -0.3938
   68SAPC  H19R 5770   3.539   5.101   8.459 -0.5561 -0.0107 -1.8727
   68SAPC  H19S 5771   3.559   4.947   8.374  0.5409  0.9787 -0.8534
   68SAPC  C220 5772   3.520   4.927   8.592  0.5909  0.1667  0.8441
   68SAPC  H20R 5773   3.628   4.926   8.615  1.1560  0.9000 -1.4570
   68SAPC  H20S 5774   3.479   4.825   8.581  0.0597  0.4200  0.4114
   68SAPC  H20T 5775   3.455   4.967   8.673 -3.2311  0.2329 -1.9588
   68SAPC   C33 5776   3.226   5.355   6.911  0.7500 -0.0321  0.2893
   68SAPC   H3X 5777   3.177   5.444   6.868  1.8734 -0.5913 -2.3128
   68SAPC   H3Y 5778   3.318   5.348   6.850 -0.7801  0.0574 -2.1262
   68SAPC   C34 5779   3.285   5.371   7.051  0.2531  0.2476 -0.8319
   68SAPC   H4X 5780   3.199   5.374   7.120  0.8860  0.6517 -0.0368
   68SAPC   H4Y 5781   3.340   5.467   7.063  0.9778 -0.3603  1.2859
   68SAPC   C35 5782   3.375   5.255   7.094 -0.4299 -0.4031 -0.4856
   68SAPC   H5X 5783   3.438   5.214   7.012 -0.0465 -2.4182  0.7381
   68SAPC   H5Y 5784   3.303   5.172   7.111 -0.9870  0.0351 -0.6939
   68SAPC   C36 5785   3.470   5.286   7.210 -0.1827  0.2839  0.2369
   68SAPC   H6X 5786   3.550   5.356   7.178  0.7608 -0.9796 -0.2696
   68SAPC   H6Y 5787   3.520   5.187   7.220 -1.0644 -0.0364  1.7855
   68SAPC   C37 5788   3.391   5.340   7.334 -0.3677 -0.0226  0.0468
   68SAPC   H7X 5789   3.311   5.265   7.349 -0.2335  0.1979  2.1449
   68SAPC   H7Y 5790   3.332   5.431   7.314  0.0498 -0.1774 -2.1026
   68SAPC   C38 5791   3.482   5.358   7.457  0.2536  0.5763 -0.7636
   68SAPC   H8X 5792   3.579   5.404   7.432  0.3229 -0.3039 -2.2688
   68SAPC   H8Y 5793   3.502   5.255   7.495 -2.1008  0.4613  0.4095
   68SAPC   C39 5794   3.409   5.419   7.575  0.0320 -0.2074 -0.2720
   68SAPC   H9X 5795   3.313   5.367   7.595  0.2418 -0.4393  0.1511
   68SAPC   H9Y 5796   3.381   5.520   7.538  0.1418 -0.8208 -2.1289
   68SAPC  C310 5797   3.490   5.412   7.711  0.1574  0.0074 -0.2287
   68SAPC  H10X 5798   3.441   5.480   7.783 -0.6497 -1.2311  0.4274
   68SAPC  H10Y 5799   3.590   5.456   7.690 -1.0869  1.5917 -3.6608
   68SAPC  C311 5800   3.503   5.271   7.774  0.0565 -0.2507  0.5763
   68SAPC  H11X 5801   3.555   5.207   7.700  1.2224  2.3556 -1.0199
   68SAPC  H11Y 5802   3.407   5.217   7.788 -0.2174 -0.0041 -0.3130
   68SAPC  C312 5803   3.601   5.275   7.890  0.2020 -0.0276 -0.5210
   68SAPC  H12X 5804   3.565   5.355   7.959 -1.2973  1.8472 -3.2834
   68SAPC  H12Y 5805   3.700   5.310   7.857 -0.4178  1.0982 -1.2587
   68SAPC  C313 5806   3.606   5.148   7.966  0.2497  0.3678 -0.1192
   68SAPC  H13X 5807   3.634   5.067   7.894  0.2828 -1.9631  2.3608
   68SAPC  H13Y 5808   3.511   5.115   8.013  1.6586 -0.4637  2.3085
   68SAPC  C314 5809   3.708   5.159   8.077  0.0621 -0.7840 -0.6547
   68SAPC  H14X 5810   3.666   5.241   8.139 -1.9089 -1.6010 -0.8524
   68SAPC  H14Y 5811   3.800   5.200   8.030  1.2971 -2.2908  0.3505
   68SAPC  C315 5812   3.734   5.024   8.150 -0.3937  0.1201  0.3146
   68SAPC  H15X 5813   3.790   4.942   8.100  2.5833  1.2431  1.6268
   68SAPC  H15Y 5814   3.632   4.990   8.181 -0.5960  0.4275 -0.0033
   68SAPC  C316 5815   3.818   5.049   8.279  0.4345 -0.0917 -0.3376
   68SAPC  H16X 5816   3.820   4.954   8.335  1.1335  0.2754  0.2715
   68SAPC  H16Y 5817   3.763   5.121   8.344  0.6881 -0.5051  0.3460
   68SAPC  C317 5818   3.952   5.105   8.248 -0.0518  0.2904 -0.5592
   68SAPC  H17X 5819   3.955   5.193   8.180 -0.5138  1.2008  0.5544
   68SAPC  H17Y 5820   4.001   5.025   8.189  0.1454 -0.4138  0.5339
   68SAPC  C318 5821   4.036   5.136   8.373  0.9160  0.1409 -0.0913
   68SAPC  H18X 5822   4.051   5.056   8.448  1.1521 -0.4331 -0.7361
   68SAPC  H18Y 5823   3.997   5.224   8.429  0.4787  0.1042 -0.3311
   68SAPC  H18Z 5824   4.143   5.152   8.348  0.2964  1.4891 -2.1435
   69SLPC     N 5825   1.347   3.262  11.014  0.3111  0.1434 -0.2223
   69SLPC   C13 5826   1.455   3.318  11.107  0.7845 -0.2773 -0.1505
   69SLPC  H13A 5827   1.516   3.390  11.055 -0.7970  1.8293  0.7432
   69SLPC  H13B 5828   1.415   3.371  11.193  1.7152 -1.1793  0.8772
   69SLPC  H13C 5829   1.516   3.239  11.148  1.6125  1.0856  1.3736
   69SLPC   C14 5830   1.287   3.378  10.945 -0.2656  0.3295 -0.8872
   69SLPC  H14A 5831   1.246   3.444  11.020  3.1872 -0.1174  1.6393
   69SLPC  H14B 5832   1.365   3.426  10.888  0.2129  0.1158 -0.4179
   69SLPC  H14C 5833   1.201   3.356  10.882 -1.8743 -0.4187  1.4549
   69SLPC   C15 5834   1.246   3.194  11.107 -0.0487  0.2524 -0.1868
   69SLPC  H15A 5835   1.149   3.185  11.061  0.2684 -3.4677 -0.3770
   69SLPC  H15B 5836   1.281   3.100  11.146  1.8083  0.3173 -1.5622
   69SLPC  H15C 5837   1.227   3.252  11.196  0.2451 -1.3336  0.9531
   69SLPC   C12 5838   1.409   3.164  10.922  0.5969  0.1604 -0.5333
   69SLPC  H12A 5839   1.493   3.215  10.879  0.7771  0.3678  0.0582
   69SLPC  H12B 5840   1.337   3.154  10.842 -0.4555  0.9176  0.2856
   69SLPC   C11 5841   1.441   3.026  10.974 -0.7363  0.4743 -0.1491
   69SLPC  H11A 5842   1.448   2.961  10.884 -1.0918 -3.2840  2.3058
   69SLPC  H11B 5843   1.358   2.977  11.029 -0.5473 -0.4315 -0.6437
   69SLPC     P 5844   1.706   3.024  11.023  0.1608  0.2799  0.3891
   69SLPC   O13 5845   1.751   3.161  11.031  0.1113  0.0720 -0.1000
   69SLPC   O14 5846   1.776   2.930  11.113  0.2092 -0.4672  0.0648
   69SLPC   O12 5847   1.554   3.017  11.054  0.9966 -0.5451  0.0028
   69SLPC   O11 5848   1.715   2.974  10.869  0.3128 -0.4460 -0.2420
   69SLPC    C1 5849   1.710   2.832  10.843 -0.1349  0.4368 -0.3217
   69SLPC    HA 5850   1.754   2.770  10.924 -0.2065  2.2532  1.1597
   69SLPC    HB 5851   1.604   2.804  10.824 -0.4053  0.5907  0.8940
   69SLPC    C2 5852   1.780   2.784  10.707 -0.1992 -0.0103  0.4250
   69SLPC    HS 5853   1.886   2.762  10.734  0.6104  1.7799 -1.1253
   69SLPC   O21 5854   1.773   2.896  10.608 -1.3582  0.1816 -0.0805
   69SLPC   C21 5855   1.875   2.903  10.525 -0.8935  0.0936  0.0279
   69SLPC   O22 5856   1.978   2.833  10.531 -0.6484  0.2183 -0.3688
   69SLPC   C22 5857   1.848   3.007  10.419 -0.3939 -0.2882  0.5408
   69SLPC   H2R 5858   1.737   3.009  10.405 -0.6203  2.0901  2.1476
   69SLPC   H2S 5859   1.887   3.109  10.441  0.5607 -0.6503  0.5599
   69SLPC    C3 5860   1.723   2.650  10.664  0.4742 -0.4415 -0.6271
   69SLPC    HX 5861   1.616   2.669  10.641  0.5366  0.3136 -0.3257
   69SLPC    HY 5862   1.721   2.568  10.739  2.0035 -0.3890 -0.5096
   69SLPC   O31 5863   1.789   2.603  10.547  0.0722  0.4665  0.3484
   69SLPC   C31 5864   1.901   2.535  10.568  0.0504  0.0546 -0.2264
   69SLPC   O32 5865   1.947   2.506  10.676 -0.5810 -0.2291  0.4450
   69SLPC   C32 5866   1.945   2.475  10.434 -0.2272 -0.1728 -0.1106
   69SLPC   H2X 5867   1.860   2.418  10.391  0.5309 -1.6091  0.2115
   69SLPC   H2Y 5868   2.027   2.401  10.448 -2.8011 -3.7307 -2.0528
   69SLPC   C23 5869   1.914   2.970  10.286 -0.0334 -0.4057  0.0249
   69SLPC   H3R 5870   1.877   2.868  10.261 -0.5138 -0.5384  1.2291
   69SLPC   H3S 5871   2.023   2.965  10.304 -0.1747 -0.5156  0.8930
   69SLPC   C24 5872   1.888   3.064  10.169 -0.2496 -0.1988 -0.0952
   69SLPC   H4R 5873   1.934   3.162  10.191 -2.2416  0.2869  2.3211
   69SLPC   H4S 5874   1.779   3.083  10.173  0.1496  2.3553  0.2860
   69SLPC   C25 5875   1.938   2.998  10.048 -0.4670  0.0536  0.1754
   69SLPC   H5R 5876   1.871   2.910  10.035 -1.2553  0.2722  2.3485
   69SLPC   H5S 5877   2.046   2.974  10.055 -0.0940  2.0904  3.9831
   69SLPC   C26 5878   1.936   3.091   9.931 -0.5294  0.3108 -0.2747
   69SLPC   H6R 5879   2.034   3.143   9.923 -0.4165  0.0668 -0.4962
   69SLPC   H6S 5880   1.863   3.172   9.954  0.4017  0.2432  3.5795
   69SLPC   C27 5881   1.912   3.020   9.799 -0.5153  0.1352 -0.4910
   69SLPC   H7R 5882   1.809   2.981   9.814  0.3403 -1.8470  0.6180
   69SLPC   H7S 5883   1.975   2.929   9.795  0.4122  0.7656 -0.7293
   69SLPC   C28 5884   1.931   3.112   9.676 -0.3432  0.7724  0.0535
   69SLPC   H8R 5885   2.036   3.106   9.638 -0.8334  1.0010 -1.4040
   69SLPC   H8S 5886   1.930   3.215   9.718  1.7630  0.6578  0.5087
   69SLPC   C29 5887   1.834   3.098   9.562 -0.0315  0.2599 -0.3668
   69SLPC   H9R 5888   1.856   3.013   9.496  1.9701  1.5019 -1.4006
   69SLPC  C210 5889   1.728   3.178   9.538 -0.5800 -0.2066 -0.7727
   69SLPC  H10R 5890   1.658   3.153   9.457 -1.6215  0.7591 -0.2150
   69SLPC  C211 5891   1.688   3.299   9.623 -0.2301  0.6532  0.4620
   69SLPC  H11R 5892   1.737   3.297   9.723  0.0393  2.5113  0.4001
   69SLPC  H11S 5893   1.580   3.280   9.645 -0.3550 -2.4417 -2.1078
   69SLPC  C212 5894   1.708   3.436   9.553  0.0925  0.1281 -0.0883
   69SLPC  H12R 5895   1.696   3.449   9.444  2.8108 -1.7004 -0.7104
   69SLPC  C213 5896   1.737   3.546   9.623 -0.4432 -0.5058  0.3597
   69SLPC  H13R 5897   1.749   3.642   9.571 -0.9972 -0.0387  1.0697
   69SLPC  C214 5898   1.772   3.555   9.775  0.6042 -0.8441  0.4783
   69SLPC  H14R 5899   1.866   3.610   9.800  0.4443 -0.3528  0.0198
   69SLPC  H14S 5900   1.807   3.455   9.807  0.0485 -1.6312 -1.2241
   69SLPC  C215 5901   1.659   3.605   9.874 -0.0654  0.9377  0.2197
   69SLPC  H15R 5902   1.572   3.537   9.875  1.2097 -0.7835 -1.0586
   69SLPC  H15S 5903   1.615   3.704   9.847 -0.8530  0.2304 -1.1785
   69SLPC  C216 5904   1.720   3.632  10.017  0.0091 -0.4886  0.1514
   69SLPC  H16R 5905   1.660   3.692  10.088  2.9423  2.0143  0.7282
   69SLPC  H16S 5906   1.797   3.709   9.994  0.5109 -0.9141  0.3882
   69SLPC  C217 5907   1.791   3.515  10.076 -0.0156 -0.1362 -0.2212
   69SLPC  H17R 5908   1.893   3.514  10.033  0.0733  1.0382 -0.0773
   69SLPC  H17S 5909   1.732   3.422  10.061  0.4020 -0.1989 -1.6523
   69SLPC  C218 5910   1.814   3.526  10.235  0.1686  0.6255 -0.1590
   69SLPC  H18R 5911   1.862   3.622  10.264 -1.2640  0.5147  2.8958
   69SLPC  H18S 5912   1.877   3.446  10.278  0.6617  0.5697 -0.9558
   69SLPC  H18T 5913   1.711   3.519  10.277 -0.0835 -0.9272 -0.9648
   69SLPC   C33 5914   1.995   2.572  10.322 -0.0643 -0.1174 -0.2438
   69SLPC   H3X 5915   2.096   2.612  10.345 -0.1260 -0.1309  0.0585
   69SLPC   H3Y 5916   1.929   2.661  10.327  2.5883  1.9007  1.8462
   69SLPC   C34 5917   1.986   2.502  10.190 -0.0953  0.1838 -0.0597
   69SLPC   H4X 5918   1.885   2.458  10.175  0.0536  0.4428 -2.1902
   69SLPC   H4Y 5919   2.063   2.423  10.207  0.7434  0.8891 -0.4858
   69SLPC   C35 5920   2.024   2.588  10.075 -0.0405  0.0143  0.2394
   69SLPC   H5X 5921   2.123   2.633  10.098  0.7631 -1.8063  0.5341
   69SLPC   H5Y 5922   1.944   2.663  10.056 -0.5235 -0.2099  1.2995
   69SLPC   C36 5923   2.055   2.499   9.950 -0.5683  0.5900  0.0207
   69SLPC   H6X 5924   1.965   2.446   9.912 -0.0671 -0.5285  0.3409
   69SLPC   H6Y 5925   2.135   2.428   9.982 -1.2999 -1.2505 -1.9547
   69SLPC   C37 5926   2.121   2.570   9.825  0.4091 -0.0746 -0.4318
   69SLPC   H7X 5927   2.215   2.612   9.867  0.3285 -0.7000  0.4055
   69SLPC   H7Y 5928   2.058   2.656   9.792 -0.5342 -0.9584 -1.0131
   69SLPC   C38 5929   2.152   2.489   9.710 -0.0719  0.2014  0.5768
   69SLPC   H8X 5930   2.057   2.434   9.691  0.6552 -1.1758  0.7659
   69SLPC   H8Y 5931   2.223   2.405   9.724  0.5735  0.1878 -2.3100
   69SLPC   C39 5932   2.175   2.574   9.584 -0.5899  0.3946 -1.1780
   69SLPC   H9X 5933   2.271   2.629   9.594 -0.9055  0.9208 -0.9688
   69SLPC   H9Y 5934   2.093   2.649   9.596 -2.3389 -1.4474 -1.0469
   69SLPC  C310 5935   2.146   2.492   9.460 -0.3813 -0.2745  0.2636
   69SLPC  H10X 5936   2.041   2.455   9.462 -0.1787 -0.8321  1.0389
   69SLPC  H10Y 5937   2.200   2.396   9.446 -0.0838  0.1130 -1.4436
   69SLPC  C311 5938   2.148   2.585   9.337  0.6031 -0.3766  0.4817
   69SLPC  H11X 5939   2.170   2.692   9.361 -1.8819  0.7494 -1.7160
   69SLPC  H11Y 5940   2.045   2.586   9.296 -0.0817 -0.6283  2.1448
   69SLPC  C312 5941   2.248   2.539   9.225  0.2257 -0.2170  0.3365
   69SLPC  H12X 5942   2.221   2.435   9.200  0.6489 -1.3269  3.9473
   69SLPC  H12Y 5943   2.353   2.533   9.259 -0.1954 -1.3246  1.5129
   69SLPC  C313 5944   2.237   2.644   9.113  0.3080  0.3549 -0.0747
   69SLPC  H13X 5945   2.310   2.626   9.031  0.6115 -0.0740  0.2874
   69SLPC  H13Y 5946   2.263   2.741   9.162  1.2395 -0.4972  1.1978
   69SLPC  C314 5947   2.095   2.645   9.041 -0.1863  0.1942  0.5559
   69SLPC  H14X 5948   2.008   2.623   9.106  0.3879  3.5193  2.7358
   69SLPC  H14Y 5949   2.104   2.568   8.962  0.0612  0.2359  0.5403
   69SLPC  C315 5950   2.064   2.778   8.977  0.1219  0.0579 -0.9922
   69SLPC  H15X 5951   2.053   2.855   9.056 -2.1825 -0.3785 -0.8165
   69SLPC  H15Y 5952   1.963   2.783   8.932 -0.1953  3.1726 -0.1866
   69SLPC  C316 5953   2.171   2.807   8.868 -0.1106 -0.4848  0.4715
   69SLPC  H16X 5954   2.177   2.729   8.789  2.0135  0.4340 -0.3452
   69SLPC  H16Y 5955   2.274   2.822   8.908  0.3079 -1.6069 -0.1286
   69SLPC  C317 5956   2.156   2.934   8.787  0.2352 -0.4662  0.6586
   69SLPC  H17X 5957   2.173   3.018   8.859 -1.2372 -0.1873  0.7212
   69SLPC  H17Y 5958   2.051   2.960   8.758  0.2198  0.3099  1.3630
   69SLPC  C318 5959   2.252   2.949   8.670 -0.0318  0.2337  0.1000
   69SLPC  H18X 5960   2.263   2.849   8.623  0.1524  0.8041 -1.0836
   69SLPC  H18Y 5961   2.346   2.997   8.706 -0.9004  1.5866  0.6604
   69SLPC  H18Z 5962   2.213   3.026   8.600  1.2907 -0.0383 -0.9715
   70SLPC     N 5963   1.520   5.719  10.717  0.2672 -0.4605 -0.0716
   70SLPC   C13 5964   1.628   5.818  10.748 -0.3649  0.1533 -0.6287
   70SLPC  H13A 5965   1.588   5.905  10.798  0.2999 -0.3977  0.9348
   70SLPC  H13B 5966   1.702   5.782  10.819 -1.6285 -0.8757  0.2130
   70SLPC  H13C 5967   1.672   5.857  10.657 -0.3308  1.3428 -0.1109
   70SLPC   C14 5968   1.431   5.712  10.837  0.2952 -0.1939 -0.7446
   70SLPC  H14A 5969   1.494   5.690  10.921 -1.3662 -1.0645  0.3398
   70SLPC  H14B 5970   1.386   5.805  10.867 -0.4286 -0.9196  0.5047
   70SLPC  H14C 5971   1.351   5.639  10.838 -2.2963  2.4575  1.1314
   70SLPC   C15 5972   1.579   5.583  10.693  0.0762  0.0647 -0.0303
   70SLPC  H15A 5973   1.655   5.607  10.620 -1.6143  2.2065 -1.2130
   70SLPC  H15B 5974   1.615   5.533  10.782 -0.0308 -0.5737 -0.3400
   70SLPC  H15C 5975   1.522   5.513  10.633 -1.4560  1.3843 -0.1705
   70SLPC   C12 5976   1.443   5.766  10.597  0.9792  0.0060  0.5046
   70SLPC  H12A 5977   1.388   5.857  10.619 -1.8313 -1.2520 -0.7633
   70SLPC  H12B 5978   1.375   5.691  10.558  2.2234  0.7865 -3.7219
   70SLPC   C11 5979   1.525   5.804  10.468  0.1199  0.0752 -0.6883
   70SLPC  H11A 5980   1.446   5.803  10.390 -1.1177 -0.7624  0.5219
   70SLPC  H11B 5981   1.594   5.718  10.454 -0.7367 -0.4043 -2.2500
   70SLPC     P 5982   1.509   6.062  10.513  0.2366 -0.1612 -0.0942
   70SLPC   O13 5983   1.413   6.051  10.624  0.7382 -0.0343 -0.0258
   70SLPC   O14 5984   1.614   6.164  10.515 -0.0740 -0.4144  0.2663
   70SLPC   O12 5985   1.586   5.928  10.488 -0.4555  0.0890 -0.2112
   70SLPC   O11 5986   1.425   6.072  10.377 -0.3340  0.2636  0.2234
   70SLPC    C1 5987   1.487   6.071  10.249  0.5870  0.1821  0.8975
   70SLPC    HA 5988   1.583   6.015  10.240 -0.0858 -0.7342 -1.4308
   70SLPC    HB 5989   1.417   6.037  10.170  0.3821 -1.5577  1.7843
   70SLPC    C2 5990   1.515   6.215  10.190  0.1392 -0.4230 -0.0893
   70SLPC    HS 5991   1.601   6.260  10.243 -0.3374  0.4157 -0.0081
   70SLPC   O21 5992   1.399   6.302  10.194  0.0801  0.0373 -0.1468
   70SLPC   C21 5993   1.401   6.413  10.256 -0.0597 -0.5050 -0.2772
   70SLPC   O22 5994   1.484   6.448  10.335 -0.8006  0.8212  0.4190
   70SLPC   C22 5995   1.279   6.502  10.235 -0.1125 -0.5980 -0.2798
   70SLPC   H2R 5996   1.201   6.423  10.225  1.8031 -2.6889  0.3704
   70SLPC   H2S 5997   1.265   6.552  10.333 -0.7667  2.9995 -2.0652
   70SLPC    C3 5998   1.566   6.194  10.041 -0.2853  0.1139  0.0797
   70SLPC    HX 5999   1.557   6.289   9.984 -0.9595  1.5780  2.4926
   70SLPC    HY 6000   1.482   6.142   9.991  0.9456 -2.1396  0.1973
   70SLPC   O31 6001   1.680   6.111  10.028 -0.3984 -0.3901  0.7575
   70SLPC   C31 6002   1.792   6.172  10.047  0.0209  0.1368  0.6823
   70SLPC   O32 6003   1.811   6.291  10.056  0.3449 -0.2745 -0.3742
   70SLPC   C32 6004   1.897   6.068  10.066 -0.2219  0.1764 -0.8284
   70SLPC   H2X 6005   1.842   5.974  10.046  0.3074 -0.8221  1.8531
   70SLPC   H2Y 6006   1.944   6.065  10.167 -1.0648 -1.7641 -0.4547
   70SLPC   C23 6007   1.301   6.601  10.123 -0.3364  0.3127 -0.1639
   70SLPC   H3R 6008   1.394   6.657  10.145  0.9857 -1.5903 -0.6552
   70SLPC   H3S 6009   1.224   6.681  10.124  0.1218  0.7700  1.4246
   70SLPC   C24 6010   1.309   6.540   9.976 -0.1316  0.5512  0.2216
   70SLPC   H4R 6011   1.224   6.470   9.963 -1.0618  1.3211  1.8825
   70SLPC   H4S 6012   1.411   6.496   9.973  0.2972  1.5258  0.0790
   70SLPC   C25 6013   1.292   6.649   9.860 -0.1150 -0.2538 -0.4601
   70SLPC   H5R 6014   1.375   6.722   9.868 -0.7578  0.2687  2.8712
   70SLPC   H5S 6015   1.198   6.696   9.894  0.1087  0.0801 -0.2970
   70SLPC   C26 6016   1.304   6.591   9.724  0.5901 -0.1167  0.1471
   70SLPC   H6R 6017   1.215   6.527   9.702  2.3906 -2.6354 -0.2049
   70SLPC   H6S 6018   1.393   6.525   9.732  2.6644  2.5295  0.2322
   70SLPC   C27 6019   1.331   6.687   9.603  0.0574  0.4227 -0.1099
   70SLPC   H7R 6020   1.411   6.761   9.621  0.6443  0.3087 -2.0926
   70SLPC   H7S 6021   1.234   6.741   9.597 -0.1814  0.1797  1.2142
   70SLPC   C28 6022   1.362   6.598   9.478  0.4060 -0.4180  0.0655
   70SLPC   H8R 6023   1.274   6.531   9.465 -1.9907  2.3773  0.8835
   70SLPC   H8S 6024   1.453   6.540   9.503  0.2952 -0.9545 -0.7334
   70SLPC   C29 6025   1.386   6.687   9.357  0.0778 -0.0450  0.1588
   70SLPC   H9R 6026   1.477   6.749   9.353  0.5841 -0.7753  0.0325
   70SLPC  C210 6027   1.307   6.689   9.242 -0.4392  0.1162 -0.6257
   70SLPC  H10R 6028   1.334   6.766   9.168 -0.1300  0.9425  0.3281
   70SLPC  C211 6029   1.180   6.601   9.224 -0.5751 -0.0787  1.1058
   70SLPC  H11R 6030   1.108   6.670   9.175 -1.3094  0.3561  2.7233
   70SLPC  H11S 6031   1.131   6.588   9.323 -1.6786 -0.5221  0.5074
   70SLPC  C212 6032   1.206   6.473   9.140 -0.1658 -0.2718  0.8002
   70SLPC  H12R 6033   1.308   6.432   9.138 -0.7151 -1.7147  1.4241
   70SLPC  C213 6034   1.104   6.419   9.064  0.2283  0.0510 -0.9825
   70SLPC  H13R 6035   1.130   6.320   9.022 -0.2804 -1.9395  2.8993
   70SLPC  C214 6036   0.962   6.468   9.052 -0.1662  0.4890 -0.0271
   70SLPC  H14R 6037   0.948   6.568   9.099 -2.3720  0.4820 -0.5330
   70SLPC  H14S 6038   0.891   6.400   9.105 -0.1634  0.9569  0.5889
   70SLPC  C215 6039   0.909   6.479   8.907  0.3982  0.0158  0.1813
   70SLPC  H15R 6040   0.799   6.478   8.917  0.5117 -1.5953  1.5319
   70SLPC  H15S 6041   0.935   6.387   8.850  0.1244  0.5364 -0.8101
   70SLPC  C216 6042   0.954   6.604   8.829  0.1842 -0.3216  0.4312
   70SLPC  H16R 6043   1.058   6.626   8.860  0.2332  0.2977 -0.1659
   70SLPC  H16S 6044   0.898   6.697   8.852  2.9573  1.9855 -1.5015
   70SLPC  C217 6045   0.959   6.582   8.672  0.2986 -0.1880  0.8443
   70SLPC  H17R 6046   0.862   6.580   8.618  0.6916  1.0104  0.0550
   70SLPC  H17S 6047   0.995   6.479   8.648  0.1219 -0.4622  1.7220
   70SLPC  C218 6048   1.043   6.682   8.591  0.7884 -0.0049  0.2444
   70SLPC  H18R 6049   1.030   6.791   8.607 -0.6909 -0.4365  2.3814
   70SLPC  H18S 6050   1.025   6.673   8.482  1.3524 -2.6220  0.3008
   70SLPC  H18T 6051   1.150   6.657   8.610  0.1490 -0.4653  4.2047
   70SLPC   C33 6052   2.014   6.075   9.962  0.1401 -0.2637  0.3089
   70SLPC   H3X 6053   2.093   6.005   9.998  0.7334 -0.5427 -1.4285
   70SLPC   H3Y 6054   2.064   6.174   9.967  0.0275 -0.1584 -0.4346
   70SLPC   C34 6055   1.981   6.059   9.815 -0.2222 -0.0521 -0.2791
   70SLPC   H4X 6056   1.904   6.134   9.785  1.3593  1.2697 -1.1801
   70SLPC   H4Y 6057   1.942   5.955   9.809 -0.6964  0.0520  0.7960
   70SLPC   C35 6058   2.101   6.069   9.720 -0.6215 -0.0503  0.1136
   70SLPC   H5X 6059   2.182   5.998   9.743 -0.4983  0.0461 -0.0200
   70SLPC   H5Y 6060   2.138   6.170   9.746  0.6737 -0.2701 -0.7958
   70SLPC   C36 6061   2.073   6.048   9.574  0.9453  0.1132 -0.0072
   70SLPC   H6X 6062   1.977   6.094   9.543  0.2516 -0.7974  0.7347
   70SLPC   H6Y 6063   2.061   5.941   9.547  1.2462  0.3176 -0.9942
   70SLPC   C37 6064   2.170   6.124   9.482 -0.1510  0.4246 -0.1150
   70SLPC   H7X 6065   2.254   6.050   9.477 -2.2887 -2.1702  0.1571
   70SLPC   H7Y 6066   2.198   6.222   9.525 -1.5958  1.1523 -0.7957
   70SLPC   C38 6067   2.127   6.150   9.346 -0.8693 -0.4972  0.2330
   70SLPC   H8X 6068   2.210   6.205   9.296 -0.7427 -0.8012  0.1031
   70SLPC   H8Y 6069   2.042   6.221   9.347 -0.0390  0.6125 -1.8283
   70SLPC   C39 6070   2.081   6.022   9.278 -0.0592 -0.3429 -0.0427
   70SLPC   H9X 6071   1.971   6.019   9.290 -0.3768  0.1641 -2.4804
   70SLPC   H9Y 6072   2.129   5.932   9.323 -0.3755 -0.0888  0.8382
   70SLPC  C310 6073   2.115   6.021   9.135 -0.7529 -0.3101 -0.4729
   70SLPC  H10X 6074   2.119   5.917   9.097 -1.6176  0.0731 -1.7017
   70SLPC  H10Y 6075   2.220   6.055   9.122 -1.0752 -0.1303 -3.1565
   70SLPC  C311 6076   2.027   6.098   9.049 -0.0731  0.3385 -0.0914
   70SLPC  H11X 6077   2.053   6.079   8.943  1.1391  0.3829  0.1825
   70SLPC  H11Y 6078   2.032   6.207   9.070  0.1834  0.9004 -2.7117
   70SLPC  C312 6079   1.878   6.055   9.053 -0.1063 -0.1465  0.0236
   70SLPC  H12X 6080   1.824   6.129   8.991  0.8684 -0.6338 -1.4530
   70SLPC  H12Y 6081   1.821   6.063   9.148  1.8667 -0.6068  1.3080
   70SLPC  C313 6082   1.844   5.923   8.987 -0.4498 -0.2478 -0.6964
   70SLPC  H13X 6083   1.891   5.850   9.057 -0.0896 -1.5042 -2.1864
   70SLPC  H13Y 6084   1.900   5.905   8.892  1.8562 -0.3787  0.6288
   70SLPC  C314 6085   1.697   5.889   8.982 -0.0212 -0.0298  0.0698
   70SLPC  H14X 6086   1.652   5.981   8.939 -0.3165 -0.9758 -1.7610
   70SLPC  H14Y 6087   1.653   5.887   9.084 -1.0579  1.6799 -0.3049
   70SLPC  C315 6088   1.676   5.771   8.884  0.8736 -0.4216 -0.4333
   70SLPC  H15X 6089   1.771   5.749   8.831  0.7185 -1.7046 -0.2045
   70SLPC  H15Y 6090   1.596   5.809   8.818  0.3779  0.6705  0.7479
   70SLPC  C316 6091   1.627   5.650   8.963  0.1540 -0.6876  0.5499
   70SLPC  H16X 6092   1.534   5.682   9.014 -0.3908  0.0355 -0.8321
   70SLPC  H16Y 6093   1.708   5.620   9.032  0.3475 -1.6656 -0.0746
   70SLPC  C317 6094   1.584   5.542   8.866  0.7682 -0.3337 -0.0065
   70SLPC  H17X 6095   1.563   5.448   8.921  0.8093 -0.3350  0.0075
   70SLPC  H17Y 6096   1.673   5.522   8.803  1.3112  2.5403 -0.2993
   70SLPC  C318 6097   1.464   5.567   8.775 -0.2210  0.0184 -0.2753
   70SLPC  H18X 6098   1.476   5.643   8.694 -2.6065 -0.9541 -1.6635
   70SLPC  H18Y 6099   1.376   5.610   8.827 -1.6193 -0.9997 -1.6886
   70SLPC  H18Z 6100   1.442   5.473   8.720 -2.1923 -0.6707  1.5736
   71SLPC     N 6101   0.615   6.765  10.754  0.3422 -0.4186  0.6184
   71SLPC   C13 6102   0.536   6.752  10.879 -0.2745 -0.0441 -0.5295
   71SLPC  H13A 6103   0.537   6.646  10.897 -1.6845 -0.1487 -0.8937
   71SLPC  H13B 6104   0.572   6.805  10.966 -0.5887 -0.1616 -0.3275
   71SLPC  H13C 6105   0.434   6.774  10.851 -0.0515  0.4003 -1.0241
   71SLPC   C14 6106   0.757   6.736  10.801 -0.0493  0.8086 -0.5799
   71SLPC  H14A 6107   0.772   6.784  10.897 -1.6351  1.2695 -0.5253
   71SLPC  H14B 6108   0.767   6.630  10.822 -0.8183  1.1560  1.9287
   71SLPC  H14C 6109   0.832   6.767  10.730 -0.2552  1.6322 -0.4495
   71SLPC   C15 6110   0.620   6.906  10.712  0.1640 -0.0774  0.8796
   71SLPC  H15A 6111   0.694   6.919  10.634 -0.9747 -0.4272 -0.3075
   71SLPC  H15B 6112   0.523   6.932  10.672  0.4422  0.6815  0.6802
   71SLPC  H15C 6113   0.638   6.972  10.795  0.4156 -1.7165  2.1924
   71SLPC   C12 6114   0.577   6.672  10.641 -0.1724  1.3013 -0.0137
   71SLPC  H12A 6115   0.649   6.680  10.562  0.0116 -2.2362 -0.3803
   71SLPC  H12B 6116   0.484   6.698  10.592 -0.5274  0.3814  0.1441
   71SLPC   C11 6117   0.563   6.521  10.672 -0.2338  0.1322 -0.1984
   71SLPC  H11A 6118   0.536   6.476  10.574  0.0734  0.5869 -0.4984
   71SLPC  H11B 6119   0.481   6.508  10.745 -1.7522  1.0074 -1.6694
   71SLPC     P 6120   0.702   6.314  10.753 -0.1063 -0.1901  0.1641
   71SLPC   O13 6121   0.829   6.281  10.815 -0.3923  0.4591 -1.1594
   71SLPC   O14 6122   0.578   6.268  10.826  0.3376  0.3949  0.4632
   71SLPC   O12 6123   0.690   6.468  10.728 -0.0451 -0.0512 -0.3249
   71SLPC   O11 6124   0.700   6.249  10.607 -0.5418 -0.3239  0.1615
   71SLPC    C1 6125   0.759   6.328  10.504  0.7516 -0.0885  0.7097
   71SLPC    HA 6126   0.750   6.438  10.518  2.3341  0.4325 -1.6653
   71SLPC    HB 6127   0.868   6.306  10.512  1.1873  2.3082  2.2797
   71SLPC    C2 6128   0.719   6.291  10.358  0.5765  0.2959 -0.3029
   71SLPC    HS 6129   0.636   6.357  10.325 -1.4982 -1.9806  0.0203
   71SLPC   O21 6130   0.681   6.156  10.350 -0.1734 -0.2996 -0.3210
   71SLPC   C21 6131   0.549   6.136  10.338  0.0417  0.0430  0.7981
   71SLPC   O22 6132   0.463   6.224  10.339 -0.5331 -0.3986 -0.7857
   71SLPC   C22 6133   0.522   5.988  10.301 -0.0385  0.2696 -0.3805
   71SLPC   H2R 6134   0.620   5.947  10.268 -0.4814 -2.2892  1.1823
   71SLPC   H2S 6135   0.500   5.929  10.392 -1.2456  1.3368  0.0573
   71SLPC    C3 6136   0.850   6.322  10.281  0.2134 -0.3577  0.8310
   71SLPC    HX 6137   0.913   6.232  10.294 -0.4017 -1.1514 -1.2577
   71SLPC    HY 6138   0.886   6.414  10.331 -1.2330 -0.3781  1.9656
   71SLPC   O31 6139   0.821   6.327  10.136  0.2145 -1.1720 -0.5385
   71SLPC   C31 6140   0.855   6.443  10.081  0.1327 -0.2392 -0.2287
   71SLPC   O32 6141   0.925   6.531  10.130  0.4003  0.1529 -0.0060
   71SLPC   C32 6142   0.803   6.444   9.944  0.2665 -0.0003 -1.2066
   71SLPC   H2X 6143   0.884   6.467   9.872  1.4194  0.0269  0.0481
   71SLPC   H2Y 6144   0.735   6.532   9.931  0.1667  0.0004 -0.6946
   71SLPC   C23 6145   0.409   5.973  10.201  0.3847 -0.3132 -0.0635
   71SLPC   H3R 6146   0.370   6.072  10.168  1.3382  0.3313  0.6793
   71SLPC   H3S 6147   0.316   5.935  10.249 -0.2430 -0.1138 -1.1001
   71SLPC   C24 6148   0.451   5.888  10.072 -0.0962 -0.4514 -0.7030
   71SLPC   H4R 6149   0.490   5.796  10.122  1.9450  1.1661  0.8408
   71SLPC   H4S 6150   0.535   5.949  10.034 -0.6699  1.2924  0.7427
   71SLPC   C25 6151   0.331   5.886   9.970 -0.1054  0.3473  0.1376
   71SLPC   H5R 6152   0.299   5.988   9.938 -2.5481 -1.1704 -2.8470
   71SLPC   H5S 6153   0.237   5.836  10.001  0.7383 -0.6725  1.0991
   71SLPC   C26 6154   0.365   5.806   9.838  0.6336  0.4713  0.7978
   71SLPC   H6R 6155   0.406   5.706   9.863  3.5021  1.5966  0.9446
   71SLPC   H6S 6156   0.438   5.871   9.785  1.9427 -0.3030  1.6238
   71SLPC   C27 6157   0.229   5.801   9.753  0.2184  0.3312  0.5240
   71SLPC   H7R 6158   0.191   5.906   9.748 -1.0996 -0.1057  0.8363
   71SLPC   H7S 6159   0.147   5.750   9.808 -0.5728  2.2613  1.2214
   71SLPC   C28 6160   0.241   5.747   9.613  0.3807  0.4560 -0.5704
   71SLPC   H8R 6161   0.297   5.652   9.606 -0.9331 -0.4724  0.7968
   71SLPC   H8S 6162   0.296   5.822   9.553 -2.4892  1.6647 -1.8988
   71SLPC   C29 6163   0.107   5.737   9.547 -0.1261 -0.2975 -0.2903
   71SLPC   H9R 6164   0.055   5.833   9.530 -2.9827 -1.4109  1.4731
   71SLPC  C210 6165   0.047   5.623   9.514  0.2428 -0.3605 -0.1747
   71SLPC  H10R 6166  -0.046   5.626   9.454  0.1591 -2.8734 -0.2823
   71SLPC  C211 6167   0.096   5.483   9.544  0.5271  0.4991 -0.2218
   71SLPC  H11R 6168   0.075   5.458   9.650  0.0229  0.7473 -0.2590
   71SLPC  H11S 6169   0.204   5.468   9.522  0.4954  0.2591 -0.2112
   71SLPC  C212 6170   0.011   5.381   9.467  0.5305  0.5493  0.1373
   71SLPC  H12R 6171  -0.072   5.333   9.521 -0.1111  0.1699 -1.1540
   71SLPC  C213 6172   0.026   5.352   9.340  0.2920 -0.0020  0.1318
   71SLPC  H13R 6173  -0.040   5.276   9.295  0.1036 -0.2571  0.8171
   71SLPC  C214 6174   0.135   5.404   9.252  0.0912  0.0868 -0.0723
   71SLPC  H14R 6175   0.174   5.311   9.206  2.5782  0.0552  1.9063
   71SLPC  H14S 6176   0.225   5.453   9.296 -0.0775  0.5646 -0.2453
   71SLPC  C215 6177   0.079   5.495   9.138  0.3784 -0.3133  0.4236
   71SLPC  H15R 6178   0.169   5.532   9.084  0.1748 -0.7032 -0.1840
   71SLPC  H15S 6179   0.022   5.573   9.193  0.5562 -0.9263  1.5094
   71SLPC  C216 6180  -0.028   5.435   9.046 -0.1507  0.0968 -0.4274
   71SLPC  H16R 6181  -0.066   5.508   8.971  0.8952 -0.1704 -1.2439
   71SLPC  H16S 6182  -0.123   5.401   9.093 -1.0132  0.5472 -1.7967
   71SLPC  C217 6183   0.036   5.326   8.961  0.7281  0.6385  0.4270
   71SLPC  H17R 6184  -0.036   5.281   8.890 -0.0798 -0.1920  1.7442
   71SLPC  H17S 6185   0.061   5.250   9.038 -0.6376  0.0814  0.3398
   71SLPC  C218 6186   0.165   5.350   8.883  0.5733  0.0974  0.9555
   71SLPC  H18R 6187   0.260   5.373   8.936  2.6298 -1.7885 -1.6453
   71SLPC  H18S 6188   0.145   5.434   8.813 -0.3759 -0.2194  0.8297
   71SLPC  H18T 6189   0.189   5.267   8.813  0.7395  0.8338  0.1113
   71SLPC   C33 6190   0.718   6.325   9.903  0.7684  0.8440 -0.4548
   71SLPC   H3X 6191   0.637   6.316   9.978  0.2308 -0.9458 -1.2052
   71SLPC   H3Y 6192   0.772   6.229   9.916 -1.2439 -0.2394  0.2980
   71SLPC   C34 6193   0.655   6.331   9.763 -0.4883  0.0577 -0.2491
   71SLPC   H4X 6194   0.734   6.335   9.686  0.6287 -0.8626  0.8129
   71SLPC   H4Y 6195   0.585   6.418   9.756 -1.0359 -0.2453  1.0508
   71SLPC   C35 6196   0.573   6.209   9.715 -0.0488 -1.0344  0.2971
   71SLPC   H5X 6197   0.492   6.189   9.789  0.4449 -0.4358  1.0232
   71SLPC   H5Y 6198   0.642   6.122   9.719  1.1979 -0.3474 -3.0192
   71SLPC   C36 6199   0.513   6.218   9.573  0.0942 -0.5669 -0.6455
   71SLPC   H6X 6200   0.597   6.207   9.501  0.3914  0.3497 -0.4555
   71SLPC   H6Y 6201   0.448   6.307   9.565 -0.2853 -0.7963 -0.1853
   71SLPC   C37 6202   0.419   6.101   9.554 -0.0159 -0.4629 -0.0814
   71SLPC   H7X 6203   0.345   6.107   9.636  2.2628 -0.0153  2.0784
   71SLPC   H7Y 6204   0.465   6.003   9.580  2.4892  0.2986 -1.3539
   71SLPC   C38 6205   0.344   6.079   9.417  1.3843  0.0513  0.3943
   71SLPC   H8X 6206   0.253   6.017   9.427 -1.5460  4.1348  1.5942
   71SLPC   H8Y 6207   0.420   6.036   9.348  0.4656  0.7120 -1.0815
   71SLPC   C39 6208   0.305   6.214   9.338 -0.0867  0.2358  0.0147
   71SLPC   H9X 6209   0.389   6.285   9.320  0.7637 -0.4853  1.0377
   71SLPC   H9Y 6210   0.233   6.269   9.401  0.3243  2.5375 -1.4162
   71SLPC  C310 6211   0.231   6.192   9.210 -0.0796  0.2331  0.1166
   71SLPC  H10X 6212   0.153   6.115   9.225 -0.8674  1.0236  0.1830
   71SLPC  H10Y 6213   0.301   6.165   9.128  0.8724 -0.0607  0.9991
   71SLPC  C311 6214   0.165   6.326   9.165 -0.2124 -0.3964  0.5514
   71SLPC  H11X 6215   0.242   6.405   9.173 -0.7355  0.3689 -1.4160
   71SLPC  H11Y 6216   0.076   6.356   9.226 -0.8335  1.4321 -1.1534
   71SLPC  C312 6217   0.092   6.330   9.024  0.1687  0.2025  0.2953
   71SLPC  H12X 6218   0.015   6.251   9.011 -1.2023  1.6948 -1.0045
   71SLPC  H12Y 6219   0.164   6.320   8.940  0.3498  1.2769  0.3107
   71SLPC  C313 6220   0.029   6.462   9.005 -0.0480  0.2035  0.1503
   71SLPC  H13X 6221   0.109   6.538   9.022 -1.2938  1.9090 -1.1659
   71SLPC  H13Y 6222  -0.056   6.490   9.070  0.4298  4.1992 -0.6580
   71SLPC  C314 6223  -0.028   6.479   8.863 -1.2487  0.0324  0.3806
   71SLPC  H14X 6224  -0.107   6.403   8.847  0.1052 -1.2063 -0.7508
   71SLPC  H14Y 6225   0.060   6.455   8.799 -0.5160 -0.1218  1.4011
   71SLPC  C315 6226  -0.074   6.618   8.829 -0.1401 -0.3769  0.1384
   71SLPC  H15X 6227   0.016   6.679   8.803  0.4907 -1.7003 -0.9286
   71SLPC  H15Y 6228  -0.123   6.668   8.915  1.4311 -0.6227  1.2268
   71SLPC  C316 6229  -0.169   6.627   8.702  0.5368  0.5956 -0.4415
   71SLPC  H16X 6230  -0.263   6.572   8.722 -0.7550  2.1507 -1.8622
   71SLPC  H16Y 6231  -0.106   6.586   8.620 -0.4666  1.4377 -1.6684
   71SLPC  C317 6232  -0.201   6.772   8.669 -0.2310 -0.4825  0.5239
   71SLPC  H17X 6233  -0.248   6.807   8.763 -0.1973 -3.6713  1.8526
   71SLPC  H17Y 6234  -0.276   6.785   8.589  2.1525  0.7854 -1.6548
   71SLPC  C318 6235  -0.087   6.869   8.623 -0.2374 -0.5273 -0.1865
   71SLPC  H18X 6236  -0.017   6.821   8.551  0.9787  0.3532  0.3837
   71SLPC  H18Y 6237  -0.025   6.921   8.699  1.3915  0.2378 -1.9442
   71SLPC  H18Z 6238  -0.133   6.953   8.567 -1.4321  0.9255  2.7680
   72SLPC     N 6239   4.219   5.209  10.801 -0.2011  0.1354 -0.0603
   72SLPC   C13 6240   4.295   5.285  10.917 -0.5274  0.5621  0.3122
   72SLPC  H13A 6241   4.361   5.361  10.877 -1.5288  1.4635  0.3076
   72SLPC  H13B 6242   4.230   5.340  10.984 -0.4542  0.5594  0.3850
   72SLPC  H13C 6243   4.358   5.222  10.977 -1.8448 -1.5631 -0.4203
   72SLPC   C14 6244   4.144   5.111  10.864  0.6610  0.0453 -0.9976
   72SLPC  H14A 6245   4.202   5.058  10.938 -0.2243  0.8546  0.2965
   72SLPC  H14B 6246   4.062   5.164  10.908  0.2711 -0.2999 -1.2971
   72SLPC  H14C 6247   4.088   5.053  10.792  0.0268  1.0903 -1.3648
   72SLPC   C15 6248   4.329   5.139  10.718 -0.5950 -0.4921  0.3813
   72SLPC  H15A 6249   4.283   5.073  10.646  2.1263 -2.1787  0.0471
   72SLPC  H15B 6250   4.398   5.218  10.696  0.4204 -0.5132  3.1391
   72SLPC  H15C 6251   4.379   5.071  10.785  0.0891 -0.0946  0.2846
   72SLPC   C12 6252   4.130   5.306  10.724 -0.5207 -0.8969 -0.0227
   72SLPC  H12A 6253   4.085   5.254  10.640 -1.0828  0.1868 -0.4097
   72SLPC  H12B 6254   4.186   5.390  10.687  0.1508 -0.0874  2.6340
   72SLPC   C11 6255   4.010   5.365  10.796  0.1480  0.3526 -0.0378
   72SLPC  H11A 6256   3.957   5.444  10.740 -1.7685  0.5064  1.8430
   72SLPC  H11B 6257   4.054   5.405  10.890 -0.4061  0.5984  0.1190
   72SLPC     P 6258   3.814   5.209  10.737  0.2747  0.6959  0.1456
   72SLPC   O13 6259   3.782   5.064  10.772  0.0353 -0.0143  0.5496
   72SLPC   O14 6260   3.709   5.305  10.719  0.1853 -0.2958  1.0915
   72SLPC   O12 6261   3.916   5.268  10.851  0.2539  0.1730  0.6521
   72SLPC   O11 6262   3.901   5.202  10.602  0.2167 -0.1676 -0.5760
   72SLPC    C1 6263   3.856   5.266  10.477 -0.7300  0.9293  0.2838
   72SLPC    HA 6264   3.819   5.369  10.498  2.1890  1.7085  2.4247
   72SLPC    HB 6265   3.932   5.275  10.396 -2.5678  3.1551 -1.3007
   72SLPC    C2 6266   3.737   5.182  10.414  0.5727 -0.3051 -0.2106
   72SLPC    HS 6267   3.690   5.122  10.496  0.5370  0.3828  0.2762
   72SLPC   O21 6268   3.786   5.082  10.313 -0.3953  0.1958 -0.2463
   72SLPC   C21 6269   3.709   4.977  10.274 -0.7508 -0.3909  0.2219
   72SLPC   O22 6270   3.597   4.952  10.311  0.6198 -0.2925  0.4235
   72SLPC   C22 6271   3.780   4.873  10.183 -0.3204 -0.3583 -0.1678
   72SLPC   H2R 6272   3.825   4.797  10.250 -1.6342 -0.7733  0.2794
   72SLPC   H2S 6273   3.711   4.814  10.118  0.2902 -2.4348  0.9633
   72SLPC    C3 6274   3.625   5.266  10.363  0.3720 -0.5604  0.7738
   72SLPC    HX 6275   3.602   5.335  10.446  0.6943 -2.1619  2.2573
   72SLPC    HY 6276   3.528   5.216  10.341 -0.2233 -0.7103  3.3868
   72SLPC   O31 6277   3.665   5.345  10.249 -0.0922  0.0016  0.4780
   72SLPC   C31 6278   3.599   5.343  10.134  0.2716  0.0300  0.1276
   72SLPC   O32 6279   3.497   5.278  10.118  0.5394 -0.0343 -0.2514
   72SLPC   C32 6280   3.648   5.450  10.038  0.0106  0.2741  0.7825
   72SLPC   H2X 6281   3.755   5.476  10.054  0.4674 -2.3383  2.6800
   72SLPC   H2Y 6282   3.578   5.536  10.042  0.0703  0.6576 -3.0379
   72SLPC   C23 6283   3.898   4.935  10.105  0.3612 -0.5403  0.0448
   72SLPC   H3R 6284   3.982   4.867  10.080  0.8531  0.3498 -0.8146
   72SLPC   H3S 6285   3.942   5.026  10.152  0.9090 -0.9510  0.3273
   72SLPC   C24 6286   3.847   4.972   9.960 -0.2520  0.2504 -0.3250
   72SLPC   H4R 6287   3.766   5.046   9.970 -1.4041 -0.6784 -2.2452
   72SLPC   H4S 6288   3.803   4.881   9.913  0.9397 -1.1983  1.2373
   72SLPC   C25 6289   3.942   5.045   9.870 -0.0477  0.0296 -0.4417
   72SLPC   H5R 6290   4.035   4.986   9.856  0.0136  0.2975 -1.1948
   72SLPC   H5S 6291   3.966   5.151   9.891 -1.8708  0.5821 -0.9096
   72SLPC   C26 6292   3.884   5.062   9.724 -0.4954  0.3659 -0.4052
   72SLPC   H6R 6293   3.941   5.142   9.672  1.3164  1.1807  2.5967
   72SLPC   H6S 6294   3.784   5.107   9.737 -0.7428 -0.1279 -0.5537
   72SLPC   C27 6295   3.895   4.938   9.636  0.3376 -0.8106 -0.4878
   72SLPC   H7R 6296   3.828   4.858   9.675 -0.9401  0.4254 -0.0875
   72SLPC   H7S 6297   3.997   4.894   9.647  0.5570 -0.0656  0.6002
   72SLPC   C28 6298   3.868   4.967   9.483  0.2761  0.4147 -0.0136
   72SLPC   H8R 6299   3.879   4.873   9.425  4.1104  1.1475 -0.7695
   72SLPC   H8S 6300   3.955   5.027   9.449  0.4771  0.2723  0.2427
   72SLPC   C29 6301   3.732   5.018   9.454  0.6313 -0.1617  0.4303
   72SLPC   H9R 6302   3.661   5.001   9.536  0.4431  0.4554  0.4023
   72SLPC  C210 6303   3.685   5.056   9.333  0.0825  0.5549  0.0684
   72SLPC  H10R 6304   3.585   5.097   9.314  0.2058  0.4978 -0.7445
   72SLPC  C211 6305   3.762   5.051   9.204  0.0881  0.4173 -1.3129
   72SLPC  H11R 6306   3.871   5.046   9.221  0.4049  0.2035 -3.2077
   72SLPC  H11S 6307   3.749   5.155   9.167  0.3139  1.4448  1.3063
   72SLPC  C212 6308   3.714   4.946   9.110  0.1417  0.4734  0.2177
   72SLPC  H12R 6309   3.661   4.862   9.158 -0.3778  0.9479  0.4779
   72SLPC  C213 6310   3.739   4.944   8.978  1.1094 -0.3455  0.8303
   72SLPC  H13R 6311   3.716   4.848   8.931  1.7963 -0.3097  0.4141
   72SLPC  C214 6312   3.820   5.046   8.893 -0.0737  0.6512  0.6162
   72SLPC  H14R 6313   3.849   5.131   8.958 -1.3592  1.3862  0.2592
   72SLPC  H14S 6314   3.766   5.089   8.806 -0.3510  1.1185  1.0172
   72SLPC  C215 6315   3.955   4.979   8.838  0.0044  0.1307 -0.0236
   72SLPC  H15R 6316   3.942   4.894   8.769  3.0474 -1.0837  0.7440
   72SLPC  H15S 6317   4.013   4.942   8.925  0.8526  3.3225  0.9358
   72SLPC  C216 6318   4.053   5.082   8.770 -0.2992 -0.0698 -0.2799
   72SLPC  H16R 6319   4.084   5.158   8.845  0.1883  0.8304 -1.3629
   72SLPC  H16S 6320   4.005   5.131   8.682 -2.3822 -0.1188  0.7637
   72SLPC  C217 6321   4.184   5.008   8.726  0.1113  0.1150  0.5104
   72SLPC  H17R 6322   4.155   4.927   8.656  0.9745 -2.3268  2.8248
   72SLPC  H17S 6323   4.228   4.951   8.811 -0.7710 -0.6303  0.4784
   72SLPC  C218 6324   4.277   5.112   8.655  0.2850  0.5728 -0.7384
   72SLPC  H18R 6325   4.363   5.062   8.606 -0.8475 -1.2035 -0.9923
   72SLPC  H18S 6326   4.321   5.178   8.733  0.6152 -0.5698  0.0655
   72SLPC  H18T 6327   4.225   5.180   8.584 -2.1035 -0.3975 -0.0187
   72SLPC   C33 6328   3.635   5.379   9.900  0.4717 -0.3454  0.0140
   72SLPC   H3X 6329   3.527   5.356   9.890  0.7347 -1.3698 -0.6196
   72SLPC   H3Y 6330   3.684   5.280   9.903 -0.7431 -0.9928 -0.7900
   72SLPC   C34 6331   3.676   5.480   9.785  0.2205  0.6431  0.6228
   72SLPC   H4X 6332   3.778   5.525   9.789  0.3161  0.4461  0.4249
   72SLPC   H4Y 6333   3.602   5.562   9.793 -0.8056 -0.3321  1.4352
   72SLPC   C35 6334   3.657   5.405   9.652 -0.6309  0.2611 -0.4755
   72SLPC   H5X 6335   3.560   5.351   9.646 -0.2780 -0.7509  1.7779
   72SLPC   H5Y 6336   3.750   5.346   9.640 -0.1772  0.5947  1.1308
   72SLPC   C36 6337   3.663   5.512   9.540  0.4979  0.0488  0.2450
   72SLPC   H6X 6338   3.765   5.557   9.537  0.3288  0.6522  2.0543
   72SLPC   H6Y 6339   3.595   5.598   9.552  0.6572  0.5952 -2.2740
   72SLPC   C37 6340   3.627   5.439   9.413  0.0498 -0.3761 -0.2267
   72SLPC   H7X 6341   3.519   5.412   9.423 -0.2092  1.3674  2.9465
   72SLPC   H7Y 6342   3.682   5.343   9.405 -0.9324 -0.9525 -0.2600
   72SLPC   C38 6343   3.658   5.514   9.283  0.3391 -0.4616 -0.5936
   72SLPC   H8X 6344   3.767   5.514   9.267  0.3709 -0.2804 -0.3820
   72SLPC   H8Y 6345   3.632   5.623   9.282 -1.3014 -0.8215 -0.9670
   72SLPC   C39 6346   3.594   5.442   9.166  0.0985 -0.8219  0.8659
   72SLPC   H9X 6347   3.486   5.469   9.169  0.3030  0.2562 -0.4502
   72SLPC   H9Y 6348   3.604   5.331   9.169  0.8584 -0.7365  2.0352
   72SLPC  C310 6349   3.653   5.491   9.034 -0.3148  0.1433  1.0749
   72SLPC  H10X 6350   3.667   5.601   9.028 -1.2628  0.2029 -2.8331
   72SLPC  H10Y 6351   3.588   5.465   8.948 -0.1213 -0.5709  1.1373
   72SLPC  C311 6352   3.791   5.434   8.988 -0.4046 -0.1385  0.2817
   72SLPC  H11X 6353   3.794   5.323   8.995  1.6751 -0.2299 -1.2967
   72SLPC  H11Y 6354   3.867   5.473   9.059 -1.2866 -0.2398  1.3124
   72SLPC  C312 6355   3.842   5.469   8.849 -0.2368 -0.2468  0.0503
   72SLPC  H12X 6356   3.939   5.415   8.848  0.5956  1.1949  0.3514
   72SLPC  H12Y 6357   3.857   5.579   8.851 -1.6863 -0.0317  0.2512
   72SLPC  C313 6358   3.752   5.422   8.732  0.1832 -0.2340 -0.8181
   72SLPC  H13X 6359   3.659   5.481   8.744  0.5529  0.2506 -0.3479
   72SLPC  H13Y 6360   3.742   5.311   8.740 -0.6742 -0.1020  0.2725
   72SLPC  C314 6361   3.815   5.458   8.600 -0.6462  0.6341 -0.1674
   72SLPC  H14X 6362   3.918   5.417   8.601 -1.4392 -1.6029 -1.2047
   72SLPC  H14Y 6363   3.809   5.566   8.578 -2.1181  0.3504 -1.4012
   72SLPC  C315 6364   3.739   5.393   8.476  0.0531  0.4112 -0.7477
   72SLPC  H15X 6365   3.735   5.282   8.477 -2.9121  0.4190 -0.6815
   72SLPC  H15Y 6366   3.789   5.426   8.383 -0.4094 -0.0945 -1.1836
   72SLPC  C316 6367   3.597   5.441   8.459  0.1472  0.7845 -0.0470
   72SLPC  H16X 6368   3.588   5.548   8.489  1.1231  0.5680  1.0997
   72SLPC  H16Y 6369   3.531   5.384   8.528  0.9228  0.9567  0.8670
   72SLPC  C317 6370   3.555   5.440   8.308 -0.0010 -0.3358  0.4997
   72SLPC  H17X 6371   3.549   5.330   8.289  3.5177 -0.6622  0.5000
   72SLPC  H17Y 6372   3.634   5.487   8.245  0.4115 -0.3217  1.0155
   72SLPC  C318 6373   3.432   5.520   8.284  0.2894 -0.1549  0.2092
   72SLPC  H18X 6374   3.354   5.467   8.342  1.1328 -2.2225 -0.4693
   72SLPC  H18Y 6375   3.410   5.522   8.175  1.3365  0.8266 -0.0069
   72SLPC  H18Z 6376   3.449   5.624   8.319  0.0396 -0.0553  0.0399
   73SLPC     N 6377   3.009   0.965  11.252 -0.0215 -0.2492 -0.0767
   73SLPC   C13 6378   3.059   1.109  11.239  0.6001  0.4313  0.1053
   73SLPC  H13A 6379   2.976   1.175  11.216  0.8279  0.2877 -1.1751
   73SLPC  H13B 6380   3.084   1.151  11.336 -2.6345  1.6037  0.5719
   73SLPC  H13C 6381   3.129   1.114  11.157 -0.0026  0.5927 -0.4070
   73SLPC   C14 6382   2.896   0.977  11.348  0.0675 -0.2841  0.2587
   73SLPC  H14A 6383   2.817   1.034  11.303 -0.5620 -2.2939 -1.3407
   73SLPC  H14B 6384   2.849   0.883  11.371 -1.9554  0.9220  1.2865
   73SLPC  H14C 6385   2.920   1.017  11.446 -0.3952  2.1059 -0.5345
   73SLPC   C15 6386   3.115   0.877  11.305 -0.2441  0.4133  0.0183
   73SLPC  H15A 6387   3.150   0.914  11.400  0.5163 -1.6624  0.6038
   73SLPC  H15B 6388   3.074   0.779  11.325 -0.2202 -0.6149 -3.9670
   73SLPC  H15C 6389   3.201   0.872  11.240  0.9142  0.3831  1.5011
   73SLPC   C12 6390   2.955   0.925  11.117  0.2287  0.5348  0.5813
   73SLPC  H12A 6391   2.898   1.013  11.088 -1.9445 -1.1453 -0.5359
   73SLPC  H12B 6392   2.901   0.832  11.129  0.0095  0.6585  0.5594
   73SLPC   C11 6393   3.069   0.918  11.009  0.9581  0.5402  0.4604
   73SLPC  H11A 6394   3.034   0.869  10.916  0.5899 -0.1048  0.9278
   73SLPC  H11B 6395   3.141   0.849  11.057  0.3328 -0.8281 -0.4951
   73SLPC     P 6396   3.049   1.133  10.867 -0.0783  0.0243 -0.1007
   73SLPC   O13 6397   2.902   1.136  10.902  0.1942 -0.9178 -0.1978
   73SLPC   O14 6398   3.111   1.260  10.865 -0.0043 -0.1632 -0.1550
   73SLPC   O12 6399   3.126   1.036  10.970  0.6665  0.0501 -0.2935
   73SLPC   O11 6400   3.053   1.066  10.727 -0.2127  0.1535  0.1699
   73SLPC    C1 6401   3.175   0.997  10.691 -0.3119  0.1933  0.0258
   73SLPC    HA 6402   3.268   1.052  10.716 -0.7057  2.0443 -2.2116
   73SLPC    HB 6403   3.177   0.901  10.747 -1.2803 -0.8498 -1.6183
   73SLPC    C2 6404   3.168   0.959  10.539  0.2141  0.0124  0.3317
   73SLPC    HS 6405   3.261   0.905  10.513 -0.3603 -0.7945 -0.0943
   73SLPC   O21 6406   3.134   1.069  10.453 -0.3400  0.4446 -0.4133
   73SLPC   C21 6407   3.236   1.150  10.436  0.1846  1.1106  0.2313
   73SLPC   O22 6408   3.354   1.115  10.433 -0.3719 -0.3853  0.1505
   73SLPC   C22 6409   3.189   1.297  10.432  0.3826 -0.6826  0.0906
   73SLPC   H2R 6410   3.081   1.305  10.458 -0.1700 -0.1256 -2.1190
   73SLPC   H2S 6411   3.235   1.351  10.517  0.5411 -1.4328  0.4959
   73SLPC    C3 6412   3.059   0.858  10.528 -0.3522 -0.4031 -0.6632
   73SLPC    HX 6413   2.967   0.905  10.569 -0.5398 -1.2114 -0.1219
   73SLPC    HY 6414   3.083   0.773  10.595 -0.5627  0.8013  1.0017
   73SLPC   O31 6415   3.052   0.804  10.396 -0.2316  0.2372 -0.2945
   73SLPC   C31 6416   2.949   0.857  10.324  0.2259  0.1054 -0.3361
   73SLPC   O32 6417   2.865   0.933  10.374  0.2002  0.0431  0.0386
   73SLPC   C32 6418   2.956   0.800  10.184  1.2914 -0.4144  0.4039
   73SLPC   H2X 6419   2.887   0.713  10.187 -1.8272  1.9100  3.1807
   73SLPC   H2Y 6420   3.061   0.764  10.170  1.7146  1.4611 -1.7969
   73SLPC   C23 6421   3.217   1.377  10.295 -0.1786  1.0776 -0.0249
   73SLPC   H3R 6422   3.327   1.372  10.275  0.5780  3.8614  2.5774
   73SLPC   H3S 6423   3.204   1.485  10.317 -0.1721  0.8515  1.2180
   73SLPC   C24 6424   3.144   1.324  10.172 -0.1100 -0.3672  0.2240
   73SLPC   H4R 6425   3.175   1.223  10.140  1.1537  0.0641  0.0143
   73SLPC   H4S 6426   3.168   1.393  10.088 -0.4883  0.3059  0.6543
   73SLPC   C25 6427   2.993   1.343  10.198 -0.3215 -0.1764 -0.3622
   73SLPC   H5R 6428   2.979   1.428  10.268 -0.1571  0.1545 -0.7273
   73SLPC   H5S 6429   2.962   1.254  10.256  3.5511 -0.5767  1.4207
   73SLPC   C26 6430   2.914   1.373  10.071 -0.2309 -0.1931  0.1942
   73SLPC   H6R 6431   2.914   1.287  10.001  1.7045 -0.1348  0.0622
   73SLPC   H6S 6432   2.935   1.464  10.011 -1.0219 -0.0793  0.0828
   73SLPC   C27 6433   2.772   1.400  10.108  0.6102 -0.2628 -0.0595
   73SLPC   H7R 6434   2.768   1.496  10.163 -2.2014 -0.2282 -0.1560
   73SLPC   H7S 6435   2.727   1.316  10.166 -0.4931 -0.2348 -0.8278
   73SLPC   C28 6436   2.673   1.418   9.993 -0.1499  0.1661 -0.4954
   73SLPC   H8R 6437   2.709   1.510   9.943 -1.8347 -0.0751 -2.3073
   73SLPC   H8S 6438   2.570   1.428  10.035  0.2743  0.8754  0.3927
   73SLPC   C29 6439   2.656   1.305   9.892  0.5527 -0.8643  0.5237
   73SLPC   H9R 6440   2.640   1.206   9.936 -0.2788 -0.3787  1.3794
   73SLPC  C210 6441   2.678   1.310   9.759 -0.3830 -0.5325  0.8615
   73SLPC  H10R 6442   2.677   1.219   9.699  1.2557  0.0417 -0.1084
   73SLPC  C211 6443   2.719   1.439   9.687  0.5978 -0.0193  0.1612
   73SLPC  H11R 6444   2.804   1.493   9.735  2.4356 -1.2140 -1.5918
   73SLPC  H11S 6445   2.634   1.511   9.681  0.1599 -0.3886  1.6592
   73SLPC  C212 6446   2.774   1.405   9.546  0.1227 -0.3030  0.5090
   73SLPC  H12R 6447   2.833   1.312   9.541 -0.0079 -0.3683  0.1022
   73SLPC  C213 6448   2.771   1.473   9.428  0.2266 -0.1326 -0.3502
   73SLPC  H13R 6449   2.815   1.430   9.337  0.9008  1.2380 -0.6935
   73SLPC  C214 6450   2.698   1.606   9.414  0.1034  0.0695  0.0021
   73SLPC  H14R 6451   2.770   1.662   9.350 -1.6493  2.0634 -0.3337
   73SLPC  H14S 6452   2.675   1.659   9.509 -1.0873  0.8627 -0.7031
   73SLPC  C215 6453   2.557   1.601   9.349 -0.4137  0.1722 -0.4570
   73SLPC  H15R 6454   2.501   1.696   9.359  0.6345  0.7044  0.6216
   73SLPC  H15S 6455   2.502   1.530   9.415 -0.0386 -0.3011 -0.6431
   73SLPC  C216 6456   2.560   1.574   9.199  0.4559 -0.0752  0.5325
   73SLPC  H16R 6457   2.635   1.500   9.164  0.5331  0.7997 -1.2387
   73SLPC  H16S 6458   2.595   1.665   9.145 -0.2515  0.1283  0.4112
   73SLPC  C217 6459   2.419   1.543   9.138  0.1475 -0.1115 -0.9218
   73SLPC  H17R 6460   2.351   1.624   9.171  0.3033 -0.4626  0.2933
   73SLPC  H17S 6461   2.386   1.452   9.191  1.8880 -0.6011 -0.5931
   73SLPC  C218 6462   2.408   1.536   8.987 -0.1158  0.6035  0.0746
   73SLPC  H18R 6463   2.491   1.476   8.945 -0.4305 -1.8330  2.6542
   73SLPC  H18S 6464   2.428   1.634   8.939 -2.6392 -0.8170 -4.5051
   73SLPC  H18T 6465   2.318   1.496   8.935  1.1575 -2.9783  0.3563
   73SLPC   C33 6466   2.920   0.892  10.070 -0.0470 -0.6252  0.2170
   73SLPC   H3X 6467   3.003   0.959  10.040 -1.0121 -0.6297 -2.7834
   73SLPC   H3Y 6468   2.832   0.959  10.084 -1.1064 -1.6929 -0.9862
   73SLPC   C34 6469   2.879   0.799   9.950 -0.0569 -0.5132 -0.9997
   73SLPC   H4X 6470   2.788   0.740   9.976  1.3101 -1.8669  0.9340
   73SLPC   H4Y 6471   2.954   0.717   9.950  0.3002 -0.4814  4.0136
   73SLPC   C35 6472   2.835   0.869   9.830 -0.1200  0.2093  0.2625
   73SLPC   H5X 6473   2.869   0.975   9.837 -1.4094  0.5866  1.3764
   73SLPC   H5Y 6474   2.725   0.879   9.817  0.1128 -0.4316 -2.6987
   73SLPC   C36 6475   2.882   0.808   9.701 -0.0674 -0.2222 -0.1003
   73SLPC   H6X 6476   2.836   0.708   9.688 -2.4772  0.8059  0.1356
   73SLPC   H6Y 6477   2.989   0.786   9.723 -0.2989  0.2053  1.5657
   73SLPC   C37 6478   2.875   0.897   9.569  0.6927 -0.2137  0.2735
   73SLPC   H7X 6479   2.912   0.837   9.484  0.9698 -0.2546  0.4206
   73SLPC   H7Y 6480   2.932   0.992   9.585  1.5953 -0.1179 -2.9472
   73SLPC   C38 6481   2.734   0.952   9.542 -0.2371  0.0753 -0.5307
   73SLPC   H8X 6482   2.695   1.023   9.617 -0.0300 -0.0722 -0.2826
   73SLPC   H8Y 6483   2.671   0.862   9.554 -1.4748  1.0054  0.2391
   73SLPC   C39 6484   2.731   1.000   9.398 -0.1594 -0.1808  0.2219
   73SLPC   H9X 6485   2.724   0.913   9.330 -0.8407 -0.3940  0.5548
   73SLPC   H9Y 6486   2.828   1.040   9.360 -0.7710  0.5332 -0.6310
   73SLPC  C310 6487   2.607   1.088   9.370  0.1738 -0.2132 -0.4334
   73SLPC  H10X 6488   2.596   1.162   9.452  1.3500 -2.3213  1.7521
   73SLPC  H10Y 6489   2.515   1.027   9.367  0.6659 -0.9575 -2.7888
   73SLPC  C311 6490   2.618   1.166   9.241  0.2563 -0.1141  0.6050
   73SLPC  H11X 6491   2.721   1.209   9.246  0.4229  0.1691 -2.7959
   73SLPC  H11Y 6492   2.551   1.254   9.250 -0.3169 -0.5128  0.3352
   73SLPC  C312 6493   2.593   1.082   9.119 -0.0142 -0.0505  0.3704
   73SLPC  H12X 6494   2.494   1.032   9.130  0.4806 -1.0512  0.4032
   73SLPC  H12Y 6495   2.663   0.996   9.121  0.1381 -0.0182 -1.6775
   73SLPC  C313 6496   2.604   1.170   8.988  0.4855 -0.4992 -0.0230
   73SLPC  H13X 6497   2.714   1.175   8.973  0.4923 -2.2156 -0.9055
   73SLPC  H13Y 6498   2.572   1.275   9.003  0.6175 -0.1783 -1.7597
   73SLPC  C314 6499   2.527   1.115   8.866  0.1814 -0.3955  0.9720
   73SLPC  H14X 6500   2.417   1.115   8.882  0.1581 -2.7289  1.0336
   73SLPC  H14Y 6501   2.558   1.009   8.863  1.8793  0.0483  1.6198
   73SLPC  C315 6502   2.569   1.180   8.728  0.4104  0.3540  0.1008
   73SLPC  H15X 6503   2.680   1.173   8.721  0.2562 -1.8873 -0.7640
   73SLPC  H15Y 6504   2.537   1.286   8.738  0.4839  0.6921 -2.4237
   73SLPC  C316 6505   2.493   1.130   8.604 -0.0537 -0.2359  0.3500
   73SLPC  H16X 6506   2.383   1.128   8.622 -0.1968 -1.3703 -0.5273
   73SLPC  H16Y 6507   2.526   1.029   8.575  1.9294  0.8682 -1.5171
   73SLPC  C317 6508   2.495   1.226   8.484  0.4588  0.3980  0.5732
   73SLPC  H17X 6509   2.604   1.224   8.459  0.1634  1.6686 -0.9834
   73SLPC  H17Y 6510   2.471   1.332   8.510 -0.2926  0.1421  0.9532
   73SLPC  C318 6511   2.403   1.185   8.370  0.2143 -0.0681 -0.6230
   73SLPC  H18X 6512   2.424   1.082   8.334 -1.6667 -1.4368  1.8384
   73SLPC  H18Y 6513   2.401   1.251   8.281  0.8937  0.5158 -0.2183
   73SLPC  H18Z 6514   2.301   1.177   8.414  0.0361 -0.6562 -1.1289
   74SLPC     N 6515   4.778   6.182  10.827 -0.0711  0.0994 -0.2919
   74SLPC   C13 6516   4.869   6.260  10.922  0.1555  0.3824  0.1032
   74SLPC  H13A 6517   4.829   6.357  10.946  3.2863  1.8515 -0.0638
   74SLPC  H13B 6518   4.883   6.211  11.017 -3.3720 -0.2932  0.4062
   74SLPC  H13C 6519   4.959   6.282  10.867 -0.9120 -1.2833 -2.5146
   74SLPC   C14 6520   4.648   6.255  10.839 -0.1772  0.2519  0.3610
   74SLPC  H14A 6521   4.610   6.265  10.939 -0.6986  2.2546  0.0209
   74SLPC  H14B 6522   4.656   6.356  10.799  0.3824  0.8016  1.7813
   74SLPC  H14C 6523   4.578   6.201  10.778  0.3571  1.2716 -1.2396
   74SLPC   C15 6524   4.756   6.043  10.882 -0.3476  0.6173  0.3114
   74SLPC  H15A 6525   4.848   5.988  10.874  0.0661  1.3981 -0.4918
   74SLPC  H15B 6526   4.726   6.045  10.986  1.2144  0.3682  0.7822
   74SLPC  H15C 6527   4.682   5.988  10.825 -0.1470  1.2691 -0.6047
   74SLPC   C12 6528   4.835   6.187  10.684 -0.3163 -0.8430 -0.5056
   74SLPC  H12A 6529   4.940   6.162  10.690  0.7847  2.8944 -1.4505
   74SLPC  H12B 6530   4.846   6.290  10.653  2.5367 -1.6298 -2.5316
   74SLPC   C11 6531   4.779   6.110  10.577 -0.6253 -0.6798  0.2478
   74SLPC  H11A 6532   4.818   6.140  10.477  1.0234 -2.0882  0.4321
   74SLPC  H11B 6533   4.668   6.107  10.568 -0.6244 -0.7470  0.2595
   74SLPC     P 6534   4.743   5.848  10.559  0.0580  0.2793 -0.2049
   74SLPC   O13 6535   4.844   5.746  10.549  0.3377  0.5899 -0.1947
   74SLPC   O14 6536   4.630   5.829  10.648  0.3137 -0.1743 -0.0355
   74SLPC   O12 6537   4.810   5.975  10.606  0.0870  0.0411 -0.2453
   74SLPC   O11 6538   4.699   5.884  10.418  0.1530  0.1702  0.1328
   74SLPC    C1 6539   4.568   5.919  10.388  0.2516  0.0797 -0.2597
   74SLPC    HA 6540   4.511   5.985  10.457 -0.7939  0.4443 -1.4404
   74SLPC    HB 6541   4.572   5.986  10.300  0.8783  0.2072 -0.1374
   74SLPC    C2 6542   4.481   5.796  10.342  0.7969  0.1541  0.0872
   74SLPC    HS 6543   4.475   5.740  10.438  0.7251 -1.0276 -0.5828
   74SLPC   O21 6544   4.553   5.719  10.242  0.2150 -0.6750  0.0412
   74SLPC   C21 6545   4.509   5.595  10.243  0.6184  0.0974  0.2466
   74SLPC   O22 6546   4.434   5.548  10.326  0.1364 -0.3953  0.0004
   74SLPC   C22 6547   4.562   5.516  10.126 -0.2531 -0.4063 -0.7226
   74SLPC   H2R 6548   4.624   5.442  10.180 -0.3840  0.0522  0.0741
   74SLPC   H2S 6549   4.489   5.458  10.065  0.8960 -2.3825 -0.2919
   74SLPC    C3 6550   4.343   5.840  10.280 -0.7732 -0.1329 -0.2960
   74SLPC    HX 6551   4.301   5.891  10.369  0.7239 -1.6361  1.3646
   74SLPC    HY 6552   4.273   5.756  10.263  0.3325 -1.0416 -0.4907
   74SLPC   O31 6553   4.362   5.928  10.162 -0.0452  0.1514 -0.1490
   74SLPC   C31 6554   4.341   5.873  10.042  0.2559 -0.1440 -0.3419
   74SLPC   O32 6555   4.325   5.751  10.028  0.1951  0.6197  0.2133
   74SLPC   C32 6556   4.353   5.974   9.933 -0.3585 -0.3206 -0.0650
   74SLPC   H2X 6557   4.458   6.010   9.926 -0.9686  1.5262 -0.3299
   74SLPC   H2Y 6558   4.289   6.060   9.963  1.0974 -0.0718  2.7011
   74SLPC   C23 6559   4.647   5.607  10.039  0.0334 -0.1491  0.0580
   74SLPC   H3R 6560   4.739   5.624  10.099  0.6236  0.0770 -0.8901
   74SLPC   H3S 6561   4.595   5.704  10.022  1.3044  0.2260 -2.0907
   74SLPC   C24 6562   4.690   5.538   9.907 -1.9862  0.4599 -0.4436
   74SLPC   H4R 6563   4.729   5.435   9.926  0.8201  1.2105 -1.5944
   74SLPC   H4S 6564   4.771   5.595   9.856 -1.8243 -0.2730 -1.0201
   74SLPC   C25 6565   4.569   5.516   9.819 -0.2282 -1.1210 -0.3101
   74SLPC   H5R 6566   4.518   5.614   9.818  0.9669 -0.4783 -1.0889
   74SLPC   H5S 6567   4.500   5.445   9.869 -0.9196 -0.5441 -0.4254
   74SLPC   C26 6568   4.612   5.468   9.682 -0.1547  0.0317 -0.3992
   74SLPC   H6R 6569   4.671   5.376   9.697 -1.3806 -0.7425 -0.1766
   74SLPC   H6S 6570   4.682   5.538   9.632  0.7588 -0.6732 -0.1352
   74SLPC   C27 6571   4.495   5.447   9.591  0.4057  0.4550  0.8332
   74SLPC   H7R 6572   4.441   5.543   9.590 -1.2687 -0.4505  0.4629
   74SLPC   H7S 6573   4.419   5.374   9.625  0.2610  0.8210  1.2943
   74SLPC   C28 6574   4.533   5.412   9.447  0.7108 -0.7296  0.2223
   74SLPC   H8R 6575   4.583   5.500   9.401 -1.2838 -1.7197 -4.5124
   74SLPC   H8S 6576   4.434   5.408   9.396 -0.4248 -3.3892  2.3658
   74SLPC   C29 6577   4.612   5.289   9.429  0.0128 -0.1784 -0.6749
   74SLPC   H9R 6578   4.711   5.302   9.476  0.0349 -1.0419 -0.4622
   74SLPC  C210 6579   4.569   5.177   9.375  0.6673 -0.4807 -0.1361
   74SLPC  H10R 6580   4.637   5.090   9.373  2.2849  0.5173  3.6256
   74SLPC  C211 6581   4.436   5.148   9.313  0.4185 -0.2709 -0.2396
   74SLPC  H11R 6582   4.420   5.225   9.235  2.9174 -0.5080 -1.0846
   74SLPC  H11S 6583   4.358   5.165   9.391  2.0558 -3.7508  2.4574
   74SLPC  C212 6584   4.418   5.007   9.256  0.3629  0.1236  0.1829
   74SLPC  H12R 6585   4.375   4.926   9.317 -2.0194 -0.4167 -2.0393
   74SLPC  C213 6586   4.435   4.978   9.126  0.3313  0.2237 -0.1582
   74SLPC  H13R 6587   4.421   4.876   9.088  3.3621 -0.1069 -0.6364
   74SLPC  C214 6588   4.488   5.083   9.031 -0.5834 -0.4190  0.0831
   74SLPC  H14R 6589   4.567   5.144   9.080 -2.8291  0.8020  2.4397
   74SLPC  H14S 6590   4.411   5.152   8.989 -1.3770  0.3989  2.7323
   74SLPC  C215 6591   4.549   5.014   8.909 -0.5085  0.4552 -0.4467
   74SLPC  H15R 6592   4.484   4.946   8.850 -0.3852 -1.1026  1.1298
   74SLPC  H15S 6593   4.630   4.946   8.944 -0.9240  0.2029  0.0198
   74SLPC  C216 6594   4.601   5.135   8.818 -0.2147 -0.3021  0.4514
   74SLPC  H16R 6595   4.663   5.205   8.877 -1.8420  0.7361  0.9907
   74SLPC  H16S 6596   4.513   5.198   8.793  1.2458  2.5794  2.0586
   74SLPC  C217 6597   4.668   5.086   8.695  0.2551  0.9825 -0.5587
   74SLPC  H17R 6598   4.586   5.048   8.630  0.2088 -0.2845  0.2118
   74SLPC  H17S 6599   4.738   5.003   8.718  0.1274  1.4219  1.6443
   74SLPC  C218 6600   4.747   5.203   8.627  0.3750 -0.1673  0.4307
   74SLPC  H18R 6601   4.687   5.293   8.601  2.2284  0.9745 -0.0669
   74SLPC  H18S 6602   4.801   5.165   8.538 -0.6598 -0.9608  0.1253
   74SLPC  H18T 6603   4.832   5.236   8.691  1.6830 -0.9784 -0.8352
   74SLPC   C33 6604   4.317   5.918   9.800 -0.0019  0.1558  0.5447
   74SLPC   H3X 6605   4.206   5.926   9.790 -0.1050 -1.4126  0.1703
   74SLPC   H3Y 6606   4.349   5.812   9.795  1.7754  0.7133 -0.5501
   74SLPC   C34 6607   4.391   6.001   9.688 -0.2463 -0.2626 -0.6936
   74SLPC   H4X 6608   4.496   5.969   9.698  0.2844  1.5432  0.0729
   74SLPC   H4Y 6609   4.397   6.106   9.725 -2.3173  0.2754 -1.6867
   74SLPC   C35 6610   4.348   5.970   9.544 -0.3634 -0.6186 -0.0221
   74SLPC   H5X 6611   4.238   5.987   9.539 -0.0220  1.6891 -1.3989
   74SLPC   H5Y 6612   4.369   5.866   9.511 -1.9320 -1.1197  0.4801
   74SLPC   C36 6613   4.422   6.056   9.438  0.6309  0.6266 -0.2533
   74SLPC   H6X 6614   4.528   6.025   9.432  0.2425 -1.4647  1.9384
   74SLPC   H6Y 6615   4.409   6.165   9.455 -1.4582  0.3829  0.0476
   74SLPC   C37 6616   4.356   6.019   9.296 -0.0947 -0.2162 -0.6175
   74SLPC   H7X 6617   4.246   6.035   9.296 -0.4864 -2.0899  2.7555
   74SLPC   H7Y 6618   4.370   5.910   9.286  0.5092 -0.8553  4.4214
   74SLPC   C38 6619   4.422   6.101   9.186 -0.2295 -0.1767 -0.4876
   74SLPC   H8X 6620   4.529   6.079   9.166  0.7452  2.4804  1.2812
   74SLPC   H8Y 6621   4.411   6.209   9.210 -0.4890 -0.4091  0.4528
   74SLPC   C39 6622   4.355   6.065   9.051 -0.0461  0.1445  0.0415
   74SLPC   H9X 6623   4.244   6.075   9.047 -0.2735 -1.4154  1.3447
   74SLPC   H9Y 6624   4.380   5.960   9.028 -0.9163  0.1628 -1.0701
   74SLPC  C310 6625   4.416   6.139   8.937 -0.5739 -0.2826 -0.6378
   74SLPC  H10X 6626   4.527   6.144   8.947 -0.6501 -1.3010  1.1162
   74SLPC  H10Y 6627   4.385   6.245   8.930  1.9475  0.4938 -1.2641
   74SLPC  C311 6628   4.392   6.060   8.805  0.2642  0.2862  0.4284
   74SLPC  H11X 6629   4.447   5.964   8.810  0.1372  0.2423  1.0555
   74SLPC  H11Y 6630   4.417   6.119   8.714  0.0014  0.0331  0.1909
   74SLPC  C312 6631   4.250   6.016   8.794 -0.7762 -0.1604 -0.6717
   74SLPC  H12X 6632   4.198   6.110   8.823 -0.2156 -0.0257 -0.0784
   74SLPC  H12Y 6633   4.221   5.934   8.863 -3.0589 -0.0039 -1.3612
   74SLPC  C313 6634   4.217   5.969   8.652  0.7137 -0.7416 -0.5860
   74SLPC  H13X 6635   4.267   5.873   8.627  1.4733  0.0264 -2.1319
   74SLPC  H13Y 6636   4.237   6.053   8.582 -1.2433 -0.7346 -1.1991
   74SLPC  C314 6637   4.062   5.950   8.629 -0.1802  0.0050  0.8186
   74SLPC  H14X 6638   4.036   5.869   8.700  0.3551 -0.7011  0.2333
   74SLPC  H14Y 6639   4.049   5.908   8.526  1.2794  1.1135  0.1454
   74SLPC  C315 6640   3.982   6.081   8.648  0.1803  0.3559 -0.0843
   74SLPC  H15X 6641   4.009   6.141   8.737 -0.1314  1.5598 -0.7827
   74SLPC  H15Y 6642   3.876   6.050   8.659  0.2787  0.6551  2.1771
   74SLPC  C316 6643   3.985   6.163   8.516 -0.0010 -0.5306  0.0515
   74SLPC  H16X 6644   3.975   6.105   8.421  2.3908  0.6122 -0.9548
   74SLPC  H16Y 6645   4.092   6.189   8.510  0.4367 -1.3572  2.8622
   74SLPC  C317 6646   3.888   6.285   8.506  0.4310  0.9557  0.0103
   74SLPC  H17X 6647   3.784   6.245   8.510  1.4062 -1.8636 -0.5098
   74SLPC  H17Y 6648   3.886   6.324   8.402 -0.8484 -3.2747 -1.7679
   74SLPC  C318 6649   3.907   6.388   8.619  0.6214  0.0056 -0.1887
   74SLPC  H18X 6650   3.896   6.343   8.720 -1.2704 -0.6808 -0.6449
   74SLPC  H18Y 6651   3.832   6.467   8.598 -0.0450 -1.0644 -2.0942
   74SLPC  H18Z 6652   4.009   6.430   8.612 -0.0138  1.5349 -0.8091
   75SLPC     N 6653   0.916   5.346   6.118  0.5671 -0.0241 -0.0990
   75SLPC   C13 6654   0.786   5.396   6.059  0.0630  0.1042 -0.0318
   75SLPC  H13A 6655   0.797   5.417   5.953 -0.3678 -2.5456 -0.6717
   75SLPC  H13B 6656   0.722   5.309   6.069  3.7847 -3.1033 -1.3200
   75SLPC  H13C 6657   0.744   5.489   6.094 -0.7018 -0.6532  1.1228
   75SLPC   C14 6658   0.951   5.210   6.057  0.7200  0.9010 -0.1817
   75SLPC  H14A 6659   0.963   5.217   5.950  0.9606  2.1233 -0.0936
   75SLPC  H14B 6660   1.049   5.192   6.098  0.7926  1.1596 -0.2375
   75SLPC  H14C 6661   0.885   5.127   6.080  2.4365 -0.4833 -0.0480
   75SLPC   C15 6662   0.895   5.329   6.266 -0.4713 -0.4914  0.1461
   75SLPC  H15A 6663   0.887   5.428   6.308  2.0953 -0.8942  1.7611
   75SLPC  H15B 6664   0.810   5.264   6.282  0.3548 -1.4740  0.6379
   75SLPC  H15C 6665   0.981   5.277   6.304  1.5989  0.4594 -2.8407
   75SLPC   C12 6666   1.026   5.448   6.092  0.1294  0.1274  0.1216
   75SLPC  H12A 6667   0.986   5.536   6.140  2.4642  0.9814  0.6140
   75SLPC  H12B 6668   1.020   5.459   5.985 -0.9542 -3.0417 -0.2516
   75SLPC   C11 6669   1.166   5.419   6.146 -0.5865  0.1827  0.6407
   75SLPC  H11A 6670   1.233   5.503   6.117 -1.4043  0.8443  0.6177
   75SLPC  H11B 6671   1.210   5.334   6.090 -0.0083  0.7875  0.1536
   75SLPC     P 6672   1.178   5.516   6.382 -0.2174 -0.3633  0.0522
   75SLPC   O13 6673   1.304   5.592   6.368 -0.8264  0.1582  0.4736
   75SLPC   O14 6674   1.058   5.588   6.352 -0.4761 -0.0059  0.0735
   75SLPC   O12 6675   1.180   5.391   6.282 -0.0717 -0.2354 -0.5161
   75SLPC   O11 6676   1.169   5.449   6.521  0.0363 -0.4195 -0.6667
   75SLPC    C1 6677   1.055   5.400   6.576  0.1419 -0.2353 -0.1142
   75SLPC    HA 6678   0.972   5.375   6.507 -0.5823 -0.6625  0.8812
   75SLPC    HB 6679   1.075   5.302   6.625 -0.0419 -0.2889 -0.1483
   75SLPC    C2 6680   0.992   5.490   6.690  0.1052  0.2222  0.2894
   75SLPC    HS 6681   0.997   5.593   6.649 -0.4425 -0.0834 -0.5696
   75SLPC   O21 6682   1.072   5.476   6.807  0.2207  0.9150  0.4573
   75SLPC   C21 6683   1.042   5.558   6.900  0.0696 -0.0208 -0.5738
   75SLPC   O22 6684   0.965   5.653   6.890 -0.1822  0.6824 -0.4310
   75SLPC   C22 6685   1.133   5.535   7.024  0.0225 -0.1027 -0.2321
   75SLPC   H2R 6686   1.135   5.425   7.041 -1.6550 -0.0905  0.2435
   75SLPC   H2S 6687   1.238   5.571   7.020 -0.7039  2.0844 -1.0086
   75SLPC    C3 6688   0.833   5.457   6.699  0.7106 -0.6774 -0.0274
   75SLPC    HX 6689   0.794   5.471   6.596 -1.6756  0.7708  1.0029
   75SLPC    HY 6690   0.794   5.540   6.762 -1.7359  0.0624 -2.3386
   75SLPC   O31 6691   0.803   5.323   6.750 -1.0593 -0.6344  0.0388
   75SLPC   C31 6692   0.677   5.289   6.772  0.3559 -0.0101 -0.3016
   75SLPC   O32 6693   0.585   5.373   6.770  0.0291 -0.0595  0.7102
   75SLPC   C32 6694   0.673   5.136   6.808  1.0498 -0.2955 -0.1480
   75SLPC   H2X 6695   0.765   5.105   6.863  1.1702  0.4703  0.0902
   75SLPC   H2Y 6696   0.665   5.076   6.715 -1.1645  0.3284 -0.4166
   75SLPC   C23 6697   1.079   5.618   7.152  0.6429 -0.1938  0.5168
   75SLPC   H3R 6698   0.973   5.586   7.162  0.9351 -0.9870  1.2340
   75SLPC   H3S 6699   1.101   5.726   7.135  1.2448 -0.5467 -1.1612
   75SLPC   C24 6700   1.151   5.582   7.288  0.4510  0.3871  0.2088
   75SLPC   H4R 6701   1.226   5.660   7.317  1.6423  0.0102 -1.6432
   75SLPC   H4S 6702   1.209   5.488   7.275  1.6058  1.2781 -1.5358
   75SLPC   C25 6703   1.050   5.579   7.397  0.4223 -0.4678 -0.3078
   75SLPC   H5R 6704   0.976   5.497   7.382  0.4782 -0.5271 -0.2605
   75SLPC   H5S 6705   0.999   5.678   7.406  1.5147  0.0965 -0.1627
   75SLPC   C26 6706   1.125   5.551   7.525 -0.3514 -0.3194  0.8456
   75SLPC   H6R 6707   1.188   5.635   7.563  1.0163 -2.6329  4.1242
   75SLPC   H6S 6708   1.194   5.465   7.511 -0.9449 -0.7222  0.3747
   75SLPC   C27 6709   1.034   5.516   7.645  0.3409 -0.3722  0.4517
   75SLPC   H7R 6710   0.955   5.440   7.624 -2.2989  2.0578  1.0371
   75SLPC   H7S 6711   0.971   5.598   7.686 -1.0705 -1.1224 -0.1307
   75SLPC   C28 6712   1.108   5.466   7.773  0.7907  0.0564 -0.2943
   75SLPC   H8R 6713   1.146   5.363   7.760 -0.5277 -0.2144 -2.5430
   75SLPC   H8S 6714   1.035   5.468   7.856  0.1602  2.4882 -0.8016
   75SLPC   C29 6715   1.229   5.546   7.811 -0.0854  0.4895  0.3782
   75SLPC   H9R 6716   1.303   5.564   7.732 -1.7308  1.3557 -1.0288
   75SLPC  C210 6717   1.263   5.601   7.930  0.9128  0.9943 -0.0460
   75SLPC  H10R 6718   1.358   5.656   7.930  0.9095  1.0049  0.2472
   75SLPC  C211 6719   1.200   5.599   8.066 -0.1673  0.4868 -0.2660
   75SLPC  H11R 6720   1.117   5.526   8.068  0.3295 -0.1793 -1.8414
   75SLPC  H11S 6721   1.152   5.698   8.076  0.9610  1.0860 -0.5339
   75SLPC  C212 6722   1.287   5.558   8.180  0.1285  0.1408  0.0552
   75SLPC  H12R 6723   1.370   5.489   8.159  0.2515  0.6745 -1.3749
   75SLPC  C213 6724   1.266   5.597   8.304 -0.0389  0.0271 -1.1746
   75SLPC  H13R 6725   1.336   5.555   8.378 -0.5347  0.8697 -0.1994
   75SLPC  C214 6726   1.154   5.692   8.358 -0.3544  0.3713  0.0801
   75SLPC  H14R 6727   1.052   5.649   8.370  0.3991 -1.2217  1.0145
   75SLPC  H14S 6728   1.147   5.776   8.285  1.0319  1.0836  0.7320
   75SLPC  C215 6729   1.189   5.771   8.489 -0.5651  0.0273  1.0289
   75SLPC  H15R 6730   1.158   5.878   8.480 -0.2906  0.0202 -0.1585
   75SLPC  H15S 6731   1.299   5.779   8.503 -0.2753 -1.2857 -0.3401
   75SLPC  C216 6732   1.141   5.700   8.613  0.4477  0.0632  0.1556
   75SLPC  H16R 6733   1.188   5.759   8.695  1.1784 -1.0048  0.5316
   75SLPC  H16S 6734   1.183   5.597   8.617  0.0231 -0.0810  1.1651
   75SLPC  C217 6735   0.987   5.704   8.632  0.1018 -0.3769  0.2093
   75SLPC  H17R 6736   0.971   5.637   8.719 -0.2700  0.7126  0.9907
   75SLPC  H17S 6737   0.940   5.653   8.546 -0.6507  0.4094  0.1478
   75SLPC  C218 6738   0.931   5.848   8.646  0.8100 -0.0414  0.8024
   75SLPC  H18R 6739   0.930   5.896   8.545  0.7463 -1.7538 -0.0439
   75SLPC  H18S 6740   0.997   5.908   8.712  0.9963 -0.9971  1.5050
   75SLPC  H18T 6741   0.826   5.834   8.679 -0.3323  2.6071 -1.3133
   75SLPC   C33 6742   0.542   5.101   6.889 -0.9523  0.1555  0.7181
   75SLPC   H3X 6743   0.457   5.119   6.819  0.6696 -0.0194 -1.4007
   75SLPC   H3Y 6744   0.550   4.994   6.918  1.0820  0.2392  0.6191
   75SLPC   C34 6745   0.535   5.178   7.020 -0.5085 -0.2474 -0.2874
   75SLPC   H4X 6746   0.453   5.129   7.078  1.3856 -4.9601 -1.1670
   75SLPC   H4Y 6747   0.526   5.285   6.992  1.9553  0.5102  1.5470
   75SLPC   C35 6748   0.664   5.174   7.109  0.3808  0.3130  0.0086
   75SLPC   H5X 6749   0.733   5.253   7.071 -0.7195  0.2728 -2.2222
   75SLPC   H5Y 6750   0.707   5.072   7.111  1.7357  0.8697  1.6814
   75SLPC   C36 6751   0.617   5.200   7.252 -0.0328  0.2357 -0.4064
   75SLPC   H6X 6752   0.563   5.111   7.292 -0.6423  0.8385  0.1258
   75SLPC   H6Y 6753   0.544   5.284   7.256 -0.5077 -0.2072  0.5711
   75SLPC   C37 6754   0.733   5.241   7.341  0.1448  0.9043 -0.0161
   75SLPC   H7X 6755   0.806   5.304   7.287  0.2966  0.9941  0.2876
   75SLPC   H7Y 6756   0.790   5.155   7.384 -1.7115 -0.3724 -0.0049
   75SLPC   C38 6757   0.679   5.328   7.456  0.1569  0.0260 -0.4195
   75SLPC   H8X 6758   0.611   5.396   7.400 -0.4533 -0.0094  0.2633
   75SLPC   H8Y 6759   0.752   5.401   7.497 -1.1053  0.6384  0.8188
   75SLPC   C39 6760   0.619   5.252   7.578 -0.5020 -0.5520 -0.3517
   75SLPC   H9X 6761   0.563   5.168   7.532  1.0084 -2.2782  0.8034
   75SLPC   H9Y 6762   0.551   5.324   7.629 -0.0246 -2.4631  3.3441
   75SLPC  C310 6763   0.740   5.207   7.672  0.9873  0.3112 -0.7669
   75SLPC  H10X 6764   0.816   5.286   7.689  1.4337 -0.5823  1.9787
   75SLPC  H10Y 6765   0.790   5.120   7.624 -0.9569 -1.1130 -0.3226
   75SLPC  C311 6766   0.690   5.163   7.811 -0.2456  0.1652  0.6069
   75SLPC  H11X 6767   0.780   5.136   7.870  1.2701  1.0098 -1.2349
   75SLPC  H11Y 6768   0.625   5.073   7.796  1.1745 -0.7933  0.0427
   75SLPC  C312 6769   0.627   5.285   7.885 -0.7255  0.4419  0.1482
   75SLPC  H12X 6770   0.621   5.254   7.991 -1.4627  0.7800  0.2124
   75SLPC  H12Y 6771   0.528   5.311   7.842 -0.2892 -0.7802 -1.7131
   75SLPC  C313 6772   0.717   5.416   7.884 -0.5166 -0.0764 -0.1372
   75SLPC  H13X 6773   0.693   5.473   7.791 -0.9225  3.2477  1.8122
   75SLPC  H13Y 6774   0.825   5.391   7.877 -0.3777 -0.3670  2.2952
   75SLPC  C314 6775   0.702   5.508   8.008 -0.2800  0.3530 -0.2094
   75SLPC  H14X 6776   0.594   5.497   8.033 -0.4674 -4.1776 -2.0950
   75SLPC  H14Y 6777   0.714   5.616   7.984  0.7402  0.9904  2.8148
   75SLPC  C315 6778   0.787   5.469   8.131 -0.7412 -1.1387  0.1631
   75SLPC  H15X 6779   0.895   5.455   8.111 -0.3118 -2.3381  2.9211
   75SLPC  H15Y 6780   0.760   5.371   8.175 -1.1120 -0.2815  1.9341
   75SLPC  C316 6781   0.765   5.571   8.240  0.1164 -1.1837 -0.2541
   75SLPC  H16X 6782   0.767   5.678   8.211  0.2127 -0.3732  2.4069
   75SLPC  H16Y 6783   0.840   5.566   8.323 -2.5615 -1.4943  2.3306
   75SLPC  C317 6784   0.630   5.561   8.304  0.3719  0.2699 -0.6566
   75SLPC  H17X 6785   0.573   5.475   8.261 -1.4787  0.9982  0.2321
   75SLPC  H17Y 6786   0.566   5.652   8.298  0.1068  0.1509  0.2921
   75SLPC  C318 6787   0.645   5.527   8.453 -0.1551  0.5083  0.9979
   75SLPC  H18X 6788   0.692   5.612   8.506  0.2757 -0.3329  2.0074
   75SLPC  H18Y 6789   0.694   5.428   8.463 -0.9062 -0.0466 -0.3988
   75SLPC  H18Z 6790   0.549   5.507   8.507  0.8655 -1.8030  2.1184
   76SLPC     N 6791   1.763   5.396   5.803 -0.0048 -0.1056  0.0716
   76SLPC   C13 6792   1.819   5.513   5.734 -0.2149 -0.4303  0.1883
   76SLPC  H13A 6793   1.831   5.501   5.627 -0.1898  0.8229  0.0432
   76SLPC  H13B 6794   1.763   5.602   5.755 -1.1109 -0.9819  0.1958
   76SLPC  H13C 6795   1.923   5.523   5.761  0.1241 -1.6700 -0.5635
   76SLPC   C14 6796   1.845   5.270   5.773 -0.0234 -0.1364  0.3666
   76SLPC  H14A 6797   1.807   5.181   5.821  0.4014 -1.1275 -1.0541
   76SLPC  H14B 6798   1.852   5.249   5.667 -0.7001  2.2428 -0.2076
   76SLPC  H14C 6799   1.949   5.281   5.800  0.4712  0.8950 -1.7362
   76SLPC   C15 6800   1.620   5.384   5.752 -0.9535 -0.3198 -0.3581
   76SLPC  H15A 6801   1.619   5.349   5.650  0.7899 -2.8004  0.3855
   76SLPC  H15B 6802   1.557   5.327   5.819  0.1327  1.0740  1.9583
   76SLPC  H15C 6803   1.575   5.482   5.759 -1.6722 -0.4360 -2.5597
   76SLPC   C12 6804   1.775   5.422   5.945 -0.6293  0.1270 -0.9461
   76SLPC  H12A 6805   1.719   5.345   5.997  0.0519 -1.0516 -1.8923
   76SLPC  H12B 6806   1.718   5.509   5.973 -1.2332 -0.1430 -1.3226
   76SLPC   C11 6807   1.915   5.424   6.024 -0.3633 -1.0910 -0.0281
   76SLPC  H11A 6808   1.990   5.352   5.984  1.7764  1.2883 -0.5217
   76SLPC  H11B 6809   1.883   5.398   6.127  0.1075 -1.8698 -0.0660
   76SLPC     P 6810   2.133   5.566   6.040  0.3535  0.1007  0.2165
   76SLPC   O13 6811   2.197   5.459   5.960 -0.3882  0.3278 -0.2157
   76SLPC   O14 6812   2.173   5.701   6.012 -0.5195 -0.1380 -0.3529
   76SLPC   O12 6813   1.976   5.554   6.023  0.0350 -0.3482  0.1372
   76SLPC   O11 6814   2.165   5.534   6.191 -0.0941 -0.3637 -0.2465
   76SLPC    C1 6815   2.087   5.593   6.292  0.1082  0.3300 -0.0164
   76SLPC    HA 6816   2.119   5.698   6.312 -2.2147  1.7027 -2.7821
   76SLPC    HB 6817   1.980   5.584   6.264  0.5809 -2.7717 -1.2425
   76SLPC    C2 6818   2.094   5.514   6.427 -0.3318 -0.1173  0.6875
   76SLPC    HS 6819   2.039   5.574   6.502 -0.0269  0.5121  0.4076
   76SLPC   O21 6820   2.235   5.499   6.467 -0.6629  0.3065  0.0399
   76SLPC   C21 6821   2.266   5.482   6.598  0.5693 -0.2567 -0.3186
   76SLPC   O22 6822   2.185   5.499   6.692  0.3081  0.3502  0.7227
   76SLPC   C22 6823   2.412   5.440   6.624  0.3500 -1.3853  0.1672
   76SLPC   H2R 6824   2.461   5.436   6.524 -1.3965 -2.0698 -0.7086
   76SLPC   H2S 6825   2.455   5.517   6.691 -3.3655  1.2837 -0.1828
   76SLPC    C3 6826   2.029   5.372   6.423 -0.2174  0.1611  0.1001
   76SLPC    HX 6827   2.082   5.324   6.337 -0.2743 -2.3802  1.3839
   76SLPC    HY 6828   1.919   5.380   6.411 -0.5790 -1.3701  1.9173
   76SLPC   O31 6829   2.053   5.290   6.535 -0.6707 -0.0462 -0.1274
   76SLPC   C31 6830   2.030   5.156   6.513  0.8771  0.3365  0.1036
   76SLPC   O32 6831   1.978   5.111   6.417 -0.0596 -0.0297 -0.2019
   76SLPC   C32 6832   2.055   5.086   6.655  0.5317  0.0165  0.2278
   76SLPC   H2X 6833   2.059   5.164   6.734 -1.3768  0.7402 -0.3356
   76SLPC   H2Y 6834   2.150   5.030   6.645  1.4455  1.2072  1.6878
   76SLPC   C23 6835   2.430   5.304   6.694 -0.5644  0.1901  0.0144
   76SLPC   H3R 6836   2.534   5.269   6.677 -0.2223  1.1847 -0.0145
   76SLPC   H3S 6837   2.370   5.229   6.637 -0.2961  1.4405 -2.0305
   76SLPC   C24 6838   2.395   5.292   6.845 -0.6772 -0.1806 -0.1550
   76SLPC   H4R 6839   2.286   5.316   6.847 -0.3000  1.6425 -0.0682
   76SLPC   H4S 6840   2.453   5.365   6.904  1.6872 -1.3879 -0.8589
   76SLPC   C25 6841   2.395   5.151   6.903  0.4914 -0.4682  0.0821
   76SLPC   H5R 6842   2.495   5.110   6.878  0.5219  0.7140 -1.9564
   76SLPC   H5S 6843   2.314   5.101   6.845  0.0089 -0.3181  0.6118
   76SLPC   C26 6844   2.359   5.157   7.044  0.0913 -0.2262  0.3477
   76SLPC   H6R 6845   2.299   5.071   7.080 -1.6843  1.2791  1.1235
   76SLPC   H6S 6846   2.293   5.245   7.056 -0.4509 -0.7231  1.0677
   76SLPC   C27 6847   2.483   5.176   7.137 -0.2305  0.0046  0.3725
   76SLPC   H7R 6848   2.554   5.228   7.068 -3.5723  1.4108 -2.3001
   76SLPC   H7S 6849   2.530   5.079   7.163  0.2932  0.7621  2.4219
   76SLPC   C28 6850   2.458   5.261   7.256 -0.0691  0.0876 -0.9731
   76SLPC   H8R 6851   2.556   5.283   7.304 -0.4383 -1.2973  0.4612
   76SLPC   H8S 6852   2.409   5.358   7.234 -0.0239  0.3591  0.0795
   76SLPC   C29 6853   2.367   5.179   7.353 -0.5434 -0.0551  0.0510
   76SLPC   H9R 6854   2.260   5.168   7.328 -0.2690  2.1967 -2.7239
   76SLPC  C210 6855   2.412   5.131   7.471  0.3250  0.7790  0.3113
   76SLPC  H10R 6856   2.335   5.071   7.521  1.2239 -0.4395  0.2804
   76SLPC  C211 6857   2.541   5.143   7.544 -0.2604 -0.0855  0.0533
   76SLPC  H11R 6858   2.545   5.236   7.604  0.5915 -0.3888  0.4944
   76SLPC  H11S 6859   2.628   5.153   7.476 -0.8977  0.8457 -0.6498
   76SLPC  C212 6860   2.567   5.035   7.646  0.4559 -0.6588  0.2294
   76SLPC  H12R 6861   2.615   4.939   7.622  1.9487 -0.4989  2.2935
   76SLPC  C213 6862   2.529   5.051   7.776  0.1349  0.4194 -0.0168
   76SLPC  H13R 6863   2.547   4.958   7.833 -1.8175 -1.1573 -1.8112
   76SLPC  C214 6864   2.449   5.169   7.836  0.5368  0.3025 -0.4965
   76SLPC  H14R 6865   2.367   5.139   7.905  1.0846  0.4227  0.2272
   76SLPC  H14S 6866   2.400   5.231   7.759  0.7529  1.7525  0.4829
   76SLPC  C215 6867   2.537   5.260   7.922  0.3070  0.3599  0.3809
   76SLPC  H15R 6868   2.467   5.342   7.948 -0.0204 -0.1763  1.2326
   76SLPC  H15S 6869   2.607   5.314   7.854 -2.1153  1.5650 -1.2889
   76SLPC  C216 6870   2.609   5.183   8.035  0.5723 -0.4445  0.2269
   76SLPC  H16R 6871   2.688   5.115   7.996  0.0402 -0.6279 -0.5571
   76SLPC  H16S 6872   2.533   5.121   8.087 -2.1012  0.5206 -2.2551
   76SLPC  C217 6873   2.679   5.278   8.132 -0.5579  0.5799 -0.0438
   76SLPC  H17R 6874   2.615   5.353   8.183 -1.0219 -0.5809  1.1444
   76SLPC  H17S 6875   2.743   5.335   8.062  1.3301  0.3962  1.4376
   76SLPC  C218 6876   2.764   5.195   8.234 -0.4046 -0.4781 -0.1840
   76SLPC  H18R 6877   2.695   5.147   8.306 -1.9084 -0.0492 -1.2981
   76SLPC  H18S 6878   2.835   5.265   8.283  0.0057 -1.0818  0.0923
   76SLPC  H18T 6879   2.810   5.119   8.167 -2.0502 -0.7675 -1.0233
   76SLPC   C33 6880   1.929   4.999   6.691  0.5119  0.0148 -0.1807
   76SLPC   H3X 6881   1.900   4.922   6.616  1.4081 -0.6520  0.1437
   76SLPC   H3Y 6882   1.844   5.069   6.705  0.4722  0.2126 -1.3128
   76SLPC   C34 6883   1.951   4.926   6.821  0.9987 -0.3999 -0.6851
   76SLPC   H4X 6884   2.043   4.864   6.814 -0.5629 -3.3191  2.0045
   76SLPC   H4Y 6885   1.863   4.859   6.835  0.4755  0.2040 -0.9989
   76SLPC   C35 6886   1.954   5.013   6.949  0.1940  0.0349 -0.1998
   76SLPC   H5X 6887   1.860   5.069   6.963  0.1732  0.3880 -1.5743
   76SLPC   H5Y 6888   2.035   5.085   6.925 -0.3559  0.8590  0.3972
   76SLPC   C36 6889   1.995   4.932   7.069 -0.3561 -0.2357  1.0234
   76SLPC   H6X 6890   2.098   4.890   7.062 -0.0701  0.7169 -1.5990
   76SLPC   H6Y 6891   1.917   4.855   7.086 -3.4713  2.0582 -1.5373
   76SLPC   C37 6892   1.995   5.032   7.199 -0.0808  0.9823 -0.4388
   76SLPC   H7X 6893   1.886   5.054   7.205 -0.2340  0.1447  0.0346
   76SLPC   H7Y 6894   2.046   5.125   7.166  0.4757  0.6405 -0.5450
   76SLPC   C38 6895   2.043   4.971   7.326  1.0360  0.4291 -0.3719
   76SLPC   H8X 6896   2.153   4.955   7.333  0.8589 -0.4478  0.5993
   76SLPC   H8Y 6897   1.997   4.871   7.336  0.2717  0.6218 -1.7196
   76SLPC   C39 6898   1.987   5.048   7.441  0.7940  0.0653  0.1526
   76SLPC   H9X 6899   1.877   5.052   7.435  0.7164 -0.1760  1.1396
   76SLPC   H9Y 6900   2.015   5.155   7.451  1.3219  0.2777 -2.9114
   76SLPC  C310 6901   2.028   4.980   7.569  0.5178 -0.1866  0.1314
   76SLPC  H10X 6902   2.138   4.969   7.575  1.0231  3.4687 -0.5517
   76SLPC  H10Y 6903   1.984   4.878   7.570  2.3757 -1.0195  1.3067
   76SLPC  C311 6904   1.969   5.054   7.692  0.1009 -0.2985 -0.2338
   76SLPC  H11X 6905   1.859   5.071   7.686 -0.2407 -1.7344  1.3004
   76SLPC  H11Y 6906   2.029   5.147   7.685  0.5856 -0.5757  0.1689
   76SLPC  C312 6907   2.021   4.988   7.820  0.1644  0.1087  0.2510
   76SLPC  H12X 6908   2.130   4.990   7.802 -0.3460  1.7207 -3.6719
   76SLPC  H12Y 6909   1.989   4.886   7.849 -0.2351  0.9321  3.0179
   76SLPC  C313 6910   1.995   5.079   7.945 -0.2739 -0.3565 -0.1611
   76SLPC  H13X 6911   1.895   5.045   7.978 -0.7711 -2.2273 -3.2010
   76SLPC  H13Y 6912   1.968   5.179   7.903 -3.2826 -1.0340 -0.0964
   76SLPC  C314 6913   2.098   5.104   8.060 -0.3070  0.6168 -0.2169
   76SLPC  H14X 6914   2.185   5.162   8.023 -0.5436  0.4950 -0.9728
   76SLPC  H14Y 6915   2.153   5.010   8.084 -0.4981  0.3276 -0.8867
   76SLPC  C315 6916   2.034   5.156   8.191 -0.2073  0.5205 -0.6422
   76SLPC  H15X 6917   1.966   5.072   8.221  0.2889  0.6325  0.9078
   76SLPC  H15Y 6918   1.973   5.247   8.176 -0.5591  0.4027 -0.0071
   76SLPC  C316 6919   2.124   5.180   8.315  0.0111 -1.3135 -0.0654
   76SLPC  H16X 6920   2.062   5.194   8.407  1.0565  0.8213  0.3915
   76SLPC  H16Y 6921   2.175   5.279   8.313 -1.1170 -0.7079  0.0245
   76SLPC  C317 6922   2.226   5.071   8.348 -0.2537  0.4485  0.0116
   76SLPC  H17X 6923   2.185   4.973   8.317 -2.1263  0.8189  1.1609
   76SLPC  H17Y 6924   2.239   5.066   8.458  0.2946  2.3332  0.0686
   76SLPC  C318 6925   2.367   5.102   8.287  0.1337 -0.6935  0.5409
   76SLPC  H18X 6926   2.402   5.199   8.329  0.4852 -0.9380  0.8236
   76SLPC  H18Y 6927   2.349   5.127   8.180 -0.6357  1.1148  1.0514
   76SLPC  H18Z 6928   2.443   5.025   8.313 -1.2814 -1.8194  1.4853
   77SLPC     N 6929   5.216   5.299   6.143 -0.0586 -0.3176  0.3589
   77SLPC   C13 6930   5.263   5.436   6.102  0.7922  0.4722  0.2744
   77SLPC  H13A 6931   5.275   5.438   5.994  2.6791  1.0454  0.4535
   77SLPC  H13B 6932   5.186   5.511   6.115  1.0971  1.3162 -2.2236
   77SLPC  H13C 6933   5.355   5.465   6.151  0.8932 -0.4298  0.6321
   77SLPC   C14 6934   5.306   5.196   6.072  0.7893 -0.1798  0.5624
   77SLPC  H14A 6935   5.326   5.229   5.971 -0.8309  1.6003  0.7541
   77SLPC  H14B 6936   5.401   5.182   6.121  1.5385 -4.0608 -1.5624
   77SLPC  H14C 6937   5.261   5.098   6.062  2.1440 -0.7226 -0.5090
   77SLPC   C15 6938   5.082   5.287   6.084 -0.5297  0.2583 -0.3217
   77SLPC  H15A 6939   5.087   5.302   5.977  0.6592 -1.0167 -0.4759
   77SLPC  H15B 6940   5.034   5.191   6.092 -0.7937  0.2508 -1.6828
   77SLPC  H15C 6941   5.010   5.360   6.117 -1.0990 -0.2487 -0.4211
   77SLPC   C12 6942   5.211   5.274   6.296 -0.2503  0.9151 -0.3884
   77SLPC  H12A 6943   5.185   5.170   6.305  0.2193  0.3132 -4.1311
   77SLPC  H12B 6944   5.124   5.329   6.327  0.0856  0.5625  1.2685
   77SLPC   C11 6945   5.340   5.301   6.385 -0.5133  0.0556 -0.4671
   77SLPC  H11A 6946   5.426   5.248   6.339 -0.1491  1.1893 -1.1254
   77SLPC  H11B 6947   5.313   5.250   6.479 -1.6940 -1.7975 -1.7340
   77SLPC     P 6948   5.512   5.503   6.385 -0.0161  0.1655 -0.0337
   77SLPC   O13 6949   5.609   5.397   6.406 -0.0820  0.0280  0.0388
   77SLPC   O14 6950   5.519   5.575   6.253  0.4004 -0.0831 -0.2785
   77SLPC   O12 6951   5.369   5.445   6.396 -0.9409 -0.4619  0.1832
   77SLPC   O11 6952   5.527   5.607   6.507 -0.3155  0.2003  0.3180
   77SLPC    C1 6953   5.412   5.682   6.554  0.1096  0.4038  0.0980
   77SLPC    HA 6954   5.451   5.785   6.566  0.2545  0.2742  0.7619
   77SLPC    HB 6955   5.324   5.692   6.487 -1.0182 -0.5066  1.3748
   77SLPC    C2 6956   5.364   5.640   6.695 -0.7019 -0.2123  0.6568
   77SLPC    HS 6957   5.273   5.698   6.719 -0.0808  0.7560  0.7388
   77SLPC   O21 6958   5.467   5.678   6.785 -0.1325 -0.2418  0.1898
   77SLPC   C21 6959   5.459   5.805   6.834 -0.4469  0.6895  0.2856
   77SLPC   O22 6960   5.380   5.891   6.802 -0.0588  0.4083 -0.4821
   77SLPC   C22 6961   5.587   5.827   6.911  0.7232  0.2304  0.3540
   77SLPC   H2R 6962   5.600   5.736   6.974  0.3283 -1.7084 -2.2312
   77SLPC   H2S 6963   5.673   5.836   6.841  1.3363  2.0070  1.2538
   77SLPC    C3 6964   5.329   5.490   6.702  0.3191 -0.1795 -0.9971
   77SLPC    HX 6965   5.433   5.451   6.697  1.1963  1.5275  1.5021
   77SLPC    HY 6966   5.269   5.457   6.615  2.1516 -2.4513 -1.4925
   77SLPC   O31 6967   5.271   5.454   6.833  0.2504 -0.3131  0.7271
   77SLPC   C31 6968   5.222   5.330   6.827 -0.8674  0.0831  0.0900
   77SLPC   O32 6969   5.203   5.268   6.722 -0.8252 -0.4828 -0.1691
   77SLPC   C32 6970   5.195   5.274   6.969  0.0584 -0.5113 -0.3783
   77SLPC   H2X 6971   5.232   5.350   7.040 -0.4710  0.3159 -0.9653
   77SLPC   H2Y 6972   5.263   5.187   6.980  2.2133  1.2917  1.4653
   77SLPC   C23 6973   5.572   5.958   6.980 -0.5552  0.6736 -0.4824
   77SLPC   H3R 6974   5.478   5.946   7.038 -0.9634 -1.5287 -1.5165
   77SLPC   H3S 6975   5.562   6.048   6.916 -1.3483  1.3905  0.6001
   77SLPC   C24 6976   5.688   5.977   7.080  0.6993  0.0333 -0.4279
   77SLPC   H4R 6977   5.776   6.007   7.019  0.9928  1.7696  0.7647
   77SLPC   H4S 6978   5.711   5.884   7.136 -0.8552  0.2718  0.6703
   77SLPC   C25 6979   5.673   6.081   7.193  0.0056 -0.1247  0.2925
   77SLPC   H5R 6980   5.652   6.182   7.152  2.5666 -0.0138 -0.9545
   77SLPC   H5S 6981   5.768   6.081   7.252  0.9989  0.3226 -1.2512
   77SLPC   C26 6982   5.563   6.048   7.302  0.1526  0.4785  0.4774
   77SLPC   H6R 6983   5.597   5.952   7.347 -1.5541 -0.9651 -1.1590
   77SLPC   H6S 6984   5.467   6.023   7.252  0.8652 -3.7800  0.8238
   77SLPC   C27 6985   5.544   6.145   7.411  0.5350 -0.3841 -0.5865
   77SLPC   H7R 6986   5.487   6.233   7.372 -1.0580 -0.6506  0.9827
   77SLPC   H7S 6987   5.643   6.168   7.456 -0.7515  2.0336  1.2589
   77SLPC   C28 6988   5.445   6.094   7.516  0.3975  0.1047  0.2211
   77SLPC   H8R 6989   5.487   6.000   7.558  1.0061 -0.6345 -1.9007
   77SLPC   H8S 6990   5.353   6.075   7.456  1.2201 -0.8515 -0.7959
   77SLPC   C29 6991   5.416   6.192   7.625 -0.2182  0.6162  0.0387
   77SLPC   H9R 6992   5.318   6.242   7.614 -0.6668  0.0564  1.2899
   77SLPC  C210 6993   5.493   6.216   7.733  0.2704 -0.3200 -0.1698
   77SLPC  H10R 6994   5.463   6.298   7.800  1.5751  0.1477 -0.1335
   77SLPC  C211 6995   5.623   6.140   7.759 -1.1426  0.1393  0.2693
   77SLPC  H11R 6996   5.713   6.205   7.770 -0.9566 -0.2912  1.4407
   77SLPC  H11S 6997   5.660   6.079   7.674  2.0314  0.1518  1.4934
   77SLPC  C212 6998   5.604   6.048   7.872  0.1961  0.6125 -1.0132
   77SLPC  H12R 6999   5.506   5.999   7.872  2.3819 -4.3960  0.3307
   77SLPC  C213 7000   5.683   6.016   7.977  0.2316  0.6254  0.1556
   77SLPC  H13R 7001   5.641   5.939   8.042 -1.5900  1.2666 -0.2192
   77SLPC  C214 7002   5.823   6.050   8.011  0.0271  0.1993 -0.0592
   77SLPC  H14R 7003   5.871   6.127   7.947 -1.1472  0.7631 -0.2952
   77SLPC  H14S 7004   5.892   5.964   8.005  0.3428  0.5700 -2.7938
   77SLPC  C215 7005   5.837   6.092   8.160 -0.5267  0.4060  0.0360
   77SLPC  H15R 7006   5.774   6.182   8.178 -0.4199  0.4598  0.1431
   77SLPC  H15S 7007   5.945   6.109   8.179 -0.6367  0.7262  0.3760
   77SLPC  C216 7008   5.795   5.998   8.267  0.5297  0.1153  0.0644
   77SLPC  H16R 7009   5.841   5.897   8.267 -0.6638 -0.4682  1.4182
   77SLPC  H16S 7010   5.685   5.983   8.265  0.5026  0.0674  1.1255
   77SLPC  C217 7011   5.821   6.050   8.412  1.4266 -0.0443  0.5270
   77SLPC  H17R 7012   5.751   6.000   8.482 -1.4281 -0.6932 -2.5538
   77SLPC  H17S 7013   5.791   6.157   8.415 -0.1476 -0.4740  0.9327
   77SLPC  C218 7014   5.971   6.039   8.467  0.4756  0.1223 -0.2902
   77SLPC  H18R 7015   6.013   5.936   8.471 -0.9057 -0.4640 -0.2265
   77SLPC  H18S 7016   5.972   6.074   8.572  0.7166 -1.4736  0.2678
   77SLPC  H18T 7017   6.042   6.102   8.409 -0.1054  3.8692  2.6970
   77SLPC   C33 7018   5.041   5.244   6.980  0.1279 -1.0281  0.0960
   77SLPC   H3X 7019   4.998   5.190   6.893 -1.2270 -0.2527  0.2645
   77SLPC   H3Y 7020   4.980   5.336   6.971 -3.7595 -3.5982 -3.8761
   77SLPC   C34 7021   4.993   5.180   7.106  0.8893 -0.0857 -0.1465
   77SLPC   H4X 7022   4.999   5.069   7.099  1.3083 -0.0095 -1.2535
   77SLPC   H4Y 7023   4.886   5.210   7.109  0.5489 -1.3061  1.6186
   77SLPC   C35 7024   5.048   5.230   7.243  0.1337 -0.3504  0.3510
   77SLPC   H5X 7025   5.044   5.341   7.243  0.0881 -0.3528  0.9027
   77SLPC   H5Y 7026   5.155   5.203   7.259  0.5580  0.9859 -0.0754
   77SLPC   C36 7027   4.956   5.171   7.353 -0.0033  0.4571 -0.4461
   77SLPC   H6X 7028   4.996   5.078   7.398 -2.8819 -0.7087 -0.0723
   77SLPC   H6Y 7029   4.864   5.137   7.301 -0.5071 -2.3262  2.0029
   77SLPC   C37 7030   4.918   5.275   7.471 -0.6270 -0.3190  0.6827
   77SLPC   H7X 7031   4.865   5.370   7.451 -1.1676 -0.6953  0.3264
   77SLPC   H7Y 7032   5.020   5.315   7.492 -0.6926  2.8791 -3.7175
   77SLPC   C38 7033   4.869   5.210   7.598 -0.1364  0.1523 -0.2285
   77SLPC   H8X 7034   4.945   5.135   7.629 -0.4505  0.1050  0.4493
   77SLPC   H8Y 7035   4.771   5.160   7.584  1.1343 -2.2092 -1.3664
   77SLPC   C39 7036   4.863   5.313   7.711 -0.2557 -0.0287 -1.4236
   77SLPC   H9X 7037   4.963   5.353   7.738  0.4879 -2.4225 -0.2977
   77SLPC   H9Y 7038   4.831   5.259   7.803 -0.1834  0.4035 -1.1447
   77SLPC  C310 7039   4.761   5.428   7.685  0.3625 -0.3368  0.4630
   77SLPC  H10X 7040   4.665   5.382   7.653  1.4549 -0.0005 -4.0340
   77SLPC  H10Y 7041   4.810   5.499   7.615  1.3182 -2.6105 -1.2900
   77SLPC  C311 7042   4.720   5.505   7.817  0.2773 -0.6074  0.5873
   77SLPC  H11X 7043   4.751   5.612   7.807 -2.3562  0.0702 -1.1873
   77SLPC  H11Y 7044   4.767   5.457   7.906  0.6304  0.7232  1.1565
   77SLPC  C312 7045   4.573   5.521   7.848 -0.1922  0.1174 -0.2284
   77SLPC  H12X 7046   4.531   5.419   7.836 -0.4705  0.2691 -0.5652
   77SLPC  H12Y 7047   4.531   5.582   7.766 -0.9761 -0.4400 -0.2556
   77SLPC  C313 7048   4.545   5.575   7.986 -1.2858 -0.3501  0.2486
   77SLPC  H13X 7049   4.614   5.656   8.020  0.4914 -1.8192  0.2919
   77SLPC  H13Y 7050   4.538   5.495   8.062  0.5709  1.0876  2.0780
   77SLPC  C314 7051   4.406   5.639   7.975 -0.0619  0.0260  0.2609
   77SLPC  H14X 7052   4.331   5.570   7.929  1.7724 -2.4961  0.8530
   77SLPC  H14Y 7053   4.432   5.719   7.903 -1.2892 -1.3907 -1.8741
   77SLPC  C315 7054   4.340   5.704   8.101 -0.1060  0.4197 -0.1685
   77SLPC  H15X 7055   4.264   5.772   8.057 -1.5517 -1.8791 -1.4150
   77SLPC  H15Y 7056   4.412   5.764   8.161 -0.5681  1.5613 -0.7260
   77SLPC  C316 7057   4.273   5.608   8.196 -0.4280  0.2953 -0.0939
   77SLPC  H16X 7058   4.354   5.541   8.232 -1.5539  0.0683  2.2001
   77SLPC  H16Y 7059   4.196   5.543   8.148  2.2476 -2.1380 -1.3993
   77SLPC  C317 7060   4.209   5.674   8.315  0.1322 -0.6502 -0.9019
   77SLPC  H17X 7061   4.138   5.751   8.275 -0.4737 -1.4060 -1.3123
   77SLPC  H17Y 7062   4.285   5.721   8.381 -0.3252 -1.3679  0.1646
   77SLPC  C318 7063   4.124   5.586   8.401  0.3231 -0.3301  0.5113
   77SLPC  H18X 7064   4.189   5.503   8.435  0.1041  0.7104  3.9435
   77SLPC  H18Y 7065   4.034   5.547   8.350  1.9987 -1.5858 -1.6707
   77SLPC  H18Z 7066   4.097   5.648   8.489  1.6785  1.9730 -0.5996
   78SLPC     N 7067   0.135   4.790   6.065 -0.8539 -0.3274  0.1677
   78SLPC   C13 7068   0.000   4.831   6.004 -0.4234 -0.2070  0.3760
   78SLPC  H13A 7069  -0.023   4.933   6.031 -0.7850 -0.0262 -0.5858
   78SLPC  H13B 7070   0.016   4.813   5.898 -0.5741 -1.2889  0.5278
   78SLPC  H13C 7071  -0.084   4.767   6.023 -0.6577 -0.1731 -0.4896
   78SLPC   C14 7072   0.244   4.865   6.000 -0.6715  0.2003 -0.0592
   78SLPC  H14A 7073   0.223   4.971   5.995 -2.1387 -0.0485  0.2114
   78SLPC  H14B 7074   0.331   4.869   6.064  0.6814  0.2627 -1.8145
   78SLPC  H14C 7075   0.282   4.825   5.908 -0.7016 -1.8597  0.7682
   78SLPC   C15 7076   0.144   4.647   6.034  0.2861  0.2639 -0.2140
   78SLPC  H15A 7077   0.158   4.624   5.929  2.6628 -3.3488  0.6823
   78SLPC  H15B 7078   0.233   4.609   6.083 -0.4225 -1.8698 -0.4815
   78SLPC  H15C 7079   0.060   4.590   6.071 -1.0864  2.5934  0.4088
   78SLPC   C12 7080   0.122   4.810   6.217 -1.0351  0.6189 -0.1958
   78SLPC  H12A 7081   0.035   4.761   6.257 -0.9157  1.4023  1.0707
   78SLPC  H12B 7082   0.105   4.915   6.235  1.3152  0.8245  1.1833
   78SLPC   C11 7083   0.255   4.763   6.296  0.5031  0.5068  0.3538
   78SLPC  H11A 7084   0.264   4.652   6.295  2.5355  0.6358 -0.4669
   78SLPC  H11B 7085   0.232   4.797   6.399  1.5895 -0.7355  1.0458
   78SLPC     P 7086   0.513   4.803   6.278  0.1172  0.2242 -0.0016
   78SLPC   O13 7087   0.557   4.736   6.157  0.2201  0.1347  0.0435
   78SLPC   O14 7088   0.581   4.925   6.322  0.3055 -0.3202  0.3422
   78SLPC   O12 7089   0.367   4.834   6.241  0.4943 -0.2289 -0.2968
   78SLPC   O11 7090   0.499   4.699   6.399 -0.2096 -0.0214 -0.3586
   78SLPC    C1 7091   0.609   4.623   6.449 -0.5120 -0.5182  0.1052
   78SLPC    HA 7092   0.592   4.519   6.417 -2.0127 -0.7834  1.6121
   78SLPC    HB 7093   0.708   4.651   6.405  0.5332 -1.9398  1.4296
   78SLPC    C2 7094   0.614   4.627   6.603  0.6630  0.7062 -0.5744
   78SLPC    HS 7095   0.719   4.603   6.630 -0.4190 -0.5481  3.2057
   78SLPC   O21 7096   0.530   4.528   6.658  0.8094 -0.9740  0.2017
   78SLPC   C21 7097   0.560   4.407   6.637  0.2057 -0.0089 -0.1420
   78SLPC   O22 7098   0.668   4.363   6.596  0.9859  0.2007 -0.0987
   78SLPC   C22 7099   0.445   4.315   6.680 -0.3697 -0.3566 -0.5347
   78SLPC   H2R 7100   0.354   4.378   6.689  0.4299  0.6559  1.1599
   78SLPC   H2S 7101   0.426   4.233   6.608 -3.0627 -1.2808  1.0655
   78SLPC    C3 7102   0.575   4.760   6.658 -0.0499 -1.0246 -0.1246
   78SLPC    HX 7103   0.468   4.769   6.631 -0.2988 -4.1973 -0.5052
   78SLPC    HY 7104   0.633   4.844   6.614 -0.1965 -1.9004 -2.0737
   78SLPC   O31 7105   0.563   4.771   6.802 -0.1044 -0.0030 -0.4978
   78SLPC   C31 7106   0.662   4.744   6.879 -0.4308  0.6997  0.1141
   78SLPC   O32 7107   0.779   4.724   6.839  0.7371 -0.7897 -0.6578
   78SLPC   C32 7108   0.613   4.738   7.024  0.2240 -0.4738 -0.3725
   78SLPC   H2X 7109   0.507   4.702   7.021 -0.2131  0.6445  0.6643
   78SLPC   H2Y 7110   0.619   4.844   7.058  1.2870  0.5870 -3.5763
   78SLPC   C23 7111   0.472   4.249   6.819 -0.5784 -0.2487  0.1993
   78SLPC   H3R 7112   0.568   4.197   6.801 -0.1313  0.0492  1.6091
   78SLPC   H3S 7113   0.391   4.176   6.840 -1.2502  0.6061  0.6648
   78SLPC   C24 7114   0.485   4.345   6.930 -0.2416  0.4665 -1.3880
   78SLPC   H4R 7115   0.414   4.430   6.933 -1.6833 -0.7200  0.2300
   78SLPC   H4S 7116   0.580   4.403   6.928 -0.7974  1.7765  2.4382
   78SLPC   C25 7117   0.473   4.280   7.066 -0.0375 -0.1753  0.3300
   78SLPC   H5R 7118   0.545   4.196   7.064  0.4676  0.2391 -2.1113
   78SLPC   H5S 7119   0.367   4.251   7.080 -0.9648  3.1882  1.1855
   78SLPC   C26 7120   0.501   4.393   7.173 -0.3455 -0.0281  0.6490
   78SLPC   H6R 7121   0.469   4.491   7.131 -4.4496 -2.0029 -1.4527
   78SLPC   H6S 7122   0.612   4.392   7.180 -0.2654  1.6030 -0.0647
   78SLPC   C27 7123   0.430   4.357   7.310  0.4691  0.0645 -0.1885
   78SLPC   H7R 7124   0.452   4.248   7.317 -1.3565 -0.2284  1.9027
   78SLPC   H7S 7125   0.320   4.370   7.300  0.5472  0.7643 -0.1866
   78SLPC   C28 7126   0.490   4.437   7.428 -0.2892  0.0469 -0.6918
   78SLPC   H8R 7127   0.500   4.538   7.382  2.9095 -0.2994 -0.9734
   78SLPC   H8S 7128   0.595   4.406   7.441 -0.9020 -1.5152  0.9225
   78SLPC   C29 7129   0.415   4.446   7.560 -0.3651  0.2513  0.1269
   78SLPC   H9R 7130   0.315   4.487   7.542 -0.7673 -0.7243  0.0918
   78SLPC  C210 7131   0.455   4.404   7.680  0.1076 -0.2493 -0.3731
   78SLPC  H10R 7132   0.384   4.422   7.762 -1.4346 -0.8288 -1.5458
   78SLPC  C211 7133   0.591   4.357   7.716 -0.4814 -0.0897 -0.1829
   78SLPC  H11R 7134   0.650   4.437   7.765 -0.1448 -0.1042 -0.5530
   78SLPC  H11S 7135   0.648   4.332   7.624 -2.0385 -0.5785 -1.0351
   78SLPC  C212 7136   0.576   4.239   7.807 -0.3017  0.1508 -0.1354
   78SLPC  H12R 7137   0.543   4.152   7.749 -0.6161  1.3003 -1.7439
   78SLPC  C213 7138   0.598   4.225   7.939  0.2862  0.5105 -0.0016
   78SLPC  H13R 7139   0.593   4.119   7.969 -0.1521 -0.0663 -1.9706
   78SLPC  C214 7140   0.641   4.323   8.042  0.0277  0.6672  0.1069
   78SLPC  H14R 7141   0.633   4.423   7.995 -1.6072  0.3030 -0.4394
   78SLPC  H14S 7142   0.746   4.303   8.074 -0.4989 -0.0391  1.4718
   78SLPC  C215 7143   0.549   4.311   8.161 -0.4597 -0.1301 -0.4512
   78SLPC  H15R 7144   0.598   4.373   8.239 -1.0678 -0.9373  0.6023
   78SLPC  H15S 7145   0.544   4.207   8.198  1.9466 -0.6795 -1.4794
   78SLPC  C216 7146   0.407   4.365   8.146 -0.1065 -0.3690 -0.1681
   78SLPC  H16R 7147   0.339   4.306   8.212 -1.0589  0.8677 -0.0094
   78SLPC  H16S 7148   0.367   4.336   8.046 -0.1449 -0.6509 -0.0728
   78SLPC  C217 7149   0.395   4.520   8.156 -0.3896 -0.0858  0.7104
   78SLPC  H17R 7150   0.447   4.573   8.074 -0.8338  1.6629  1.5027
   78SLPC  H17S 7151   0.442   4.558   8.249  1.0675  2.5909 -1.0011
   78SLPC  C218 7152   0.247   4.559   8.151 -0.4371 -0.5478 -0.3096
   78SLPC  H18R 7153   0.202   4.496   8.231 -0.3618 -0.4749 -0.2094
   78SLPC  H18S 7154   0.200   4.532   8.054 -1.8139  1.4027 -0.2550
   78SLPC  H18T 7155   0.227   4.666   8.175  1.1447 -0.3086  0.0537
   78SLPC   C33 7156   0.711   4.662   7.113 -0.2822  0.3874  0.2607
   78SLPC   H3X 7157   0.754   4.577   7.056  1.3363  1.7409 -0.5949
   78SLPC   H3Y 7158   0.655   4.622   7.200  0.3718 -0.8353  0.1381
   78SLPC   C34 7159   0.826   4.753   7.153 -0.1253  0.0532 -0.0408
   78SLPC   H4X 7160   0.852   4.834   7.081 -2.1215 -0.8642 -1.8808
   78SLPC   H4Y 7161   0.920   4.695   7.166 -0.0931 -0.2777 -1.6605
   78SLPC   C35 7162   0.809   4.830   7.286  0.8552  0.3483  0.0192
   78SLPC   H5X 7163   0.723   4.896   7.263  0.3620  0.1423  1.1529
   78SLPC   H5Y 7164   0.893   4.897   7.316  0.2368  0.3064  2.0013
   78SLPC   C36 7165   0.775   4.748   7.406  0.1220 -0.7398  0.4708
   78SLPC   H6X 7166   0.837   4.658   7.428  0.9096 -0.7231 -1.4247
   78SLPC   H6Y 7167   0.670   4.713   7.411 -0.8967  1.8310 -1.0535
   78SLPC   C37 7168   0.787   4.845   7.538 -0.1060  0.2342  1.2751
   78SLPC   H7X 7169   0.723   4.932   7.517  1.5001  0.9474 -1.1748
   78SLPC   H7Y 7170   0.891   4.883   7.547 -0.4115  1.8611 -1.2159
   78SLPC   C38 7171   0.739   4.782   7.662 -0.0438 -0.3292  0.5640
   78SLPC   H8X 7172   0.651   4.715   7.652 -0.7187  0.4353  1.2079
   78SLPC   H8Y 7173   0.714   4.860   7.737  3.2665  1.3415  0.1093
   78SLPC   C39 7174   0.851   4.707   7.738  0.0269 -0.0152  0.4632
   78SLPC   H9X 7175   0.939   4.774   7.727  1.2989 -1.6049  0.6281
   78SLPC   H9Y 7176   0.877   4.610   7.689  0.5788  0.3531  0.0118
   78SLPC  C310 7177   0.818   4.694   7.887  0.1291  0.2777  0.5884
   78SLPC  H10X 7178   0.713   4.659   7.902  0.2695 -0.0657  0.7866
   78SLPC  H10Y 7179   0.823   4.794   7.935  0.0674  0.2044  0.7492
   78SLPC  C311 7180   0.914   4.592   7.941 -0.1294  0.4378 -0.8585
   78SLPC  H11X 7181   1.013   4.633   7.910 -0.6478  1.0616 -1.7410
   78SLPC  H11Y 7182   0.899   4.488   7.905  0.7125 -0.5146  1.3918
   78SLPC  C312 7183   0.916   4.568   8.092 -0.3157 -0.2711 -0.4707
   78SLPC  H12X 7184   1.022   4.551   8.122 -1.0218 -1.0293  1.8397
   78SLPC  H12Y 7185   0.845   4.484   8.109 -1.6840  0.8467 -0.4381
   78SLPC  C313 7186   0.866   4.678   8.184  0.7818 -0.1206 -0.2539
   78SLPC  H13X 7187   0.772   4.728   8.151 -0.0949 -1.2516  0.4740
   78SLPC  H13Y 7188   0.941   4.760   8.178  0.0126  0.7603  1.6414
   78SLPC  C314 7189   0.875   4.636   8.328 -0.0340  0.4875 -0.2005
   78SLPC  H14X 7190   0.959   4.565   8.345 -1.6053 -1.7287 -1.1836
   78SLPC  H14Y 7191   0.789   4.576   8.361 -0.6731  0.9788 -0.9256
   78SLPC  C315 7192   0.900   4.767   8.411  0.4584  0.1768 -0.3488
   78SLPC  H15X 7193   0.824   4.839   8.375  0.6761  2.2321  2.9292
   78SLPC  H15Y 7194   0.999   4.808   8.381 -0.1999  0.4109 -2.2938
   78SLPC  C316 7195   0.893   4.745   8.564  0.1122 -0.2015  0.4996
   78SLPC  H16X 7196   0.960   4.659   8.583 -2.5860 -2.5211  0.2178
   78SLPC  H16Y 7197   0.795   4.695   8.576 -0.5227  0.3951 -1.7017
   78SLPC  C317 7198   0.909   4.871   8.650 -0.3660 -0.6370 -0.3028
   78SLPC  H17X 7199   0.999   4.932   8.627 -0.4353 -0.4798 -0.1626
   78SLPC  H17Y 7200   0.928   4.844   8.756  0.8574  2.9704  0.5492
   78SLPC  C318 7201   0.779   4.966   8.650 -0.4283 -0.4954  0.1282
   78SLPC  H18X 7202   0.800   5.066   8.694  2.6201 -0.9131 -0.2277
   78SLPC  H18Y 7203   0.686   4.925   8.696 -5.6676  2.2148 -6.3552
   78SLPC  H18Z 7204   0.742   4.991   8.548  0.3863 -0.0256 -0.0578
   79SLPC     N 7205   6.618   1.089   6.019  0.2918  1.0259 -0.4524
   79SLPC   C13 7206   6.721   1.195   5.992  0.3179 -0.0635 -0.0206
   79SLPC  H13A 7207   6.792   1.189   6.073  0.5971 -3.0139 -0.3648
   79SLPC  H13B 7208   6.765   1.195   5.893  0.9289  0.2830  0.2451
   79SLPC  H13C 7209   6.670   1.290   5.995  0.0033 -0.1034 -2.3450
   79SLPC   C14 7210   6.667   0.954   5.974  0.3215  0.4299 -0.2950
   79SLPC  H14A 7211   6.747   0.908   6.031  0.8277  0.0803 -1.2630
   79SLPC  H14B 7212   6.594   0.875   5.987  0.6097  0.2498  0.2898
   79SLPC  H14C 7213   6.693   0.961   5.870  0.2135  0.2848 -0.3318
   79SLPC   C15 7214   6.491   1.108   5.943  0.7594  0.0074  0.5016
   79SLPC  H15A 7215   6.460   1.211   5.953  0.3176  0.2008 -2.2306
   79SLPC  H15B 7216   6.498   1.092   5.837 -1.1391 -4.2694  0.8053
   79SLPC  H15C 7217   6.406   1.043   5.962  0.4917  0.3417  0.4665
   79SLPC   C12 7218   6.578   1.101   6.170 -0.4418  1.0550  0.5356
   79SLPC  H12A 7219   6.501   1.028   6.190  0.1021  0.6187  1.1044
   79SLPC  H12B 7220   6.520   1.191   6.187 -1.1103  1.0708 -1.5310
   79SLPC   C11 7221   6.687   1.077   6.272 -0.5934  0.0658  0.8522
   79SLPC  H11A 7222   6.658   1.089   6.378 -1.2860 -0.2002  0.6949
   79SLPC  H11B 7223   6.768   1.154   6.265 -0.5426 -0.1117 -1.3865
   79SLPC     P 7224   6.703   0.819   6.321 -0.0100  0.3593  0.3424
   79SLPC   O13 7225   6.567   0.786   6.278  0.0264  0.4156 -0.2430
   79SLPC   O14 7226   6.805   0.717   6.313 -0.2339 -0.1124 -0.1850
   79SLPC   O12 7227   6.757   0.952   6.241  0.2684  0.6407 -0.5965
   79SLPC   O11 7228   6.688   0.866   6.468  0.7102 -0.2052 -0.0364
   79SLPC    C1 7229   6.799   0.915   6.547  0.6767 -0.2717  0.6683
   79SLPC    HA 7230   6.865   0.831   6.577  0.3140 -0.3527  1.2548
   79SLPC    HB 7231   6.848   0.988   6.478 -1.4982 -0.7415 -1.5103
   79SLPC    C2 7232   6.754   0.996   6.667  0.0932  0.6804  0.7122
   79SLPC    HS 7233   6.671   1.063   6.637 -1.2115  0.1019  2.8607
   79SLPC   O21 7234   6.863   1.071   6.712  0.0328  0.7206 -0.3415
   79SLPC   C21 7235   6.856   1.202   6.691 -0.1539  0.7158 -0.2556
   79SLPC   O22 7236   6.786   1.256   6.613  0.2469 -0.3169  0.2725
   79SLPC   C22 7237   6.959   1.274   6.778 -0.1287  0.0969  1.0315
   79SLPC   H2R 7238   7.033   1.202   6.820  1.3727  0.0226 -1.5068
   79SLPC   H2S 7239   7.022   1.336   6.711 -2.2995  2.4191  1.0014
   79SLPC    C3 7240   6.693   0.903   6.769  0.4177 -0.1490 -0.1431
   79SLPC    HX 7241   6.762   0.819   6.792 -0.1642 -1.3346 -2.3993
   79SLPC    HY 7242   6.607   0.855   6.717 -0.0201  1.6405 -1.1579
   79SLPC   O31 7243   6.660   0.976   6.883 -0.0887  0.3952 -0.5864
   79SLPC   C31 7244   6.564   0.926   6.959 -0.1410  0.3348  0.0046
   79SLPC   O32 7245   6.503   0.820   6.928 -0.2862  0.6716 -0.5095
   79SLPC   C32 7246   6.542   1.014   7.085 -0.2492 -0.5398  0.6221
   79SLPC   H2X 7247   6.455   1.082   7.072  1.0345  1.2107  0.6880
   79SLPC   H2Y 7248   6.627   1.087   7.086  0.1597 -0.9554 -0.6727
   79SLPC   C23 7249   6.904   1.364   6.888  0.4237  0.2250  0.1330
   79SLPC   H3R 7250   6.805   1.410   6.868  0.7783  1.5218  1.2312
   79SLPC   H3S 7251   6.976   1.448   6.890  0.2598  0.3427  1.4218
   79SLPC   C24 7252   6.894   1.285   7.025 -0.2582 -0.0149 -0.4258
   79SLPC   H4R 7253   6.994   1.244   7.052  0.1981  0.0658 -1.9317
   79SLPC   H4S 7254   6.817   1.205   7.021  1.4450 -1.7517 -0.1572
   79SLPC   C25 7255   6.856   1.377   7.144  0.4087  0.4325  0.0044
   79SLPC   H5R 7256   6.756   1.416   7.119  0.2481 -0.1541 -0.2925
   79SLPC   H5S 7257   6.927   1.462   7.152 -0.6079  1.3483 -0.5897
   79SLPC   C26 7258   6.846   1.313   7.283 -0.0888 -0.3369  0.3522
   79SLPC   H6R 7259   6.951   1.313   7.320  0.1771  0.0682 -0.3833
   79SLPC   H6S 7260   6.816   1.206   7.277 -1.3118  0.0798 -3.4189
   79SLPC   C27 7261   6.752   1.382   7.383 -0.2024 -0.1951 -0.2307
   79SLPC   H7R 7262   6.652   1.383   7.334  1.1300  2.5031 -3.2195
   79SLPC   H7S 7263   6.793   1.485   7.387 -2.6970  0.9024 -0.7266
   79SLPC   C28 7264   6.754   1.319   7.521  0.0483 -0.1160  0.1864
   79SLPC   H8R 7265   6.768   1.209   7.512  0.3383  0.0751 -3.1981
   79SLPC   H8S 7266   6.658   1.356   7.564  0.0155  1.4265 -1.1330
   79SLPC   C29 7267   6.871   1.366   7.594 -0.5626  0.5210  0.4702
   79SLPC   H9R 7268   6.953   1.393   7.526 -0.0737 -0.8843  0.4686
   79SLPC  C210 7269   6.892   1.379   7.722  0.3137  0.1738  0.5957
   79SLPC  H10R 7270   6.991   1.395   7.767  0.2398 -4.6587  3.0684
   79SLPC  C211 7271   6.787   1.355   7.828  1.0926 -0.0064 -0.1440
   79SLPC  H11R 7272   6.695   1.317   7.778  1.0146 -1.1435  0.8341
   79SLPC  H11S 7273   6.759   1.451   7.875 -1.5206 -0.8193  0.1310
   79SLPC  C212 7274   6.830   1.260   7.931 -0.5056  0.1173 -0.8069
   79SLPC  H12R 7275   6.850   1.159   7.893 -0.4317 -0.0692 -0.2763
   79SLPC  C213 7276   6.848   1.281   8.063  0.1801 -0.0462  0.4011
   79SLPC  H13R 7277   6.888   1.197   8.122 -1.3646 -0.9108  0.2645
   79SLPC  C214 7278   6.839   1.408   8.141  0.1212 -0.2606  0.5463
   79SLPC  H14R 7279   6.877   1.492   8.079  0.6475 -0.9900 -0.1482
   79SLPC  H14S 7280   6.909   1.405   8.228  0.1799 -0.9483  0.4803
   79SLPC  C215 7281   6.702   1.441   8.203  0.4660 -0.1386  0.5998
   79SLPC  H15R 7282   6.625   1.462   8.125 -1.2106  0.6126  2.3606
   79SLPC  H15S 7283   6.709   1.540   8.252 -0.1439 -0.4130  1.2657
   79SLPC  C216 7284   6.647   1.336   8.305 -0.2786 -0.6080 -0.3646
   79SLPC  H16R 7285   6.736   1.320   8.370 -0.6380 -2.0463 -0.1976
   79SLPC  H16S 7286   6.620   1.246   8.246 -0.7882  0.5942 -2.0602
   79SLPC  C217 7287   6.533   1.387   8.395 -0.2559  0.7470 -0.3649
   79SLPC  H17R 7288   6.441   1.393   8.333 -1.2377  1.9315  1.1601
   79SLPC  H17S 7289   6.560   1.485   8.439 -1.7064  0.5354  1.0941
   79SLPC  C218 7290   6.499   1.296   8.521 -0.5738 -0.1182  0.2872
   79SLPC  H18R 7291   6.482   1.189   8.496  0.8266 -0.8386  2.2147
   79SLPC  H18S 7292   6.419   1.344   8.582  0.4954 -0.3361  1.9273
   79SLPC  H18T 7293   6.594   1.278   8.575 -0.2126  0.9461  0.0262
   79SLPC   C33 7294   6.541   0.933   7.214  0.2247  0.7048  0.1026
   79SLPC   H3X 7295   6.642   0.892   7.234 -0.5522 -1.5001 -0.2317
   79SLPC   H3Y 7296   6.461   0.859   7.196  1.6781 -1.3971  1.7833
   79SLPC   C34 7297   6.509   1.015   7.337 -0.1766 -0.0321 -0.0167
   79SLPC   H4X 7298   6.408   1.056   7.315  0.5706  2.8873  1.4006
   79SLPC   H4Y 7299   6.570   1.106   7.359  2.1958 -1.3494 -0.8264
   79SLPC   C35 7300   6.496   0.937   7.474 -0.4352 -0.2891 -0.0313
   79SLPC   H5X 7301   6.586   0.873   7.485  0.5313  0.9416 -0.4916
   79SLPC   H5Y 7302   6.406   0.874   7.461  0.2056 -1.0937 -0.6767
   79SLPC   C36 7303   6.484   1.032   7.590 -0.2119 -0.1083  0.2225
   79SLPC   H6X 7304   6.382   1.075   7.580 -0.7330 -0.8702  1.8063
   79SLPC   H6Y 7305   6.556   1.117   7.588  0.6482 -0.8089 -2.2499
   79SLPC   C37 7306   6.513   0.956   7.722  0.9568 -0.1694  0.8854
   79SLPC   H7X 7307   6.620   0.925   7.721  0.5223 -1.7686 -0.2954
   79SLPC   H7Y 7308   6.449   0.866   7.718  2.1459 -1.0271 -3.0038
   79SLPC   C38 7309   6.480   1.027   7.854 -0.5106 -0.0138  0.0965
   79SLPC   H8X 7310   6.379   1.074   7.858  0.3587  1.9390  0.6986
   79SLPC   H8Y 7311   6.555   1.109   7.861  0.3455 -0.8212  0.5566
   79SLPC   C39 7312   6.512   0.926   7.962 -0.0293 -0.3443  0.5337
   79SLPC   H9X 7313   6.610   0.877   7.946 -0.3419 -1.2097  1.2014
   79SLPC   H9Y 7314   6.444   0.838   7.954  0.2563 -0.6745  1.5748
   79SLPC  C310 7315   6.511   0.987   8.102  0.6738 -0.4419  0.3649
   79SLPC  H10X 7316   6.419   1.046   8.120  0.3407 -0.6160 -0.6883
   79SLPC  H10Y 7317   6.585   1.070   8.114  2.8936 -2.3886  0.8654
   79SLPC  C311 7318   6.536   0.877   8.209  0.1031 -0.8075 -0.0204
   79SLPC  H11X 7319   6.644   0.854   8.212  0.3462  0.2345  2.6140
   79SLPC  H11Y 7320   6.468   0.792   8.188  1.1550 -1.4659 -0.8261
   79SLPC  C312 7321   6.497   0.931   8.348  0.0709 -0.6672 -0.2103
   79SLPC  H12X 7322   6.387   0.950   8.348  0.3288  1.0457 -1.2638
   79SLPC  H12Y 7323   6.547   1.028   8.365  0.4136 -0.7918 -0.4911
   79SLPC  C313 7324   6.514   0.825   8.456 -0.7171 -0.2733 -1.0964
   79SLPC  H13X 7325   6.518   0.870   8.557  1.1726  0.9456 -1.6638
   79SLPC  H13Y 7326   6.606   0.767   8.435 -1.0632 -0.2814 -2.8044
   79SLPC  C314 7327   6.408   0.716   8.459 -0.2914  0.1343 -0.4269
   79SLPC  H14X 7328   6.400   0.659   8.364 -0.7633  0.4845 -0.5967
   79SLPC  H14Y 7329   6.308   0.761   8.478 -1.4312 -1.1989 -2.8524
   79SLPC  C315 7330   6.439   0.621   8.579  0.3304 -0.2341  0.9102
   79SLPC  H15X 7331   6.421   0.677   8.672 -0.9230  0.1814  0.4309
   79SLPC  H15Y 7332   6.550   0.611   8.570  0.2235 -0.6111 -0.1883
   79SLPC  C316 7333   6.365   0.478   8.580  0.4850 -0.8345  0.7500
   79SLPC  H16X 7334   6.376   0.422   8.484 -0.2351  2.4560 -1.4325
   79SLPC  H16Y 7335   6.257   0.502   8.596  0.1744 -0.6996 -1.2723
   79SLPC  C317 7336   6.404   0.386   8.695 -0.3671  0.0320  0.1011
   79SLPC  H17X 7337   6.376   0.432   8.792  1.0198 -2.8415  2.0266
   79SLPC  H17Y 7338   6.515   0.382   8.705 -0.2579  2.2044  0.1741
   79SLPC  C318 7339   6.349   0.248   8.678  0.5214 -0.0811  0.1332
   79SLPC  H18X 7340   6.377   0.169   8.751  1.6172  0.3809  0.2190
   79SLPC  H18Y 7341   6.394   0.197   8.590 -1.9154 -1.4128 -0.4499
   79SLPC  H18Z 7342   6.239   0.260   8.665  0.2473 -0.2577  2.0946
   80SLPC     N 7343   6.323   5.488   6.356 -0.2980 -0.4823 -0.9083
   80SLPC   C13 7344   6.192   5.466   6.419  0.3726  0.1923 -0.0470
   80SLPC  H13A 7345   6.201   5.403   6.506 -1.0961 -0.6381 -0.4747
   80SLPC  H13B 7346   6.147   5.552   6.465  1.8900  1.3150 -0.5493
   80SLPC  H13C 7347   6.123   5.412   6.356  1.0106 -1.1775  0.3996
   80SLPC   C14 7348   6.400   5.580   6.445 -0.7102  0.1358  0.4316
   80SLPC  H14A 7349   6.423   5.537   6.542  1.3175  0.3110  0.0796
   80SLPC  H14B 7350   6.490   5.617   6.397 -0.0136 -0.2504  1.3945
   80SLPC  H14C 7351   6.341   5.668   6.466 -0.2261  0.2734  1.2730
   80SLPC   C15 7352   6.297   5.555   6.224 -0.9214  0.3200  0.0729
   80SLPC  H15A 7353   6.234   5.496   6.160 -1.4488  0.4169  0.4977
   80SLPC  H15B 7354   6.246   5.648   6.242  1.0739  1.3054  1.0494
   80SLPC  H15C 7355   6.388   5.592   6.178 -0.9652 -0.7671 -0.9105
   80SLPC   C12 7356   6.392   5.356   6.328 -0.0078  0.1137 -0.5846
   80SLPC  H12A 7357   6.381   5.293   6.415  1.1753 -0.1310 -0.5877
   80SLPC  H12B 7358   6.500   5.367   6.319 -0.0614 -0.3220 -1.9670
   80SLPC   C11 7359   6.335   5.260   6.219  0.0168 -0.1674 -0.7784
   80SLPC  H11A 7360   6.393   5.166   6.223 -0.3071 -0.3903 -1.2301
   80SLPC  H11B 7361   6.356   5.314   6.124  0.2517  0.8676 -0.1581
   80SLPC     P 7362   6.130   5.108   6.313 -0.3285  0.3024  0.0092
   80SLPC   O13 7363   6.007   5.159   6.366 -0.4990  0.0927 -0.3803
   80SLPC   O14 7364   6.126   4.990   6.222  0.4903 -0.0483 -0.2981
   80SLPC   O12 7365   6.195   5.232   6.234  0.8116 -0.5559 -0.4214
   80SLPC   O11 7366   6.225   5.072   6.433 -0.3464 -0.3288 -0.4053
   80SLPC    C1 7367   6.175   5.104   6.573  0.6629  0.4759  0.4147
   80SLPC    HA 7368   6.258   5.118   6.646  1.3514 -0.7766 -0.0865
   80SLPC    HB 7369   6.105   5.188   6.588 -0.6597 -0.2324 -1.4006
   80SLPC    C2 7370   6.094   4.976   6.614  0.1794  0.4170 -0.7232
   80SLPC    HS 7371   6.013   4.956   6.541 -1.1441 -0.1182  0.8463
   80SLPC   O21 7372   6.041   4.998   6.750 -0.3812 -0.6608  0.2871
   80SLPC   C21 7373   5.930   4.928   6.778  0.2005  0.2798  0.8286
   80SLPC   O22 7374   5.879   4.854   6.697  0.7189 -0.2472 -0.2792
   80SLPC   C22 7375   5.881   4.943   6.917  0.2067 -0.7145 -0.0551
   80SLPC   H2R 7376   5.918   5.037   6.963  0.1635 -0.5875 -0.2793
   80SLPC   H2S 7377   5.770   4.947   6.914  0.1854  0.6080  1.2591
   80SLPC    C3 7378   6.192   4.855   6.626  0.6098 -0.7207  0.0240
   80SLPC    HX 7379   6.251   4.843   6.533 -0.4656  0.6814 -0.8872
   80SLPC    HY 7380   6.127   4.765   6.640 -2.0101  0.8211 -1.3683
   80SLPC   O31 7381   6.287   4.863   6.735 -0.0479  0.5317  0.0510
   80SLPC   C31 7382   6.349   4.747   6.761 -0.4565  0.1356 -0.1464
   80SLPC   O32 7383   6.325   4.650   6.696 -0.1466 -0.2494  0.5069
   80SLPC   C32 7384   6.429   4.765   6.890 -0.4606 -0.3563  0.6443
   80SLPC   H2X 7385   6.488   4.673   6.909  1.6430  0.8691  0.3125
   80SLPC   H2Y 7386   6.356   4.767   6.974 -0.5725  1.4288  0.5345
   80SLPC   C23 7387   5.921   4.821   6.999  0.3581 -0.5898 -0.7901
   80SLPC   H3R 7388   6.031   4.808   7.007  0.4882  1.1518  1.3854
   80SLPC   H3S 7389   5.892   4.729   6.943 -0.9303  0.1428 -1.3755
   80SLPC   C24 7390   5.869   4.827   7.152  0.3303 -0.0441 -0.1725
   80SLPC   H4R 7391   5.896   4.729   7.196 -1.4131 -0.6797 -0.4474
   80SLPC   H4S 7392   5.758   4.832   7.147  0.3623  1.6429  0.1541
   80SLPC   C25 7393   5.925   4.949   7.228 -0.7452  0.0184 -0.1550
   80SLPC   H5R 7394   5.899   5.046   7.179  1.0884  0.3259 -0.5889
   80SLPC   H5S 7395   6.033   4.923   7.225 -0.5614  0.2916  2.0701
   80SLPC   C26 7396   5.882   4.934   7.377 -0.7533  0.2108 -0.8116
   80SLPC   H6R 7397   5.895   4.830   7.415  1.7034  1.4076  2.0055
   80SLPC   H6S 7398   5.776   4.967   7.384 -1.2300 -1.3086 -0.5417
   80SLPC   C27 7399   5.979   5.017   7.461  0.5201 -0.2409  0.1983
   80SLPC   H7R 7400   5.992   5.114   7.408  0.7340 -0.9739 -1.1450
   80SLPC   H7S 7401   6.075   4.962   7.453  1.9814  2.1293  0.6954
   80SLPC   C28 7402   5.945   5.040   7.609  0.3900  0.1530  0.4731
   80SLPC   H8R 7403   6.026   5.105   7.649  0.3173  2.0914 -2.2830
   80SLPC   H8S 7404   5.935   4.942   7.661 -1.1003 -0.9040 -1.6812
   80SLPC   C29 7405   5.821   5.112   7.635  0.7085 -0.2768 -0.3754
   80SLPC   H9R 7406   5.782   5.173   7.553 -0.2456 -1.0639 -0.5233
   80SLPC  C210 7407   5.750   5.112   7.748  0.0999  0.2506 -0.3823
   80SLPC  H10R 7408   5.662   5.177   7.749  0.5356  0.8739 -1.2841
   80SLPC  C211 7409   5.779   5.038   7.874  0.2634  0.0628 -0.2178
   80SLPC  H11R 7410   5.873   4.981   7.859 -1.5692 -2.5778 -2.4264
   80SLPC  H11S 7411   5.689   4.973   7.877  0.8375 -0.9549 -2.7426
   80SLPC  C212 7412   5.783   5.135   7.987  0.6252 -0.4976 -0.9724
   80SLPC  H12R 7413   5.702   5.208   7.998  0.8214  0.0072 -2.6934
   80SLPC  C213 7414   5.891   5.153   8.071 -0.1791  0.8597 -0.1352
   80SLPC  H13R 7415   5.883   5.223   8.155  1.1968  1.0340 -0.1256
   80SLPC  C214 7416   6.006   5.066   8.075 -1.4513 -0.1067 -0.1031
   80SLPC  H14R 7417   5.992   4.968   8.023  0.7510  0.2723 -1.5501
   80SLPC  H14S 7418   6.018   5.028   8.179  1.2231  0.0206 -0.2793
   80SLPC  C215 7419   6.132   5.133   8.017 -0.2074  0.3208 -0.1300
   80SLPC  H15R 7420   6.148   5.236   8.055 -0.4885 -1.0333  4.1320
   80SLPC  H15S 7421   6.110   5.147   7.909 -0.5038 -0.2901 -0.1550
   80SLPC  C216 7422   6.256   5.037   8.019 -0.3185  0.5337 -0.6613
   80SLPC  H16R 7423   6.348   5.091   7.988  0.6871  0.7759  2.4583
   80SLPC  H16S 7424   6.234   4.953   7.949  0.7825  0.6003 -1.1148
   80SLPC  C217 7425   6.283   4.977   8.158  0.3990  0.0800 -0.1250
   80SLPC  H17R 7426   6.351   4.894   8.130 -1.7689 -2.5806  1.8954
   80SLPC  H17S 7427   6.194   4.921   8.194  1.1146 -0.9933  0.0254
   80SLPC  C218 7428   6.328   5.080   8.262  0.5894 -0.0549 -0.4703
   80SLPC  H18R 7429   6.239   5.139   8.291 -0.7196 -2.0364 -0.3097
   80SLPC  H18S 7430   6.412   5.147   8.232  0.6592  0.7734  1.4382
   80SLPC  H18T 7431   6.353   5.037   8.361 -0.5422  2.3463  0.9613
   80SLPC   C33 7432   6.520   4.892   6.891 -0.3966 -0.3815 -0.2192
   80SLPC   H3X 7433   6.473   4.990   6.870  0.3642  0.0467  0.0105
   80SLPC   H3Y 7434   6.602   4.880   6.816 -0.3004  2.5214 -0.6993
   80SLPC   C34 7435   6.596   4.911   7.020 -0.0651  0.2329 -0.9596
   80SLPC   H4X 7436   6.684   4.979   7.008  0.5652 -0.1635  1.0783
   80SLPC   H4Y 7437   6.647   4.817   7.048  0.7232  1.4744  2.2597
   80SLPC   C35 7438   6.505   4.941   7.140 -0.2652 -0.2245  0.5844
   80SLPC   H5X 7439   6.435   4.857   7.160 -1.4620  1.1353  2.5473
   80SLPC   H5Y 7440   6.450   5.036   7.120  0.7050  0.1281 -0.5347
   80SLPC   C36 7441   6.564   4.955   7.285 -0.3959  0.2970  0.8411
   80SLPC   H6X 7442   6.582   5.061   7.312  1.8750  0.1582  0.0777
   80SLPC   H6Y 7443   6.667   4.914   7.289 -0.9261 -1.0976  0.4708
   80SLPC   C37 7444   6.470   4.906   7.399 -0.5172  0.1390  0.1163
   80SLPC   H7X 7445   6.470   4.795   7.403 -0.0521  0.1276 -0.0914
   80SLPC   H7Y 7446   6.369   4.951   7.397  0.3735  2.4402  1.8153
   80SLPC   C38 7447   6.529   4.953   7.540  0.2291  0.2540  0.2093
   80SLPC   H8X 7448   6.432   4.966   7.593 -0.2910 -2.3105  0.0425
   80SLPC   H8Y 7449   6.583   5.049   7.526  0.4013  0.2363  0.7493
   80SLPC   C39 7450   6.618   4.853   7.607  0.0980 -0.0704 -0.2895
   80SLPC   H9X 7451   6.714   4.850   7.551  1.0795  0.3625  1.3205
   80SLPC   H9Y 7452   6.570   4.753   7.607 -0.5968  0.2280  1.3035
   80SLPC  C310 7453   6.640   4.891   7.756 -0.0085  0.0638 -0.2608
   80SLPC  H10X 7454   6.544   4.923   7.802 -0.0696  0.8756 -0.9316
   80SLPC  H10Y 7455   6.706   4.981   7.761 -0.5708  0.5166 -0.8769
   80SLPC  C311 7456   6.687   4.776   7.842 -0.2583  1.1975 -0.3862
   80SLPC  H11X 7457   6.794   4.750   7.828 -0.6401 -1.5913  1.1515
   80SLPC  H11Y 7458   6.641   4.680   7.812  2.4187 -0.2989 -0.0231
   80SLPC  C312 7459   6.656   4.791   7.993 -0.3258  0.2783 -0.5254
   80SLPC  H12X 7460   6.698   4.697   8.035  0.0243  1.8453  2.9988
   80SLPC  H12Y 7461   6.545   4.779   7.998 -0.4837 -0.0762 -3.3599
   80SLPC  C313 7462   6.710   4.928   8.048 -0.1838 -0.1484  0.7974
   80SLPC  H13X 7463   6.641   5.000   8.000  0.4676 -0.1839 -0.2206
   80SLPC  H13Y 7464   6.811   4.953   8.008 -0.9081  1.2859 -0.2111
   80SLPC  C314 7465   6.724   4.923   8.197 -0.1948  0.0555 -0.4597
   80SLPC  H14X 7466   6.788   4.835   8.220 -1.7953 -1.2727 -0.8632
   80SLPC  H14Y 7467   6.631   4.907   8.257  1.1199 -0.6098  1.4882
   80SLPC  C315 7468   6.793   5.051   8.254  0.2269  0.5704  0.2328
   80SLPC  H15X 7469   6.762   5.138   8.192 -2.2872 -1.5927 -1.8237
   80SLPC  H15Y 7470   6.901   5.039   8.233  0.1956 -0.2993  0.5118
   80SLPC  C316 7471   6.780   5.073   8.401 -0.1714  0.0109  0.0769
   80SLPC  H16X 7472   6.681   5.034   8.434 -0.4103 -0.3037 -0.9962
   80SLPC  H16Y 7473   6.779   5.182   8.422  1.6143 -0.0733  0.7598
   80SLPC  C317 7474   6.887   5.015   8.497 -0.2518  0.0958 -0.6254
   80SLPC  H17X 7475   6.975   5.082   8.487 -0.5855  0.6183 -0.1316
   80SLPC  H17Y 7476   6.925   4.918   8.460  0.6629  0.5970 -1.0216
   80SLPC  C318 7477   6.841   5.015   8.648 -0.0659  0.0740 -0.6212
   80SLPC  H18X 7478   6.915   4.970   8.718  0.5445  1.2394 -0.5099
   80SLPC  H18Y 7479   6.741   4.967   8.661  0.7506 -1.6799 -0.4816
   80SLPC  H18Z 7480   6.824   5.122   8.670  0.0259 -0.0975  0.3646
   81SAPS     N 7481   1.062   2.132  11.263  0.5126  0.0768 -0.5640
   81SAPS   HN1 7482   1.118   2.172  11.341 -1.2807 -2.2271  2.1252
   81SAPS   HN2 7483   1.126   2.124  11.182 -0.6030 -0.1679 -1.4447
   81SAPS   HN3 7484   0.982   2.197  11.248  0.7190  0.5726  0.4088
   81SAPS   C12 7485   1.015   2.006  11.316 -0.1197  0.2292 -0.3439
   81SAPS  H12A 7486   1.098   1.969  11.374 -1.6706 -1.2188  1.0603
   81SAPS   C13 7487   0.901   2.012  11.419  0.3851 -0.3262  0.0181
   81SAPS  O13A 7488   0.858   2.127  11.450 -0.5712  0.0123 -0.5901
   81SAPS  O13B 7489   0.829   1.911  11.433 -0.9348  0.5177  0.0006
   81SAPS   C11 7490   0.971   1.915  11.193  0.8217  0.2094 -0.6465
   81SAPS  H11A 7491   0.898   1.974  11.134  0.2288 -1.6849 -1.8808
   81SAPS  H11B 7492   0.915   1.827  11.230  0.7795 -0.5046 -2.3332
   81SAPS     P 7493   1.126   1.961  10.983 -0.2559  0.3067 -0.0667
   81SAPS   O13 7494   1.205   2.074  11.038  0.0269 -0.2647 -0.3906
   81SAPS   O14 7495   1.206   1.871  10.892  0.2564 -0.1401  0.2154
   81SAPS   O12 7496   1.082   1.871  11.108  0.2796 -0.2822  0.2623
   81SAPS   O11 7497   0.997   2.008  10.905 -0.5404 -0.2467  0.0999
   81SAPS    C1 7498   0.920   1.916  10.831 -0.4164 -0.0319 -0.0410
   81SAPS    HA 7499   0.914   1.818  10.882  2.0734  0.4348  1.2848
   81SAPS    HB 7500   0.817   1.959  10.826  0.2558  1.9926  1.9230
   81SAPS    C2 7501   0.967   1.894  10.692  0.4717  0.0680  0.1151
   81SAPS    HS 7502   1.078   1.882  10.695  0.4174 -0.3405  0.4777
   81SAPS   O21 7503   0.942   2.018  10.617  0.0053 -0.1380 -0.1626
   81SAPS   C21 7504   1.020   2.036  10.513 -0.3284  0.8915 -0.3814
   81SAPS   O22 7505   1.127   1.975  10.489 -0.0268 -0.2349 -0.2146
   81SAPS   C22 7506   0.974   2.148  10.419  0.4624 -0.7833  0.1649
   81SAPS   H2R 7507   0.864   2.161  10.421  0.5243 -0.0151 -0.7778
   81SAPS   H2S 7508   1.019   2.245  10.449 -2.0223  0.1147  1.2203
   81SAPS    C3 7509   0.899   1.775  10.620  0.8872 -0.2102  0.3236
   81SAPS    HX 7510   0.791   1.801  10.631  1.1001  1.6136 -1.2458
   81SAPS    HY 7511   0.905   1.685  10.684 -2.3269  0.5853  1.9375
   81SAPS   O31 7512   0.926   1.758  10.485 -0.2718 -0.9713  0.2313
   81SAPS   C31 7513   1.032   1.678  10.450 -0.3625 -0.4275  0.3060
   81SAPS   O32 7514   1.094   1.620  10.540 -0.2530 -0.3270 -0.3898
   81SAPS   C32 7515   1.062   1.685  10.301 -0.2577  0.3469  0.1487
   81SAPS   H2X 7516   1.123   1.765  10.254  2.6895 -2.4405 -1.1414
   81SAPS   H2Y 7517   0.967   1.719  10.256  0.4735  0.2684 -1.5352
   81SAPS   C23 7518   1.009   2.110  10.269 -0.2395 -0.5260  0.0061
   81SAPS   H3R 7519   1.000   2.000  10.254 -0.6212 -0.3949 -0.7600
   81SAPS   H3S 7520   1.114   2.148  10.264 -1.4971  3.2935 -1.0555
   81SAPS   C24 7521   0.932   2.195  10.163  0.4569  0.1012  0.1037
   81SAPS   H4R 7522   0.975   2.196  10.061 -1.4906  0.8936 -0.7416
   81SAPS   H4S 7523   0.937   2.300  10.200  0.2983  0.1405  0.0121
   81SAPS   C25 7524   0.789   2.148  10.159 -0.3444  0.0114 -0.3776
   81SAPS   H5R 7525   0.731   2.176  10.248  1.2384  4.6567 -0.5287
   81SAPS   C26 7526   0.731   2.073  10.057  0.1803 -0.8671 -0.3016
   81SAPS   H6R 7527   0.624   2.051  10.069 -0.8525  1.8496 -3.0414
   81SAPS   C27 7528   0.803   2.023   9.932 -0.1881 -0.5515 -0.3131
   81SAPS   H7R 7529   0.853   1.925   9.946  1.2353  0.3099  0.8074
   81SAPS   H7S 7530   0.891   2.088   9.918 -0.0263 -0.2756  1.7287
   81SAPS   C28 7531   0.711   2.018   9.815  0.6637 -0.3280  0.0252
   81SAPS   H8R 7532   0.609   2.022   9.854  1.6173  0.7533  2.5865
   81SAPS   C29 7533   0.724   2.014   9.681  0.0853  0.5211 -0.3061
   81SAPS   H9R 7534   0.634   2.008   9.619 -1.4553 -0.1308  1.8741
   81SAPS  C210 7535   0.858   2.016   9.607 -0.3819 -0.1125  0.1867
   81SAPS  H10R 7536   0.864   1.923   9.548 -2.8086 -1.0349  1.2517
   81SAPS  H10S 7537   0.943   2.020   9.678  0.4509 -0.4484 -0.7729
   81SAPS  C211 7538   0.844   2.137   9.508 -0.7070  0.4034  0.4083
   81SAPS  H11R 7539   0.853   2.238   9.551 -0.5495  0.2463  0.7571
   81SAPS  C212 7540   0.823   2.120   9.373  0.5067  0.0237 -0.9424
   81SAPS  H12R 7541   0.813   2.210   9.312  0.4720  1.1049  0.6007
   81SAPS  C213 7542   0.808   1.992   9.294 -0.0836 -0.0850 -0.3084
   81SAPS  H13R 7543   0.743   1.919   9.347  0.3074 -0.4522 -0.3297
   81SAPS  H13S 7544   0.909   1.945   9.294  0.2669  0.6579  0.0552
   81SAPS  C214 7545   0.763   2.010   9.159 -0.6712 -0.1360  0.2974
   81SAPS  H14R 7546   0.655   2.032   9.160 -0.6594 -0.0575 -0.1433
   81SAPS  C215 7547   0.829   2.002   9.042 -0.2496 -0.5188 -0.4393
   81SAPS  H15R 7548   0.769   2.005   8.950 -0.7000 -3.0432 -0.3117
   81SAPS  C216 7549   0.973   1.970   9.025  0.0177  0.7321  0.1973
   81SAPS  H16R 7550   1.024   1.948   9.122 -0.9808  0.3952  0.6660
   81SAPS  H16S 7551   1.024   2.055   8.976  0.4747  0.6880  0.5904
   81SAPS  C217 7552   0.985   1.854   8.925  0.2607 -0.0040  0.2319
   81SAPS  H17R 7553   0.927   1.764   8.957 -0.3299 -0.1995 -1.2961
   81SAPS  H17S 7554   1.091   1.819   8.923 -0.7158 -3.3597  0.8436
   81SAPS  C218 7555   0.942   1.891   8.780 -1.0179  0.3397 -0.1995
   81SAPS  H18R 7556   1.000   1.983   8.756 -0.2531 -0.1127 -0.1148
   81SAPS  H18S 7557   0.837   1.917   8.759 -0.3137  2.2947 -1.5637
   81SAPS  C219 7558   0.982   1.783   8.683  0.9854  0.3731  0.0024
   81SAPS  H19R 7559   0.939   1.688   8.721 -0.1330  1.4569  1.5038
   81SAPS  H19S 7560   1.092   1.766   8.688  0.6489 -2.1749  0.2565
   81SAPS  C220 7561   0.933   1.815   8.541 -0.2704  0.2573  0.3452
   81SAPS  H20R 7562   0.983   1.746   8.470  1.2406  0.5026  1.1331
   81SAPS  H20S 7563   0.964   1.918   8.512 -0.4864 -0.3360 -2.1863
   81SAPS  H20T 7564   0.822   1.817   8.548 -0.2743  3.9340  1.2300
   81SAPS   C33 7565   1.106   1.555  10.234 -0.7514 -0.4647 -0.2600
   81SAPS   H3X 7566   1.014   1.507  10.194 -0.2723 -0.6479 -1.1887
   81SAPS   H3Y 7567   1.144   1.490  10.315  1.9193  1.0013 -0.2157
   81SAPS   C34 7568   1.213   1.573  10.130 -0.0777 -0.7207 -0.0601
   81SAPS   H4X 7569   1.232   1.471  10.091 -0.5138 -1.0431  0.5400
   81SAPS   H4Y 7570   1.296   1.633  10.174  0.3005 -0.3042 -1.3077
   81SAPS   C35 7571   1.147   1.646  10.007 -0.2256 -0.2812 -0.3661
   81SAPS   H5X 7572   1.105   1.747  10.028 -0.4066 -0.2107 -1.0450
   81SAPS   H5Y 7573   1.066   1.574   9.984 -0.2288 -0.6005  0.5885
   81SAPS   C36 7574   1.240   1.665   9.888  0.2888 -0.0849 -0.0097
   81SAPS   H6X 7575   1.332   1.603   9.889  0.2803 -0.0977  0.2271
   81SAPS   H6Y 7576   1.263   1.773   9.884 -0.2522  0.0186 -0.4926
   81SAPS   C37 7577   1.161   1.640   9.758  0.1459  0.1284 -0.1678
   81SAPS   H7X 7578   1.074   1.707   9.741 -0.2410 -0.2732  0.2198
   81SAPS   H7Y 7579   1.117   1.539   9.763 -0.2410  0.1934 -1.7774
   81SAPS   C38 7580   1.260   1.656   9.639  0.3906 -0.0407  0.7537
   81SAPS   H8X 7581   1.358   1.610   9.662  1.2575  1.2544 -0.1989
   81SAPS   H8Y 7582   1.281   1.764   9.624  1.0640  0.1238  2.6168
   81SAPS   C39 7583   1.212   1.614   9.501 -0.5040  0.5636  0.1002
   81SAPS   H9X 7584   1.129   1.683   9.476 -0.9754  0.7734  2.0353
   81SAPS   H9Y 7585   1.164   1.515   9.512 -0.7825  0.7998  1.2290
   81SAPS  C310 7586   1.322   1.625   9.395 -0.0445 -0.1469  0.0929
   81SAPS  H10X 7587   1.409   1.556   9.405 -1.2317 -1.7531 -0.3345
   81SAPS  H10Y 7588   1.375   1.721   9.414  1.5912 -0.5378 -2.0033
   81SAPS  C311 7589   1.268   1.619   9.249 -0.2902  0.0899 -0.2013
   81SAPS  H11X 7590   1.209   1.710   9.227  1.8787  1.8589  0.9212
   81SAPS  H11Y 7591   1.212   1.523   9.238 -0.0224 -0.0355 -0.4677
   81SAPS  C312 7592   1.379   1.611   9.139 -0.5725 -0.3268 -0.5093
   81SAPS  H12X 7593   1.420   1.509   9.155  1.0688  0.2582 -0.7649
   81SAPS  H12Y 7594   1.463   1.682   9.152  0.7574 -1.8139 -0.7055
   81SAPS  C313 7595   1.331   1.632   8.996 -0.1720  0.2242 -0.1306
   81SAPS  H13X 7596   1.426   1.623   8.940  0.2272 -2.7024  0.8309
   81SAPS  H13Y 7597   1.279   1.724   8.963 -0.5100  0.1273  0.1165
   81SAPS  C314 7598   1.253   1.510   8.933 -0.5652 -0.1472  0.1584
   81SAPS  H14X 7599   1.175   1.461   8.995 -0.3122 -0.6937  0.0500
   81SAPS  H14Y 7600   1.338   1.439   8.921  0.2255  0.0301  3.5050
   81SAPS  C315 7601   1.190   1.547   8.799 -0.4759 -0.2159  0.0709
   81SAPS  H15X 7602   1.113   1.621   8.831  0.5350  1.4819 -1.2761
   81SAPS  H15Y 7603   1.124   1.465   8.763 -2.2531  0.5917  1.3111
   81SAPS  C316 7604   1.290   1.599   8.693  0.3026  0.0572  0.4125
   81SAPS  H16X 7605   1.353   1.681   8.733  2.3100 -0.3698 -1.7297
   81SAPS  H16Y 7606   1.231   1.646   8.611 -0.2457  0.4751  1.0286
   81SAPS  C317 7607   1.391   1.492   8.643  0.0088 -0.4840 -0.1100
   81SAPS  H17X 7608   1.343   1.415   8.578  1.1482  0.1268 -1.7428
   81SAPS  H17Y 7609   1.428   1.440   8.734 -0.2040 -1.5283 -0.6107
   81SAPS  C318 7610   1.511   1.545   8.575  0.4514 -0.4677  1.0552
   81SAPS  H18X 7611   1.558   1.456   8.527  0.8550  0.2080  0.1525
   81SAPS  H18Y 7612   1.578   1.599   8.644  1.6365 -2.4715  1.5540
   81SAPS  H18Z 7613   1.494   1.615   8.490 -0.0821 -1.7582  0.0584
   82SAPS     N 7614   0.834   2.236  10.809 -0.1802 -0.3823  0.3869
   82SAPS   HN1 7615   0.832   2.336  10.780  0.9960  0.0017  1.5212
   82SAPS   HN2 7616   0.931   2.198  10.803 -1.7727 -4.6361 -2.7251
   82SAPS   HN3 7617   0.777   2.182  10.741  0.2682  0.0196 -0.3316
   82SAPS   C12 7618   0.780   2.229  10.951 -0.0187 -0.2156  0.0721
   82SAPS  H12A 7619   0.760   2.124  10.966 -1.0538 -0.1502 -0.7342
   82SAPS   C13 7620   0.874   2.289  11.056  0.1293 -0.1720  0.1337
   82SAPS  O13A 7621   0.997   2.317  11.031  0.7361 -0.0580  0.1098
   82SAPS  O13B 7622   0.830   2.285  11.176  0.2088  0.2265  0.2269
   82SAPS   C11 7623   0.639   2.308  10.965  0.4415  0.0986 -0.1659
   82SAPS  H11A 7624   0.656   2.416  10.946 -1.5208  0.7175  1.3113
   82SAPS  H11B 7625   0.597   2.302  11.067  2.1591  1.7722  0.7039
   82SAPS     P 7626   0.460   2.147  10.866  0.1376  0.4702  0.4896
   82SAPS   O13 7627   0.532   2.033  10.922  0.2454  0.0912  0.6010
   82SAPS   O14 7628   0.339   2.183  10.942 -0.1239 -0.0436  0.3037
   82SAPS   O12 7629   0.551   2.271  10.860 -0.2654  0.1650  0.1383
   82SAPS   O11 7630   0.412   2.116  10.721 -0.2149  0.5380  0.2102
   82SAPS    C1 7631   0.496   2.054  10.634 -0.6642  0.4752 -0.3001
   82SAPS    HA 7632   0.603   2.066  10.662 -0.0412 -1.4295 -1.6985
   82SAPS    HB 7633   0.468   1.948  10.623 -0.7937  0.2965  1.4675
   82SAPS    C2 7634   0.491   2.108  10.484 -0.1134 -0.6862  0.2972
   82SAPS    HS 7635   0.577   2.075  10.422 -0.3141  0.5627 -0.6731
   82SAPS   O21 7636   0.478   2.249  10.482  0.3659 -0.5409  0.5409
   82SAPS   C21 7637   0.592   2.315  10.513 -0.4712 -0.0021 -0.8078
   82SAPS   O22 7638   0.692   2.256  10.548 -0.0222  0.6059  0.3857
   82SAPS   C22 7639   0.587   2.457  10.481 -0.1257  0.4499  0.3953
   82SAPS   H2R 7640   0.488   2.489  10.521 -0.6236 -0.8174  0.1968
   82SAPS   H2S 7641   0.674   2.516  10.519  2.1012 -3.3165  1.7136
   82SAPS    C3 7642   0.364   2.047  10.410 -1.0158 -0.1589  0.3075
   82SAPS    HX 7643   0.279   2.049  10.481 -0.0760 -2.5572  1.6365
   82SAPS    HY 7644   0.389   1.939  10.394 -1.0605 -0.0516 -0.5719
   82SAPS   O31 7645   0.341   2.097  10.275 -0.4758 -0.2096 -0.2494
   82SAPS   C31 7646   0.257   2.205  10.276 -0.1411 -0.0825 -0.6433
   82SAPS   O32 7647   0.189   2.238  10.373 -0.0568 -0.1890  0.2196
   82SAPS   C32 7648   0.261   2.281  10.143 -0.4967  0.4101 -0.2046
   82SAPS   H2X 7649   0.250   2.386  10.178 -2.4638  0.1813 -0.0291
   82SAPS   H2Y 7650   0.172   2.249  10.085 -1.1241 -1.2647  1.5752
   82SAPS   C23 7651   0.582   2.493  10.330  0.3562 -0.4567  0.5952
   82SAPS   H3R 7652   0.504   2.426  10.289 -1.3950  0.1776  2.7301
   82SAPS   H3S 7653   0.678   2.476  10.275 -1.8244 -1.4580 -3.2627
   82SAPS   C24 7654   0.518   2.631  10.297  0.0213  0.6363 -0.2497
   82SAPS   H4R 7655   0.490   2.618  10.190 -1.4660  1.3948  0.0234
   82SAPS   H4S 7656   0.595   2.709  10.316  1.6574 -1.0422  0.2752
   82SAPS   C25 7657   0.390   2.669  10.362  0.4575 -0.1183  0.3419
   82SAPS   H5R 7658   0.401   2.699  10.468 -0.4451  3.8671 -0.5245
   82SAPS   C26 7659   0.274   2.679  10.307 -0.1606  0.1796  1.0065
   82SAPS   H6R 7660   0.188   2.715  10.364 -0.4093 -0.1571  0.8497
   82SAPS   C27 7661   0.246   2.663  10.154  0.1475  0.1040  0.3944
   82SAPS   H7R 7662   0.308   2.588  10.101 -0.4854 -0.0738 -0.1015
   82SAPS   H7S 7663   0.268   2.758  10.101 -0.7128  1.2282  1.9390
   82SAPS   C28 7664   0.106   2.626  10.130 -0.1193  0.1745  0.8478
   82SAPS   H8R 7665   0.051   2.595  10.220  0.3631 -0.4233  0.9444
   82SAPS   C29 7666   0.040   2.618  10.006 -0.2440 -0.3659  0.0354
   82SAPS   H9R 7667  -0.069   2.605  10.004 -0.3907  0.5255  1.1815
   82SAPS  C210 7668   0.117   2.654   9.879 -0.4038 -0.2554  0.2789
   82SAPS  H10R 7669   0.185   2.569   9.853  0.9863  0.9440 -0.1379
   82SAPS  H10S 7670   0.194   2.732   9.895  0.5241 -0.7160 -1.5861
   82SAPS  C211 7671   0.024   2.689   9.771  0.4891  0.6397 -0.2892
   82SAPS  H11R 7672  -0.021   2.788   9.786  0.3282  0.6107 -0.5636
   82SAPS  C212 7673   0.002   2.626   9.652  0.2887 -0.6552  0.3107
   82SAPS  H12R 7674  -0.062   2.677   9.579 -0.2221 -2.0475 -0.2549
   82SAPS  C213 7675   0.072   2.500   9.601  0.7544 -0.0160  0.1200
   82SAPS  H13R 7676   0.096   2.438   9.690 -0.4261 -0.1689  0.3464
   82SAPS  H13S 7677   0.170   2.525   9.554  0.9834 -1.0325  0.0378
   82SAPS  C214 7678   0.004   2.413   9.493  0.2025 -0.4309 -0.2299
   82SAPS  H14R 7679  -0.037   2.317   9.527 -1.4672  0.7405  1.1840
   82SAPS  C215 7680  -0.028   2.444   9.364  0.3112  0.8645 -0.5816
   82SAPS  H15R 7681  -0.080   2.367   9.305 -1.1329 -0.5257  2.2800
   82SAPS  C216 7682   0.002   2.575   9.294  1.0132  0.0192  0.2395
   82SAPS  H16R 7683   0.077   2.641   9.343  0.9410  0.3710 -0.1264
   82SAPS  H16S 7684  -0.089   2.637   9.304  0.8339  0.1052 -1.7039
   82SAPS  C217 7685   0.048   2.557   9.148  0.6200 -0.3764  0.1137
   82SAPS  H17R 7686   0.141   2.496   9.157  1.8446  1.3674 -0.1358
   82SAPS  H17S 7687   0.076   2.657   9.107  0.2994  0.3539  1.6078
   82SAPS  C218 7688  -0.060   2.481   9.065  0.7164  0.6887 -0.2924
   82SAPS  H18R 7689  -0.154   2.537   9.080  1.4106  1.9014 -0.3193
   82SAPS  H18S 7690  -0.072   2.381   9.111  0.3596  0.8763  0.0266
   82SAPS  C219 7691  -0.035   2.450   8.921 -0.4628 -0.9276  0.2675
   82SAPS  H19R 7692  -0.123   2.396   8.878 -2.2089 -1.2890  3.9520
   82SAPS  H19S 7693   0.055   2.390   8.896 -0.6735 -0.3608 -2.1645
   82SAPS  C220 7694  -0.030   2.575   8.832  0.6642 -0.3817  0.6485
   82SAPS  H20R 7695  -0.001   2.549   8.728  0.0670  0.5000  0.2516
   82SAPS  H20S 7696   0.047   2.648   8.862 -1.8472  2.1182  1.4465
   82SAPS  H20T 7697  -0.120   2.639   8.844  1.9703  1.1449  3.1726
   82SAPS   C33 7698   0.391   2.261  10.062  0.2355  0.9654  0.4242
   82SAPS   H3X 7699   0.408   2.158  10.025  3.1564  1.9867 -1.4882
   82SAPS   H3Y 7700   0.481   2.298  10.116 -1.1592  5.3850  0.1511
   82SAPS   C34 7701   0.380   2.347   9.938 -0.0636  0.7871  0.3733
   82SAPS   H4X 7702   0.367   2.452   9.973 -0.8533 -0.7157  5.2919
   82SAPS   H4Y 7703   0.285   2.331   9.883 -0.5148  0.2828  1.2896
   82SAPS   C35 7704   0.497   2.339   9.840  0.3301  0.9559  0.3045
   82SAPS   H5X 7705   0.518   2.232   9.820  0.6638  0.9095  0.8870
   82SAPS   H5Y 7706   0.586   2.365   9.902  0.2913  0.9019  0.3822
   82SAPS   C36 7707   0.476   2.435   9.720  0.1608 -0.2074  0.0516
   82SAPS   H6X 7708   0.494   2.543   9.738  0.5222 -0.0602 -1.0841
   82SAPS   H6Y 7709   0.370   2.440   9.685  0.8568  3.3326 -1.9801
   82SAPS   C37 7710   0.573   2.398   9.606 -0.4254  0.6271  0.4248
   82SAPS   H7X 7711   0.578   2.287   9.598 -2.1050  0.3308  2.4346
   82SAPS   H7Y 7712   0.675   2.434   9.629  0.8981  0.1147 -3.8535
   82SAPS   C38 7713   0.544   2.447   9.457  0.5148 -0.0644  0.1434
   82SAPS   H8X 7714   0.632   2.417   9.396  0.9447 -2.1003  1.6475
   82SAPS   H8Y 7715   0.540   2.557   9.446  2.8681  0.1349  0.9070
   82SAPS   C39 7716   0.413   2.385   9.392 -0.3160 -0.3283  0.0467
   82SAPS   H9X 7717   0.328   2.443   9.434  0.9123  3.7698 -2.5088
   82SAPS   H9Y 7718   0.402   2.278   9.421 -4.9432  0.5166  2.4955
   82SAPS  C310 7719   0.402   2.412   9.239 -0.2791  0.3383  0.2281
   82SAPS  H10X 7720   0.403   2.521   9.215 -2.2471  0.2041 -0.6841
   82SAPS  H10Y 7721   0.309   2.365   9.201 -0.7828  0.4957  1.2171
   82SAPS  C311 7722   0.508   2.334   9.157 -0.0273  0.8619 -0.3102
   82SAPS  H11X 7723   0.497   2.226   9.181 -1.1082  1.0800  0.2213
   82SAPS  H11Y 7724   0.612   2.356   9.190 -0.1765  0.9339  0.1208
   82SAPS  C312 7725   0.529   2.372   9.012  0.6167 -0.3703 -0.1103
   82SAPS  H12X 7726   0.609   2.306   8.973  1.0356 -0.7091  1.2781
   82SAPS  H12Y 7727   0.552   2.479   8.992  0.0425  0.5346  3.3823
   82SAPS  C313 7728   0.413   2.343   8.924  0.1359 -0.7354 -0.1425
   82SAPS  H13X 7729   0.331   2.410   8.957  1.6373  0.7105  0.7848
   82SAPS  H13Y 7730   0.369   2.242   8.939 -0.1902 -0.6615 -0.5795
   82SAPS  C314 7731   0.435   2.375   8.772 -0.7735 -0.6247  0.4302
   82SAPS  H14X 7732   0.512   2.300   8.743 -0.0026 -0.5328  2.1419
   82SAPS  H14Y 7733   0.473   2.478   8.757  3.8196 -1.5425  3.5696
   82SAPS  C315 7734   0.309   2.347   8.693 -0.0021  0.1326  0.2930
   82SAPS  H15X 7735   0.224   2.399   8.742 -0.0508  0.6063 -0.2809
   82SAPS  H15Y 7736   0.272   2.242   8.698  1.7743 -0.6302 -1.2771
   82SAPS  C316 7737   0.313   2.388   8.545 -0.0187 -0.1129 -0.2215
   82SAPS  H16X 7738   0.335   2.497   8.548  2.8248 -0.5755 -1.4255
   82SAPS  H16Y 7739   0.210   2.366   8.510 -0.0525 -0.7296  0.2533
   82SAPS  C317 7740   0.424   2.327   8.454 -0.0314 -0.4398 -0.7385
   82SAPS  H17X 7741   0.433   2.219   8.481 -0.1590 -0.3495 -0.3237
   82SAPS  H17Y 7742   0.519   2.367   8.496 -0.8241 -0.7087  1.4564
   82SAPS  C318 7743   0.424   2.362   8.306 -0.4971 -0.0625 -0.3180
   82SAPS  H18X 7744   0.523   2.334   8.264  0.3991  1.5136  0.6210
   82SAPS  H18Y 7745   0.401   2.471   8.304  0.1333  0.1558  1.6439
   82SAPS  H18Z 7746   0.356   2.299   8.245  2.8937 -2.0787 -2.3172
   83SAPS     N 7747   3.318   2.351  10.676  0.3146 -0.1389 -0.3896
   83SAPS   HN1 7748   3.297   2.434  10.616 -2.9987  0.1233  0.9232
   83SAPS   HN2 7749   3.413   2.313  10.657  1.4629  1.4591  1.8102
   83SAPS   HN3 7750   3.251   2.278  10.643 -0.7299  0.0024  1.3251
   83SAPS   C12 7751   3.304   2.383  10.822  0.5980 -0.2906  0.0726
   83SAPS  H12A 7752   3.391   2.440  10.852 -0.0948  2.3009 -2.3741
   83SAPS   C13 7753   3.167   2.454  10.856  0.6963  0.0204  0.3041
   83SAPS  O13A 7754   3.091   2.490  10.759  0.2696 -0.2006 -0.8120
   83SAPS  O13B 7755   3.142   2.483  10.974  0.6448 -0.8078 -0.1037
   83SAPS   C11 7756   3.299   2.241  10.882 -0.1950 -0.3841  0.1360
   83SAPS  H11A 7757   3.224   2.174  10.835 -1.0777  0.2960  0.5669
   83SAPS  H11B 7758   3.256   2.248  10.984 -2.0845 -2.2062 -0.4870
   83SAPS     P 7759   3.451   2.045  10.961  0.2275 -0.1304  0.5692
   83SAPS   O13 7760   3.588   2.055  11.010 -0.4075  0.1668  0.2990
   83SAPS   O14 7761   3.344   2.020  11.057  0.2738  0.1734 -0.0165
   83SAPS   O12 7762   3.430   2.182  10.888 -0.3670 -0.0218  0.1721
   83SAPS   O11 7763   3.453   1.943  10.838 -0.1115 -0.8561 -0.0838
   83SAPS    C1 7764   3.350   1.927  10.743 -0.2040 -0.5380  0.6709
   83SAPS    HA 7765   3.343   1.816  10.738  1.5328 -0.8634  3.3188
   83SAPS    HB 7766   3.254   1.959  10.789 -1.5078 -2.2160 -0.7351
   83SAPS    C2 7767   3.379   1.984  10.600 -0.8738 -0.6843 -0.3035
   83SAPS    HS 7768   3.385   2.095  10.612  0.6303 -1.0518  4.8962
   83SAPS   O21 7769   3.277   1.943  10.516  0.3620 -0.4094 -0.1249
   83SAPS   C21 7770   3.168   2.029  10.508 -0.7096  0.8136  0.2780
   83SAPS   O22 7771   3.173   2.140  10.554  0.4194 -0.0068  0.0630
   83SAPS   C22 7772   3.068   1.974  10.408 -0.1302  0.4067  0.2910
   83SAPS   H2R 7773   3.061   1.864  10.420 -1.0052  0.2470 -1.4737
   83SAPS   H2S 7774   2.977   2.028  10.443  0.3096  1.2439  0.1918
   83SAPS    C3 7775   3.516   1.942  10.541 -0.0501 -0.2936 -0.3779
   83SAPS    HX 7776   3.512   1.832  10.557 -0.5645 -0.1672  0.4399
   83SAPS    HY 7777   3.601   1.979  10.601  0.9765 -0.9345 -1.3813
   83SAPS   O31 7778   3.525   1.977  10.398 -0.1704 -0.2531 -0.7740
   83SAPS   C31 7779   3.637   1.930  10.339  0.4054  0.2244 -0.3367
   83SAPS   O32 7780   3.715   1.854  10.389 -0.0850 -0.5045  0.3747
   83SAPS   C32 7781   3.651   1.987  10.196  0.0118 -0.4864 -0.2141
   83SAPS   H2X 7782   3.746   2.045  10.196  0.1290 -0.6548 -1.2114
   83SAPS   H2Y 7783   3.563   2.051  10.176  0.6721  0.0777 -1.5046
   83SAPS   C23 7784   3.094   2.020  10.256  0.3074 -0.3467 -0.1602
   83SAPS   H3R 7785   3.081   2.130  10.242 -0.9768 -0.7007 -2.2332
   83SAPS   H3S 7786   3.010   1.986  10.192 -0.4196 -3.2312  2.1232
   83SAPS   C24 7787   3.225   1.966  10.197  0.6209 -0.1429 -0.4603
   83SAPS   H4R 7788   3.315   1.999  10.255  0.6050 -1.9562  0.6934
   83SAPS   H4S 7789   3.224   2.009  10.095 -0.4417  0.4018 -0.2318
   83SAPS   C25 7790   3.242   1.816  10.188  0.0023  0.8367 -0.5597
   83SAPS   H5R 7791   3.251   1.774  10.289  1.6897  2.3203 -0.0349
   83SAPS   C26 7792   3.254   1.729  10.084  0.5255 -0.5595  0.1087
   83SAPS   H6R 7793   3.279   1.625  10.107 -0.3341 -0.9368 -0.6179
   83SAPS   C27 7794   3.265   1.767   9.941 -0.1835  0.9235 -0.0899
   83SAPS   H7R 7795   3.332   1.698   9.886  0.3200  1.4962 -0.1947
   83SAPS   H7S 7796   3.313   1.867   9.944 -2.4433  2.0742  0.0893
   83SAPS   C28 7797   3.126   1.775   9.886 -0.2374  0.6430 -0.4493
   83SAPS   H8R 7798   3.043   1.802   9.953 -0.1555 -2.1639  0.9348
   83SAPS   C29 7799   3.087   1.763   9.755 -0.6356  0.6860  0.0203
   83SAPS   H9R 7800   2.979   1.773   9.734 -0.6857 -0.7342 -0.4954
   83SAPS  C210 7801   3.178   1.732   9.635 -0.5090  0.5483 -0.8726
   83SAPS  H10R 7802   3.281   1.703   9.664 -1.3175 -1.2974  0.4057
   83SAPS  H10S 7803   3.179   1.819   9.567  1.9257  0.5590 -0.8878
   83SAPS  C211 7804   3.106   1.621   9.557 -0.0242 -0.5357  0.2722
   83SAPS  H11R 7805   3.046   1.665   9.477 -0.6549 -1.0414  0.4608
   83SAPS  C212 7806   3.118   1.490   9.565  0.0464  0.0135 -0.2240
   83SAPS  H12R 7807   3.070   1.421   9.495  0.9307  0.1796 -1.0186
   83SAPS  C213 7808   3.205   1.412   9.663 -0.6104 -0.6217 -0.0647
   83SAPS  H13R 7809   3.279   1.469   9.723 -1.3919  0.7062 -0.3310
   83SAPS  H13S 7810   3.275   1.347   9.605 -1.2535 -1.2903 -0.1104
   83SAPS  C214 7811   3.104   1.333   9.753 -0.1653 -0.4798 -0.0851
   83SAPS  H14R 7812   3.043   1.397   9.818 -0.7986 -1.3355  0.1900
   83SAPS  C215 7813   3.099   1.195   9.769  0.1348  0.3294 -0.5311
   83SAPS  H15R 7814   3.021   1.153   9.834  1.8491  1.1133  2.2033
   83SAPS  C216 7815   3.192   1.092   9.711  0.3594 -0.1233  0.3968
   83SAPS  H16R 7816   3.297   1.126   9.702  0.7912 -0.6299  2.9087
   83SAPS  H16S 7817   3.161   1.057   9.610  0.5394  1.3009 -0.1869
   83SAPS  C217 7818   3.219   0.966   9.796 -0.3885  0.5655  0.3459
   83SAPS  H17R 7819   3.277   0.903   9.725  1.5289  2.4780  0.1053
   83SAPS  H17S 7820   3.122   0.915   9.814  0.3416 -0.3730  1.7497
   83SAPS  C218 7821   3.298   0.996   9.923 -1.0223  0.2006  0.3645
   83SAPS  H18R 7822   3.221   1.056   9.976  1.0362  1.8456  1.6579
   83SAPS  H18S 7823   3.390   1.057   9.911 -0.1023 -1.3957 -1.2099
   83SAPS  C219 7824   3.321   0.871  10.006 -1.1458  0.0731 -0.5616
   83SAPS  H19R 7825   3.401   0.813   9.955 -0.1312  1.1531 -0.2301
   83SAPS  H19S 7826   3.226   0.813  10.000 -1.3433  0.2605  0.5642
   83SAPS  C220 7827   3.361   0.910  10.148  0.2712 -0.0713  0.2440
   83SAPS  H20R 7828   3.398   0.824  10.207  1.9408  1.1050  0.9733
   83SAPS  H20S 7829   3.268   0.939  10.202  1.3040 -1.0535  2.6650
   83SAPS  H20T 7830   3.436   0.992  10.147  0.5974 -0.3652 -1.4638
   83SAPS   C33 7831   3.668   1.888  10.088  0.5300  0.5403 -0.0066
   83SAPS   H3X 7832   3.579   1.821  10.096  1.2104 -0.4842 -0.7802
   83SAPS   H3Y 7833   3.755   1.820  10.098  0.8809  1.0443  0.4492
   83SAPS   C34 7834   3.679   1.970   9.957 -0.3560  0.0816 -0.6268
   83SAPS   H4X 7835   3.787   1.986   9.935 -0.0808 -2.4063 -1.5121
   83SAPS   H4Y 7836   3.631   2.069   9.971  0.3516  0.1678  1.5057
   83SAPS   C35 7837   3.622   1.901   9.833 -0.4431  0.3605  0.2541
   83SAPS   H5X 7838   3.512   1.892   9.847 -0.4265  0.1871  0.2754
   83SAPS   H5Y 7839   3.656   1.795   9.841 -0.1865  0.4089 -0.2031
   83SAPS   C36 7840   3.645   1.967   9.698  0.0289  0.1566  0.6685
   83SAPS   H6X 7841   3.749   1.956   9.660  0.0185  2.2778 -0.0799
   83SAPS   H6Y 7842   3.615   2.073   9.705 -1.1353 -0.1722  0.8285
   83SAPS   C37 7843   3.554   1.905   9.588 -0.3344  0.4108 -0.6222
   83SAPS   H7X 7844   3.468   1.855   9.638 -0.1096  0.6646  0.0214
   83SAPS   H7Y 7845   3.615   1.828   9.536  0.7337  1.4358 -0.9253
   83SAPS   C38 7846   3.514   1.996   9.471 -0.6688 -0.2500 -0.2070
   83SAPS   H8X 7847   3.598   2.066   9.454 -0.0074 -0.4878  1.9014
   83SAPS   H8Y 7848   3.421   2.051   9.495 -1.8195 -1.8324 -0.8527
   83SAPS   C39 7849   3.491   1.927   9.339  0.3620  0.0751 -0.0381
   83SAPS   H9X 7850   3.392   1.881   9.354  1.6732 -1.9761  3.5278
   83SAPS   H9Y 7851   3.571   1.852   9.316  0.8232  1.1134 -2.0780
   83SAPS  C310 7852   3.465   2.018   9.221 -0.7908  0.4187  1.0425
   83SAPS  H10X 7853   3.561   2.068   9.195 -0.8275 -1.1550 -2.9032
   83SAPS  H10Y 7854   3.399   2.103   9.246 -0.6480  0.1265  2.4916
   83SAPS  C311 7855   3.412   1.940   9.103 -0.2439 -0.4075 -1.2043
   83SAPS  H11X 7856   3.308   1.903   9.112 -0.0782 -0.8550 -1.0685
   83SAPS  H11Y 7857   3.484   1.858   9.082  0.7691  0.9721 -3.4952
   83SAPS  C312 7858   3.409   2.019   8.972  0.0127 -0.2970 -0.4669
   83SAPS  H12X 7859   3.490   2.095   8.975  0.0870 -0.3830 -0.2617
   83SAPS  H12Y 7860   3.310   2.070   8.969 -1.1220 -2.4111 -1.4498
   83SAPS  C313 7861   3.425   1.934   8.852 -0.4106  0.2323 -1.0214
   83SAPS  H13X 7862   3.387   1.832   8.876  0.4587 -0.4212 -2.2884
   83SAPS  H13Y 7863   3.533   1.929   8.828 -0.3380  0.1725 -0.6871
   83SAPS  C314 7864   3.358   1.987   8.727  0.0341 -0.1090 -0.3048
   83SAPS  H14X 7865   3.374   2.097   8.715  2.8509 -0.2643  1.1863
   83SAPS  H14Y 7866   3.249   1.972   8.740 -0.1674  0.4101 -1.2504
   83SAPS  C315 7867   3.396   1.906   8.598  0.2322  0.1298 -1.1702
   83SAPS  H15X 7868   3.506   1.912   8.584  0.9529 -0.6624  2.9062
   83SAPS  H15Y 7869   3.349   1.946   8.506  2.1264 -1.0166 -2.7317
   83SAPS  C316 7870   3.376   1.756   8.618  0.2835  0.6642  0.3857
   83SAPS  H16X 7871   3.449   1.726   8.696 -2.4056  2.1844  3.7761
   83SAPS  H16Y 7872   3.403   1.697   8.529 -2.2120 -0.7160  0.4466
   83SAPS  C317 7873   3.240   1.711   8.681  0.6803 -0.4101  0.4130
   83SAPS  H17X 7874   3.209   1.761   8.776 -0.3479  0.5040 -0.3707
   83SAPS  H17Y 7875   3.257   1.604   8.705  2.1815 -0.1141  0.7554
   83SAPS  C318 7876   3.121   1.741   8.586 -0.3375 -0.9849 -0.1752
   83SAPS  H18X 7877   3.038   1.677   8.623  1.7312 -2.6641  1.8815
   83SAPS  H18Y 7878   3.144   1.707   8.483 -2.3500 -2.2792 -0.2512
   83SAPS  H18Z 7879   3.095   1.848   8.586 -1.2333 -1.1954 -0.8616
   84SAPS     N 7880   3.411   0.261  11.102  0.1161 -0.0526 -0.2796
   84SAPS   HN1 7881   3.337   0.292  11.035  0.8216  0.3830 -0.8894
   84SAPS   HN2 7882   3.468   0.182  11.065 -1.4558 -1.0872 -0.5734
   84SAPS   HN3 7883   3.367   0.239  11.193 -3.7416 -0.4150 -2.0568
   84SAPS   C12 7884   3.490   0.387  11.137  0.4623 -0.0073  0.2028
   84SAPS  H12A 7885   3.419   0.463  11.165  1.1749  0.3214  1.1584
   84SAPS   C13 7886   3.578   0.358  11.260 -0.1732 -0.3963 -0.5771
   84SAPS  O13A 7887   3.554   0.257  11.327 -0.3351 -0.1923  0.0741
   84SAPS  O13B 7888   3.647   0.450  11.311 -0.0529  1.0113 -0.5970
   84SAPS   C11 7889   3.574   0.440  11.022  0.3871  0.2458 -0.5091
   84SAPS  H11A 7890   3.615   0.534  11.064 -1.2558  0.5236  0.5507
   84SAPS  H11B 7891   3.499   0.461  10.944 -0.8146  2.4542  1.1179
   84SAPS     P 7892   3.769   0.376  10.868  0.3286  0.5532  0.1219
   84SAPS   O13 7893   3.824   0.516  10.868  0.1903 -0.2504  0.4013
   84SAPS   O14 7894   3.873   0.273  10.876  0.0811 -0.1225  0.2363
   84SAPS   O12 7895   3.669   0.347  10.987  0.3825 -0.9370  0.3406
   84SAPS   O11 7896   3.673   0.355  10.739  0.0987  0.1793 -0.1291
   84SAPS    C1 7897   3.609   0.226  10.715  0.2848 -0.4654  0.2036
   84SAPS    HA 7898   3.585   0.172  10.809 -1.6743  0.0072  0.0104
   84SAPS    HB 7899   3.513   0.243  10.662 -1.3830  0.6550  3.3238
   84SAPS    C2 7900   3.696   0.144  10.613 -0.6762  0.4155  0.0550
   84SAPS    HS 7901   3.798   0.129  10.653 -0.6713  0.9130  0.2341
   84SAPS   O21 7902   3.698   0.206  10.482  0.3239 -0.1589  0.4415
   84SAPS   C21 7903   3.793   0.291  10.462  0.1198 -0.1757 -0.3000
   84SAPS   O22 7904   3.885   0.314  10.536  0.1193  0.1744  0.1633
   84SAPS   C22 7905   3.779   0.339  10.320  0.1685 -0.4183  0.3080
   84SAPS   H2R 7906   3.823   0.263  10.252  0.6381 -0.0249  0.1654
   84SAPS   H2S 7907   3.669   0.339  10.300 -0.1763 -1.8664  1.9987
   84SAPS    C3 7908   3.640  -0.006  10.592  0.0623 -0.2666  0.0765
   84SAPS    HX 7909   3.529  -0.004  10.580  0.0114 -0.1991  0.5306
   84SAPS    HY 7910   3.665  -0.057  10.687  2.6621 -1.8724 -1.3550
   84SAPS   O31 7911   3.710  -0.082  10.491  0.2328 -0.2317 -0.2001
   84SAPS   C31 7912   3.645  -0.095  10.374  0.4046  0.1660  0.2063
   84SAPS   O32 7913   3.537  -0.046  10.356  0.6854 -0.1341  0.3710
   84SAPS   C32 7914   3.723  -0.182  10.272  0.1463 -0.1507  0.2550
   84SAPS   H2X 7915   3.688  -0.284  10.298  0.6824 -0.7585 -1.2810
   84SAPS   H2Y 7916   3.830  -0.169  10.301  0.3313 -1.8047  0.4369
   84SAPS   C23 7917   3.855   0.474  10.284  0.7952  0.3778  0.5669
   84SAPS   H3R 7918   3.963   0.466  10.261  0.1411  0.2253 -2.9122
   84SAPS   H3S 7919   3.828   0.543  10.367 -0.7054  0.3580  0.1397
   84SAPS   C24 7920   3.793   0.551  10.165 -1.0897 -0.2034  0.4889
   84SAPS   H4R 7921   3.805   0.485  10.076 -0.8478 -0.4885  0.7325
   84SAPS   H4S 7922   3.861   0.639  10.157 -0.4697 -0.3644  3.0471
   84SAPS   C25 7923   3.648   0.597  10.170  0.0053 -0.6371  0.0940
   84SAPS   H5R 7924   3.620   0.654  10.260 -2.0130 -0.0811 -0.8186
   84SAPS   C26 7925   3.547   0.564  10.083  0.3429 -0.2735  0.0464
   84SAPS   H6R 7926   3.447   0.609  10.093  0.7562  0.5021  0.8094
   84SAPS   C27 7927   3.565   0.481   9.957 -0.0412  0.2610 -0.4828
   84SAPS   H7R 7928   3.482   0.409   9.942 -0.0522 -0.0822  1.0220
   84SAPS   H7S 7929   3.641   0.401   9.974 -0.8020  0.0719  2.8616
   84SAPS   C28 7930   3.577   0.570   9.837 -0.7004 -0.3569  0.4859
   84SAPS   H8R 7931   3.518   0.663   9.836 -2.6417 -1.4997 -1.6525
   84SAPS   C29 7932   3.638   0.524   9.727  0.4018  0.3317 -0.2834
   84SAPS   H9R 7933   3.638   0.593   9.640  0.3548  0.3258 -0.2881
   84SAPS  C210 7934   3.712   0.398   9.708  0.7376 -0.0886 -0.3143
   84SAPS  H10R 7935   3.731   0.353   9.807  0.0884  3.9640  1.8468
   84SAPS  H10S 7936   3.814   0.433   9.682  0.7919  0.9079  1.1524
   84SAPS  C211 7937   3.640   0.315   9.597 -0.3440 -0.7912  0.1958
   84SAPS  H11R 7938   3.574   0.233   9.626  0.8818 -1.7749  0.2766
   84SAPS  C212 7939   3.675   0.329   9.469  0.1391  0.2686  0.1910
   84SAPS  H12R 7940   3.626   0.269   9.391  0.0928  0.2911  0.2024
   84SAPS  C213 7941   3.770   0.423   9.399  0.2309 -0.1729 -0.4393
   84SAPS  H13R 7942   3.851   0.366   9.350  0.5088  1.3550 -1.8562
   84SAPS  H13S 7943   3.814   0.497   9.470  1.1423 -0.0974 -1.0783
   84SAPS  C214 7944   3.700   0.513   9.301  0.2737 -0.0450 -0.4112
   84SAPS  H14R 7945   3.621   0.577   9.342  1.4586  1.4566 -0.4021
   84SAPS  C215 7946   3.726   0.539   9.172 -0.3958  0.5510  0.4096
   84SAPS  H15R 7947   3.659   0.613   9.126  1.5198  1.5489 -0.9204
   84SAPS  C216 7948   3.836   0.481   9.089 -0.1787  0.2570 -0.4458
   84SAPS  H16R 7949   3.880   0.400   9.151  1.5948  1.5618  0.0773
   84SAPS  H16S 7950   3.918   0.554   9.071 -0.5048  0.4490 -1.1950
   84SAPS  C217 7951   3.795   0.428   8.959  0.5322  0.3337  0.0182
   84SAPS  H17R 7952   3.885   0.394   8.903 -0.8044 -0.8920 -1.5055
   84SAPS  H17S 7953   3.762   0.507   8.888  0.9589  0.4239 -0.0833
   84SAPS  C218 7954   3.699   0.310   8.963 -0.9671  0.4393 -1.0189
   84SAPS  H18R 7955   3.616   0.351   9.024 -0.4913 -0.6508  0.3947
   84SAPS  H18S 7956   3.740   0.227   9.025 -0.2756  1.3122 -0.2767
   84SAPS  C219 7957   3.665   0.260   8.817  0.3479  0.3175 -0.1681
   84SAPS  H19R 7958   3.737   0.186   8.776 -2.8094 -2.2047 -1.5826
   84SAPS  H19S 7959   3.645   0.350   8.755 -2.9787  0.8497  1.4281
   84SAPS  C220 7960   3.532   0.180   8.818 -0.1776 -0.7090  0.5536
   84SAPS  H20R 7961   3.460   0.217   8.895  0.0423 -0.0768  0.4600
   84SAPS  H20S 7962   3.561   0.074   8.833  0.9727 -0.3170  1.1601
   84SAPS  H20T 7963   3.482   0.184   8.719  1.2760 -4.3483 -0.4733
   84SAPS   C33 7964   3.708  -0.149  10.119 -1.0420  0.4529 -0.2357
   84SAPS   H3X 7965   3.601  -0.146  10.090 -0.6977  2.5193 -1.4879
   84SAPS   H3Y 7966   3.767  -0.227  10.066 -0.7452  2.2291 -2.6848
   84SAPS   C34 7967   3.745  -0.006  10.079 -0.0610  0.0611  0.7694
   84SAPS   H4X 7968   3.848   0.012  10.117 -0.0196 -0.4525  0.9041
   84SAPS   H4Y 7969   3.687   0.069  10.137  0.3198 -1.2629  2.9830
   84SAPS   C35 7970   3.719   0.035   9.926  0.0890 -0.4392 -0.6258
   84SAPS   H5X 7971   3.757   0.137   9.903 -1.2277 -0.3468 -2.6201
   84SAPS   H5Y 7972   3.609   0.030   9.916 -0.1781  0.3758  1.3996
   84SAPS   C36 7973   3.790  -0.059   9.821  0.0596 -0.6345 -0.1546
   84SAPS   H6X 7974   3.758  -0.161   9.851 -2.1494 -0.0004 -0.1726
   84SAPS   H6Y 7975   3.899  -0.061   9.843 -0.3320 -2.0289  1.8823
   84SAPS   C37 7976   3.758  -0.040   9.676  0.3972 -0.1613  0.4008
   84SAPS   H7X 7977   3.757   0.065   9.641  0.9491  0.2766  1.6420
   84SAPS   H7Y 7978   3.655  -0.080   9.664  0.6784 -0.1616 -2.5917
   84SAPS   C38 7979   3.833  -0.128   9.576 -0.0538 -0.1701 -0.2151
   84SAPS   H8X 7980   3.775  -0.223   9.571  0.7198 -0.6146 -0.8949
   84SAPS   H8Y 7981   3.938  -0.138   9.609 -0.5448 -1.3555  1.1086
   84SAPS   C39 7982   3.826  -0.074   9.439 -0.1132 -0.6220  0.4604
   84SAPS   H9X 7983   3.882  -0.131   9.362 -2.6404 -3.9981  0.8918
   84SAPS   H9Y 7984   3.851   0.034   9.433 -1.6261 -0.2555  0.2644
   84SAPS  C310 7985   3.683  -0.091   9.384  1.2837  0.3731  0.0956
   84SAPS  H10X 7986   3.613  -0.044   9.456  2.0980  1.5164  0.1706
   84SAPS  H10Y 7987   3.638  -0.191   9.368 -2.5857  1.8765  0.5057
   84SAPS  C311 7988   3.664  -0.021   9.254  0.1956 -0.5450  0.3542
   84SAPS  H11X 7989   3.719   0.075   9.250 -1.1491  0.2260 -0.4282
   84SAPS  H11Y 7990   3.556  -0.001   9.237 -0.1411 -1.6985  0.9863
   84SAPS  C312 7991   3.719  -0.091   9.133 -0.2894 -0.5098  0.2979
   84SAPS  H12X 7992   3.810  -0.152   9.156 -0.3484  0.1943  2.7710
   84SAPS  H12Y 7993   3.760  -0.024   9.054 -0.2802 -0.6482  0.1851
   84SAPS  C313 7994   3.613  -0.185   9.074  0.5127  0.0427 -0.2726
   84SAPS  H13X 7995   3.526  -0.129   9.033 -0.4670 -0.0775  1.5356
   84SAPS  H13Y 7996   3.585  -0.257   9.153  1.5624 -0.5101 -0.3957
   84SAPS  C314 7997   3.681  -0.266   8.964  0.1977  0.7822 -0.5566
   84SAPS  H14X 7998   3.772  -0.310   9.010  1.1793  1.0763 -2.0973
   84SAPS  H14Y 7999   3.708  -0.205   8.875  1.0198 -0.2968 -1.0789
   84SAPS  C315 8000   3.588  -0.391   8.917 -0.3079 -0.1952 -0.0925
   84SAPS  H15X 8001   3.557  -0.447   9.008  4.0484 -0.4458  1.4752
   84SAPS  H15Y 8002   3.648  -0.467   8.862 -1.3456 -1.2314  0.1714
   84SAPS  C316 8003   3.485  -0.342   8.813 -0.3751 -0.0298  0.1898
   84SAPS  H16X 8004   3.415  -0.274   8.866 -1.2378  1.1401 -2.2639
   84SAPS  H16Y 8005   3.418  -0.423   8.777 -2.1174  2.0664 -1.6254
   84SAPS  C317 8006   3.541  -0.260   8.685 -1.0309 -0.3108 -0.5853
   84SAPS  H17X 8007   3.626  -0.322   8.651  1.1611 -0.0887  3.8083
   84SAPS  H17Y 8008   3.587  -0.168   8.726 -0.6935 -0.6894 -0.0970
   84SAPS  C318 8009   3.434  -0.221   8.590 -0.2207  0.6906  0.0164
   84SAPS  H18X 8010   3.472  -0.165   8.502 -3.0161  2.6940 -0.0456
   84SAPS  H18Y 8011   3.359  -0.153   8.634  1.1687  1.4612  1.2808
   84SAPS  H18Z 8012   3.377  -0.310   8.554  1.5521 -0.2711 -0.5526
   85SAPS     N 8013   0.790   3.015  11.219 -0.5042 -0.2581 -0.7258
   85SAPS   HN1 8014   0.830   2.926  11.256 -1.2920  0.5228  2.3732
   85SAPS   HN2 8015   0.757   2.998  11.122  0.8692 -2.4057 -0.8851
   85SAPS   HN3 8016   0.853   3.097  11.232  1.5059 -1.8774  0.4523
   85SAPS   C12 8017   0.671   3.040  11.297 -0.2755  0.1121  0.3279
   85SAPS  H12A 8018   0.603   2.957  11.285 -0.0646  0.1972 -2.0373
   85SAPS   C13 8019   0.700   3.037  11.450  0.2487 -0.3955  0.3602
   85SAPS  O13A 8020   0.815   3.056  11.492  0.2509  0.1351 -0.3659
   85SAPS  O13B 8021   0.600   3.040  11.523 -0.2816 -0.0937  0.5065
   85SAPS   C11 8022   0.604   3.182  11.260 -0.1770  0.1312 -0.1021
   85SAPS  H11A 8023   0.694   3.245  11.247 -1.1848  1.5034 -0.6128
   85SAPS  H11B 8024   0.546   3.222  11.346 -1.7926 -0.8902 -0.6539
   85SAPS     P 8025   0.394   3.127  11.116 -0.0319  0.2620 -0.2606
   85SAPS   O13 8026   0.401   2.985  11.150  0.7122  0.4522 -0.2460
   85SAPS   O14 8027   0.300   3.219  11.188  0.7625  0.5570  0.3205
   85SAPS   O12 8028   0.536   3.187  11.134  0.1964  0.6799 -0.1274
   85SAPS   O11 8029   0.385   3.151  10.958  0.0670  0.2014  0.2351
   85SAPS    C1 8030   0.405   3.279  10.902  0.5126  1.0273  0.2777
   85SAPS    HA 8031   0.313   3.338  10.886  0.5618  0.5218 -2.3034
   85SAPS    HB 8032   0.490   3.329  10.953  1.8756 -1.8483  1.0781
   85SAPS    C2 8033   0.446   3.260  10.751  0.2669  0.2931  0.4239
   85SAPS    HS 8034   0.473   3.361  10.714  2.0093  0.8543  2.9670
   85SAPS   O21 8035   0.341   3.203  10.673 -0.1959  0.0168 -0.3619
   85SAPS   C21 8036   0.335   3.216  10.539 -0.0631 -0.6738 -0.2937
   85SAPS   O22 8037   0.421   3.253  10.465 -0.6507  0.3699  0.6119
   85SAPS   C22 8038   0.194   3.182  10.496  0.2963  0.4747 -0.0508
   85SAPS   H2R 8039   0.124   3.161  10.581  0.6278  3.6205  1.1592
   85SAPS   H2S 8040   0.153   3.281  10.465  1.7674  0.6859 -1.3862
   85SAPS    C3 8041   0.575   3.169  10.740 -1.0497 -0.8736 -0.1869
   85SAPS    HX 8042   0.535   3.068  10.765 -0.0555 -1.3314 -0.4051
   85SAPS    HY 8043   0.648   3.194  10.820 -1.8308 -0.1915  0.3411
   85SAPS   O31 8044   0.647   3.165  10.615 -0.0127  0.5542  0.5559
   85SAPS   C31 8045   0.713   3.284  10.591 -0.2211  0.4126 -0.1208
   85SAPS   O32 8046   0.712   3.374  10.671  0.0643 -0.5094 -0.3526
   85SAPS   C32 8047   0.778   3.292  10.452  0.2632  0.0862  0.8605
   85SAPS   H2X 8048   0.736   3.382  10.403  0.5791 -0.8112 -1.1846
   85SAPS   H2Y 8049   0.747   3.207  10.387 -1.2815  1.8019 -0.8029
   85SAPS   C23 8050   0.179   3.073  10.381  0.8100 -0.4292 -0.3203
   85SAPS   H3R 8051   0.184   2.970  10.424 -2.6396 -0.5048  0.1484
   85SAPS   H3S 8052   0.264   3.069  10.310  0.8162 -1.9124 -0.2621
   85SAPS   C24 8053   0.055   3.091  10.291  0.0451  0.0536 -0.4200
   85SAPS   H4R 8054   0.042   3.197  10.260  1.1413 -0.0706 -1.3665
   85SAPS   H4S 8055  -0.032   3.074  10.357  1.4265  0.6442  1.6594
   85SAPS   C25 8056   0.067   3.000  10.177  0.4504  0.1539  0.4875
   85SAPS   H5R 8057   0.122   2.905  10.183  2.6561  1.2791 -0.6014
   85SAPS   C26 8058   0.012   3.024  10.053 -0.1034  0.2545 -0.1600
   85SAPS   H6R 8059   0.029   2.939   9.985  0.4873  1.2421 -1.2858
   85SAPS   C27 8060  -0.056   3.149   9.998  0.1637  0.2247 -0.7895
   85SAPS   H7R 8061   0.005   3.222   9.940 -1.2629  1.9569 -0.2035
   85SAPS   H7S 8062  -0.083   3.206  10.090  1.5480 -0.5825  0.1510
   85SAPS   C28 8063  -0.190   3.130   9.935 -0.0048  0.6830  0.2883
   85SAPS   H8R 8064  -0.281   3.123   9.998  0.1250  1.3664  0.5565
   85SAPS   C29 8065  -0.208   3.101   9.802 -0.2671  0.1426  0.5275
   85SAPS   H9R 8066  -0.311   3.097   9.766 -0.4649  2.0556  0.8186
   85SAPS  C210 8067  -0.100   3.093   9.702  0.0515  0.0919  0.0169
   85SAPS  H10R 8068  -0.131   3.004   9.642  2.0663 -0.9926  0.5099
   85SAPS  H10S 8069  -0.005   3.053   9.744  0.3304  0.5458 -0.1795
   85SAPS  C211 8070  -0.077   3.214   9.626  0.0279  0.4093 -0.1895
   85SAPS  H11R 8071  -0.032   3.294   9.688 -0.8251  0.7135  0.0499
   85SAPS  C212 8072  -0.097   3.229   9.495  0.9114 -0.6354 -0.5988
   85SAPS  H12R 8073  -0.082   3.330   9.454 -0.3386 -0.0204  0.3792
   85SAPS  C213 8074  -0.149   3.133   9.390 -0.0111  0.1477 -0.9021
   85SAPS  H13R 8075  -0.169   3.191   9.297 -0.7882  1.0388 -0.2052
   85SAPS  H13S 8076  -0.240   3.092   9.438  0.8680 -0.7165  0.0861
   85SAPS  C214 8077  -0.067   3.017   9.357 -0.3202 -0.5115  0.0431
   85SAPS  H14R 8078   0.013   2.995   9.430  1.0345  1.4780 -0.7548
   85SAPS  C215 8079  -0.069   2.937   9.242 -0.6684 -0.3772  0.8896
   85SAPS  H15R 8080   0.000   2.852   9.236 -0.2378 -0.0940  1.7017
   85SAPS  C216 8081  -0.158   2.951   9.128  0.0731 -1.0575 -0.2212
   85SAPS  H16R 8082  -0.204   3.052   9.130  0.0807 -1.0109  3.2553
   85SAPS  H16S 8083  -0.248   2.886   9.128 -1.9648  1.5983 -0.2902
   85SAPS  C217 8084  -0.085   2.926   9.001 -0.3073  0.1210  0.0611
   85SAPS  H17R 8085  -0.068   2.820   8.971  0.5227  0.6653 -1.5702
   85SAPS  H17S 8086   0.019   2.967   9.004  0.2895 -1.3692  1.4618
   85SAPS  C218 8087  -0.151   2.989   8.880 -0.1614 -0.4102 -0.5582
   85SAPS  H18R 8088  -0.147   3.098   8.901 -1.1769 -0.2645 -1.0983
   85SAPS  H18S 8089  -0.260   2.970   8.875 -0.1353 -0.6471 -0.2884
   85SAPS  C219 8090  -0.081   2.962   8.746 -0.2286  0.0682  0.3591
   85SAPS  H19R 8091  -0.089   2.854   8.721  0.0767 -0.2110  1.4194
   85SAPS  H19S 8092   0.030   2.970   8.753 -0.1392 -0.3663 -0.3876
   85SAPS  C220 8093  -0.139   3.044   8.626 -0.5741 -0.0273  0.3397
   85SAPS  H20R 8094  -0.248   3.064   8.621 -0.4123  0.6580 -0.9652
   85SAPS  H20S 8095  -0.115   2.994   8.530 -2.0403 -0.1291 -0.0043
   85SAPS  H20T 8096  -0.081   3.138   8.641 -0.4696  0.0516 -0.5017
   85SAPS   C33 8097   0.931   3.297  10.460  0.2703  0.0614  0.3672
   85SAPS   H3X 8098   0.955   3.206  10.519  1.9884  0.1602 -0.1161
   85SAPS   H3Y 8099   0.960   3.390  10.514  2.3132  0.3551 -1.0790
   85SAPS   C34 8100   0.985   3.286  10.313 -0.4060 -0.1262 -0.1387
   85SAPS   H4X 8101   1.090   3.323  10.315 -0.0967 -0.9714 -0.1420
   85SAPS   H4Y 8102   0.918   3.355  10.257 -1.3650 -0.4740  0.5539
   85SAPS   C35 8103   0.985   3.141  10.259  0.5501  0.1918  0.1197
   85SAPS   H5X 8104   0.881   3.103  10.255  0.6935 -0.0877 -1.8312
   85SAPS   H5Y 8105   1.042   3.077  10.329 -0.7457 -0.0926  0.9489
   85SAPS   C36 8106   1.032   3.119  10.118 -0.7515  0.6460 -0.4944
   85SAPS   H6X 8107   1.137   3.143  10.094 -0.1411 -2.7142 -1.6994
   85SAPS   H6Y 8108   0.970   3.190  10.058 -2.0095  0.5123  0.5876
   85SAPS   C37 8109   1.007   2.973  10.077  0.1051 -0.2041 -0.1297
   85SAPS   H7X 8110   0.922   2.936  10.139 -0.0897  0.3535 -0.0571
   85SAPS   H7Y 8111   1.098   2.911  10.080  0.1848 -0.2965 -2.6558
   85SAPS   C38 8112   0.970   2.967   9.926  0.1047 -0.2516  0.0227
   85SAPS   H8X 8113   1.043   3.022   9.864 -1.4752 -0.6973 -2.3651
   85SAPS   H8Y 8114   0.873   3.019   9.910  0.1900  0.0198  0.3628
   85SAPS   C39 8115   0.976   2.829   9.870 -0.1886 -0.1953 -0.3012
   85SAPS   H9X 8116   0.891   2.771   9.913 -1.2884  0.0605 -2.0016
   85SAPS   H9Y 8117   1.071   2.780   9.898 -0.6446 -0.2489  1.2788
   85SAPS  C310 8118   0.951   2.828   9.720  0.4289  0.0188 -0.7122
   85SAPS  H10X 8119   1.055   2.843   9.686  1.9009 -3.1301  1.8016
   85SAPS  H10Y 8120   0.880   2.909   9.695  1.2288  1.3976  1.2226
   85SAPS  C311 8121   0.893   2.690   9.679  0.0176  0.1938  0.1142
   85SAPS  H11X 8122   0.797   2.665   9.730 -0.9788 -2.6567 -2.7913
   85SAPS  H11Y 8123   0.950   2.601   9.713 -1.7869 -0.4048  1.7956
   85SAPS  C312 8124   0.869   2.688   9.519 -0.2150 -0.8174 -1.1773
   85SAPS  H12X 8125   0.920   2.779   9.480 -1.2777 -0.1957 -1.1633
   85SAPS  H12Y 8126   0.761   2.698   9.495 -0.5627  0.6305  0.7252
   85SAPS  C313 8127   0.928   2.574   9.446  0.7661 -0.5963  0.3796
   85SAPS  H13X 8128   0.887   2.480   9.489 -0.5758 -0.6406 -0.9296
   85SAPS  H13Y 8129   1.037   2.578   9.464  1.5119 -1.4089 -3.2843
   85SAPS  C314 8130   0.893   2.583   9.294 -0.2255  0.1603 -0.4994
   85SAPS  H14X 8131   0.933   2.676   9.247 -1.6066 -0.1768 -2.4117
   85SAPS  H14Y 8132   0.782   2.589   9.292 -0.1648  2.5093 -2.7536
   85SAPS  C315 8133   0.951   2.456   9.229 -0.1557  0.7741  0.3117
   85SAPS  H15X 8134   0.884   2.379   9.272  0.1884  0.4242  0.2270
   85SAPS  H15Y 8135   1.060   2.449   9.249  0.2505  0.4251 -1.8034
   85SAPS  C316 8136   0.939   2.475   9.077  0.2213  0.8171  0.0555
   85SAPS  H16X 8137   1.010   2.559   9.062  1.0453 -0.0493 -1.0368
   85SAPS  H16Y 8138   0.836   2.492   9.040 -0.1108  2.3596  1.5750
   85SAPS  C317 8139   0.996   2.354   9.013  0.4955 -0.5817 -0.2615
   85SAPS  H17X 8140   0.917   2.277   9.002  1.0097 -1.0622 -0.6291
   85SAPS  H17Y 8141   1.074   2.306   9.075  1.1449  0.5433 -0.1816
   85SAPS  C318 8142   1.052   2.375   8.877  0.3626  0.7770  0.8937
   85SAPS  H18X 8143   0.993   2.430   8.802  0.8993 -0.1458 -0.2398
   85SAPS  H18Y 8144   1.073   2.272   8.839 -1.7359 -0.2577  2.3685
   85SAPS  H18Z 8145   1.152   2.423   8.886  0.3459  0.6480  1.9505
   86SAPS     N 8146   2.868   3.527  10.698 -0.3971 -0.0884  0.4042
   86SAPS   HN1 8147   2.804   3.589  10.643  0.8183 -0.4680 -1.5434
   86SAPS   HN2 8148   2.938   3.592  10.740  1.1111 -0.7115 -1.0361
   86SAPS   HN3 8149   2.913   3.472  10.622 -1.7308 -1.4653  0.5713
   86SAPS   C12 8150   2.782   3.449  10.792 -0.5624  0.8467 -0.5811
   86SAPS  H12A 8151   2.717   3.392  10.727 -0.1019  1.2492 -1.4087
   86SAPS   C13 8152   2.861   3.349  10.879  0.3190  0.5620 -0.0146
   86SAPS  O13A 8153   2.983   3.353  10.892 -0.1908 -0.4321  0.0861
   86SAPS  O13B 8154   2.795   3.273  10.957  0.4771  0.3083  0.5915
   86SAPS   C11 8155   2.706   3.545  10.892 -0.6090 -0.4203  0.9259
   86SAPS  H11A 8156   2.774   3.616  10.945  0.1300 -0.8950  0.6365
   86SAPS  H11B 8157   2.651   3.495  10.974 -1.4001 -0.0910  0.6063
   86SAPS     P 8158   2.561   3.761  10.837  0.4180  0.3186 -0.3282
   86SAPS   O13 8159   2.585   3.794  10.979 -0.1474  0.5205  0.4740
   86SAPS   O14 8160   2.615   3.853  10.740  0.1287 -0.5350  0.6442
   86SAPS   O12 8161   2.614   3.617  10.809  0.0524  0.1030  0.5199
   86SAPS   O11 8162   2.409   3.759  10.817  0.3035 -0.0219  0.0591
   86SAPS    C1 8163   2.331   3.634  10.793 -0.1528  0.7384 -1.3852
   86SAPS    HA 8164   2.377   3.546  10.844 -0.9076  1.2862  0.2981
   86SAPS    HB 8165   2.232   3.652  10.840 -1.0838 -1.6024 -2.3073
   86SAPS    C2 8166   2.306   3.603  10.643 -0.5405  0.2150  0.1619
   86SAPS    HS 8167   2.225   3.527  10.640 -1.7130  0.9968  4.4260
   86SAPS   O21 8168   2.435   3.574  10.579 -0.6187  0.3748 -0.6431
   86SAPS   C21 8169   2.432   3.474  10.488 -0.2033  0.3512 -0.8735
   86SAPS   O22 8170   2.333   3.413  10.453  0.2522 -0.2433 -0.6516
   86SAPS   C22 8171   2.568   3.447  10.418 -0.1892 -0.4516  0.1113
   86SAPS   H2R 8172   2.585   3.535  10.352 -1.6186 -1.0094 -1.0500
   86SAPS   H2S 8173   2.648   3.448  10.495  0.8894  2.9681 -0.8477
   86SAPS    C3 8174   2.252   3.732  10.584 -0.3309  0.0922  0.2124
   86SAPS    HX 8175   2.323   3.816  10.604 -1.7434  1.4580 -0.3198
   86SAPS    HY 8176   2.156   3.752  10.637  0.3089 -0.8017  1.7934
   86SAPS   O31 8177   2.217   3.719  10.446 -0.1820 -0.1172 -0.1126
   86SAPS   C31 8178   2.276   3.808  10.364 -0.2050 -0.0464  0.2512
   86SAPS   O32 8179   2.342   3.903  10.401  0.6096 -0.3182 -0.9309
   86SAPS   C32 8180   2.256   3.775  10.213 -0.2866  0.0635  0.0325
   86SAPS   H2X 8181   2.337   3.827  10.159 -0.5085  1.1788  0.7427
   86SAPS   H2Y 8182   2.161   3.829  10.192 -1.6721 -1.7411  1.3011
   86SAPS   C23 8183   2.576   3.316  10.334  0.0364 -0.0940 -0.4849
   86SAPS   H3R 8184   2.509   3.321  10.245 -0.3638  0.4012 -0.1601
   86SAPS   H3S 8185   2.534   3.230  10.389  0.3493  0.4159  0.5692
   86SAPS   C24 8186   2.719   3.270  10.285  0.1649  0.1436  0.7267
   86SAPS   H4R 8187   2.712   3.175  10.229 -0.7812  0.7625 -0.2548
   86SAPS   H4S 8188   2.777   3.250  10.378 -1.8918 -2.2091  1.6144
   86SAPS   C25 8189   2.796   3.379  10.214  0.3768  0.4699  0.7931
   86SAPS   H5R 8190   2.831   3.457  10.284  3.4828 -1.3609  1.4824
   86SAPS   C26 8191   2.816   3.407  10.083  0.0266  0.8520 -0.0030
   86SAPS   H6R 8192   2.876   3.498  10.065 -0.0072  1.9028  4.2151
   86SAPS   C27 8193   2.771   3.337   9.959  0.1704  0.3131 -0.3971
   86SAPS   H7R 8194   2.764   3.226   9.969  0.5039  0.2925 -0.3984
   86SAPS   H7S 8195   2.828   3.363   9.867 -1.3499  1.0521 -1.1710
   86SAPS   C28 8196   2.633   3.389   9.937 -1.1615  0.2310  0.2401
   86SAPS   H8R 8197   2.564   3.351  10.015  0.4120  2.3896  2.8892
   86SAPS   C29 8198   2.580   3.464   9.840 -0.2404  0.6261 -0.5088
   86SAPS   H9R 8199   2.473   3.489   9.843 -0.5130 -0.3664 -1.2258
   86SAPS  C210 8200   2.668   3.514   9.728  0.3266 -0.2579  0.3078
   86SAPS  H10R 8201   2.753   3.448   9.700 -1.0007 -2.0108  0.2593
   86SAPS  H10S 8202   2.725   3.603   9.763 -0.2911  0.3965 -0.3041
   86SAPS  C211 8203   2.587   3.553   9.612  0.1590  0.5730 -0.3174
   86SAPS  H11R 8204   2.489   3.602   9.622 -0.1356  0.3855 -1.9702
   86SAPS  C212 8205   2.622   3.531   9.482  0.4975 -0.1042 -0.1074
   86SAPS  H12R 8206   2.549   3.561   9.406  0.0206 -0.8592  0.0433
   86SAPS  C213 8207   2.746   3.466   9.420 -0.4346 -0.6782  0.1412
   86SAPS  H13R 8208   2.788   3.378   9.472  2.4527 -1.4128 -3.0632
   86SAPS  H13S 8209   2.830   3.538   9.409  1.1883 -2.6787 -1.3701
   86SAPS  C214 8210   2.738   3.415   9.279  0.0563 -0.4452 -0.0810
   86SAPS  H14R 8211   2.759   3.308   9.260 -1.2975 -0.2819 -3.0206
   86SAPS  C215 8212   2.707   3.487   9.168 -0.6147  0.1562 -0.1642
   86SAPS  H15R 8213   2.704   3.431   9.073 -2.9764 -1.5843  0.8475
   86SAPS  C216 8214   2.671   3.636   9.152  0.2405  0.1902  0.6829
   86SAPS  H16R 8215   2.687   3.695   9.245 -1.7305  0.4979  0.8767
   86SAPS  H16S 8216   2.564   3.645   9.126  1.1503  1.4070 -3.3379
   86SAPS  C217 8217   2.752   3.709   9.040  0.0095  0.0997 -0.3730
   86SAPS  H17R 8218   2.857   3.674   9.038  0.5662  1.6639 -3.1664
   86SAPS  H17S 8219   2.748   3.819   9.057  0.0262 -0.0285  0.5391
   86SAPS  C218 8220   2.699   3.681   8.896 -0.0913  0.3177 -0.5985
   86SAPS  H18R 8221   2.598   3.727   8.898 -0.0709  0.4897  2.8486
   86SAPS  H18S 8222   2.682   3.573   8.879 -1.4950  0.8298 -2.9719
   86SAPS  C219 8223   2.780   3.755   8.790 -0.0428 -0.0567 -0.2412
   86SAPS  H19R 8224   2.886   3.722   8.793 -0.0160  0.0793  0.5147
   86SAPS  H19S 8225   2.783   3.861   8.822  3.3849 -0.5517  1.5998
   86SAPS  C220 8226   2.731   3.740   8.652 -0.4812  0.1047  0.0863
   86SAPS  H20R 8227   2.693   3.640   8.624 -1.5893  0.6880 -0.5880
   86SAPS  H20S 8228   2.805   3.761   8.572 -1.3360  2.1204 -0.2506
   86SAPS  H20T 8229   2.651   3.816   8.639  1.6538  2.1248 -2.4899
   86SAPS   C33 8230   2.249   3.627  10.177 -0.0859 -0.0583 -0.3293
   86SAPS   H3X 8231   2.181   3.567  10.240 -0.6041  0.2869 -0.5502
   86SAPS   H3Y 8232   2.344   3.573  10.195 -0.9935 -0.9220  2.4105
   86SAPS   C34 8233   2.210   3.598  10.032  0.1101  0.9415  0.6754
   86SAPS   H4X 8234   2.270   3.650   9.954 -1.5016 -0.6304 -1.7492
   86SAPS   H4Y 8235   2.107   3.638  10.018 -0.8306 -1.8006 -0.9629
   86SAPS   C35 8236   2.217   3.448   9.990 -0.0068  0.7462 -1.5066
   86SAPS   H5X 8237   2.155   3.387  10.059  0.4471 -0.5799 -2.2463
   86SAPS   H5Y 8238   2.322   3.413   9.996 -0.0451  0.8614  1.3276
   86SAPS   C36 8239   2.144   3.428   9.856 -0.2465  0.0689  0.0396
   86SAPS   H6X 8240   2.041   3.468   9.873 -0.4418 -0.9782  1.5413
   86SAPS   H6Y 8241   2.124   3.319   9.842  1.1085 -0.2079  0.1828
   86SAPS   C37 8242   2.190   3.497   9.730  0.0657  0.0929 -0.5281
   86SAPS   H7X 8243   2.300   3.479   9.719  0.3841  0.3894  1.6216
   86SAPS   H7Y 8244   2.160   3.603   9.737 -2.5397 -0.6484  1.1559
   86SAPS   C38 8245   2.129   3.444   9.600  1.1352  0.2721  0.1226
   86SAPS   H8X 8246   2.019   3.446   9.606  1.2039  0.6681  1.9293
   86SAPS   H8Y 8247   2.166   3.339   9.599  0.5272  0.0018  1.9291
   86SAPS   C39 8248   2.190   3.510   9.479 -0.1553  0.1841  0.1370
   86SAPS   H9X 8249   2.299   3.509   9.496  0.1642  1.6736 -1.5708
   86SAPS   H9Y 8250   2.160   3.617   9.475  2.2665  0.9262  0.6918
   86SAPS  C310 8251   2.142   3.453   9.340  0.1822  0.2906 -0.0297
   86SAPS  H10X 8252   2.040   3.492   9.320  0.0992  1.1589  1.8628
   86SAPS  H10Y 8253   2.150   3.342   9.342  0.9862  0.3571  0.7211
   86SAPS  C311 8254   2.227   3.494   9.221 -0.3563 -0.1089 -0.1971
   86SAPS  H11X 8255   2.332   3.473   9.250 -0.0186  1.3249 -0.2991
   86SAPS  H11Y 8256   2.216   3.605   9.214 -0.0818 -0.2031 -3.3677
   86SAPS  C312 8257   2.192   3.433   9.083 -0.4330 -0.2051  0.6414
   86SAPS  H12X 8258   2.083   3.435   9.064  0.0659 -2.2256 -3.7123
   86SAPS  H12Y 8259   2.222   3.326   9.082  0.1420 -0.0666  1.7207
   86SAPS  C313 8260   2.251   3.512   8.961  0.3057  0.3055  0.0823
   86SAPS  H13X 8261   2.331   3.583   8.988 -1.8918  2.3088  1.7415
   86SAPS  H13Y 8262   2.163   3.575   8.934 -0.7793 -0.3952  1.8150
   86SAPS  C314 8263   2.285   3.422   8.843 -0.5590 -0.4735 -0.7627
   86SAPS  H14X 8264   2.278   3.485   8.752 -0.5623  1.2682  0.4051
   86SAPS  H14Y 8265   2.205   3.347   8.829 -1.5274 -0.5132  3.7020
   86SAPS  C315 8266   2.428   3.376   8.872 -0.4192  0.4749  0.4477
   86SAPS  H15X 8267   2.426   3.280   8.928 -0.5240 -0.1057 -0.5193
   86SAPS  H15Y 8268   2.477   3.440   8.949  3.3717  1.6980 -2.6401
   86SAPS  C316 8269   2.521   3.375   8.749  0.6581  0.4394 -0.6263
   86SAPS  H16X 8270   2.539   3.484   8.744  1.0087  0.4637  0.7891
   86SAPS  H16Y 8271   2.477   3.341   8.652  1.1587  0.2200 -0.7778
   86SAPS  C317 8272   2.662   3.307   8.763  0.4282 -0.3065 -0.1871
   86SAPS  H17X 8273   2.627   3.202   8.780  1.2227 -0.4299  0.7860
   86SAPS  H17Y 8274   2.704   3.344   8.859  2.3604 -2.3830 -0.1536
   86SAPS  C318 8275   2.764   3.314   8.654 -0.5613  0.6390 -0.1752
   86SAPS  H18X 8276   2.731   3.265   8.560 -3.8265  1.1954  0.5716
   86SAPS  H18Y 8277   2.864   3.281   8.690 -1.4871 -0.7414  1.2877
   86SAPS  H18Z 8278   2.763   3.419   8.618 -1.9096 -0.0442 -2.3259
   87SAPS     N 8279   3.254   4.236  10.876 -0.2765  0.4635 -1.0309
   87SAPS   HN1 8280   3.301   4.183  10.800  0.0222 -0.2752 -0.3493
   87SAPS   HN2 8281   3.262   4.335  10.847 -0.6898  0.4030 -1.3685
   87SAPS   HN3 8282   3.308   4.232  10.964 -2.8942 -0.0808  0.6674
   87SAPS   C12 8283   3.117   4.188  10.882  0.0946 -0.1389 -0.2784
   87SAPS  H12A 8284   3.080   4.185  10.781  1.0907  0.1334 -0.6708
   87SAPS   C13 8285   3.104   4.053  10.955  0.1034  0.3773  0.9975
   87SAPS  O13A 8286   3.207   3.996  11.001 -0.0042  0.5897 -0.2025
   87SAPS  O13B 8287   2.997   3.989  10.944  0.3389  0.0986 -0.1963
   87SAPS   C11 8288   3.045   4.289  10.973 -0.0977 -0.8944 -0.1047
   87SAPS  H11A 8289   3.091   4.295  11.074 -1.0890 -2.0861  0.4440
   87SAPS  H11B 8290   2.942   4.251  10.994  0.3653 -2.0882  0.0953
   87SAPS     P 8291   2.923   4.479  10.842 -0.5385 -0.3385  0.0682
   87SAPS   O13 8292   2.803   4.457  10.926 -0.2065  0.1814  0.1528
   87SAPS   O14 8293   2.942   4.621  10.813  0.0243  0.3579 -0.6017
   87SAPS   O12 8294   3.047   4.417  10.912  0.5429 -0.1573  0.4592
   87SAPS   O11 8295   2.911   4.388  10.706  0.1505 -0.4403 -0.2362
   87SAPS    C1 8296   2.804   4.303  10.685  0.0177  0.0254 -0.2039
   87SAPS    HA 8297   2.800   4.217  10.755  0.3047 -0.9023 -1.2939
   87SAPS    HB 8298   2.717   4.371  10.673  1.2265  1.7314  0.3729
   87SAPS    C2 8299   2.820   4.236  10.542  0.1878 -0.5298  0.4241
   87SAPS    HS 8300   2.917   4.181  10.542  1.1454  1.0993  0.3553
   87SAPS   O21 8301   2.838   4.341  10.444 -0.3666  0.4530  0.2928
   87SAPS   C21 8302   2.745   4.412  10.396 -0.5468  0.1220 -0.0208
   87SAPS   O22 8303   2.628   4.418  10.438 -0.0732  0.0683  0.3308
   87SAPS   C22 8304   2.792   4.472  10.262 -0.2016  0.3221  0.5376
   87SAPS   H2R 8305   2.723   4.547  10.217  1.3780  0.7152 -1.4084
   87SAPS   H2S 8306   2.884   4.530  10.283 -0.6056  0.9373  0.6239
   87SAPS    C3 8307   2.709   4.138  10.512  0.1321  0.5624  0.5066
   87SAPS    HX 8308   2.610   4.184  10.532 -0.0249  0.8965 -0.9819
   87SAPS    HY 8309   2.722   4.049  10.578  2.4342 -1.3829 -2.3515
   87SAPS   O31 8310   2.713   4.090  10.373  0.0440 -0.7040 -0.3494
   87SAPS   C31 8311   2.779   3.979  10.352 -0.7599  0.3027  0.1651
   87SAPS   O32 8312   2.858   3.927  10.433  0.0461  0.2359 -0.2393
   87SAPS   C32 8313   2.768   3.936  10.205  0.3811 -0.3015 -0.6399
   87SAPS   H2X 8314   2.853   3.867  10.189  0.5014 -0.6935  1.4778
   87SAPS   H2Y 8315   2.779   4.024  10.139  0.3108 -0.6781 -1.1634
   87SAPS   C23 8316   2.812   4.362  10.154  0.2925 -0.6802  0.4852
   87SAPS   H3R 8317   2.719   4.308  10.126  1.3977 -0.8097 -3.5629
   87SAPS   H3S 8318   2.890   4.291  10.189 -0.9066 -0.2110  4.5982
   87SAPS   C24 8319   2.871   4.428  10.027  0.6246 -0.0229 -0.1681
   87SAPS   H4R 8320   2.962   4.483  10.057  1.0916 -1.4408  1.1480
   87SAPS   H4S 8321   2.802   4.510   9.996 -0.4837  0.4783  3.2290
   87SAPS   C25 8322   2.891   4.331   9.915 -0.4913 -0.8350  0.3734
   87SAPS   H5R 8323   2.961   4.250   9.942  0.2366  0.1444  1.5450
   87SAPS   C26 8324   2.850   4.344   9.786  0.5009 -0.3547  0.3598
   87SAPS   H6R 8325   2.878   4.271   9.709 -2.4988 -0.3135 -0.8959
   87SAPS   C27 8326   2.773   4.467   9.741 -0.1242  0.4741 -0.0260
   87SAPS   H7R 8327   2.690   4.499   9.808 -1.2469 -0.5906 -0.8589
   87SAPS   H7S 8328   2.726   4.430   9.647  0.8537 -0.3405 -0.2123
   87SAPS   C28 8329   2.874   4.574   9.723 -0.4261  0.0131  0.6989
   87SAPS   H8R 8330   2.901   4.642   9.805 -1.8174  1.1238  0.2772
   87SAPS   C29 8331   2.948   4.602   9.609  0.6575  0.3252  1.1552
   87SAPS   H9R 8332   3.022   4.683   9.609  1.6410 -0.4878 -0.9791
   87SAPS  C210 8333   2.924   4.525   9.481  0.5096  0.3826  0.0059
   87SAPS  H10R 8334   2.817   4.529   9.451  0.4654 -2.4597 -0.5180
   87SAPS  H10S 8335   2.942   4.416   9.491  1.8914  0.4712 -1.1543
   87SAPS  C211 8336   2.997   4.564   9.358 -0.4048  0.5943  0.1993
   87SAPS  H11R 8337   2.919   4.578   9.282 -1.0728 -2.3776  0.2321
   87SAPS  C212 8338   3.129   4.589   9.340  0.1103  1.1538 -0.1720
   87SAPS  H12R 8339   3.167   4.635   9.247  0.1663  1.0803 -0.1864
   87SAPS  C213 8340   3.238   4.573   9.446 -0.0116 -0.0210  0.0844
   87SAPS  H13R 8341   3.304   4.487   9.425 -0.7001 -0.2112 -1.4208
   87SAPS  H13S 8342   3.203   4.549   9.548  0.6419 -1.2359  0.0320
   87SAPS  C214 8343   3.326   4.694   9.446  0.1254  0.3092  0.0404
   87SAPS  H14R 8344   3.301   4.754   9.534 -0.6590 -1.2605  0.9358
   87SAPS  C215 8345   3.423   4.729   9.357  0.3413  0.1383 -0.0198
   87SAPS  H15R 8346   3.468   4.829   9.362  2.8417 -0.8701 -0.6932
   87SAPS  C216 8347   3.477   4.652   9.240 -0.0258  0.1809 -0.0711
   87SAPS  H16R 8348   3.452   4.545   9.253 -2.2273  0.7487  0.8315
   87SAPS  H16S 8349   3.587   4.668   9.253 -0.0229  0.8264 -0.8245
   87SAPS  C217 8350   3.425   4.691   9.099 -0.3257  0.2270  0.2471
   87SAPS  H17R 8351   3.405   4.800   9.094 -0.5190  0.1442 -1.1466
   87SAPS  H17S 8352   3.321   4.652   9.090 -0.2274  0.1166 -0.4575
   87SAPS  C218 8353   3.497   4.619   8.989  0.0947 -0.0024 -0.5150
   87SAPS  H18R 8354   3.482   4.512   9.014  1.0770  0.1607  0.9095
   87SAPS  H18S 8355   3.607   4.634   8.997  0.3448 -2.3928  2.1234
   87SAPS  C219 8356   3.434   4.656   8.858 -0.5493  0.2121  0.0376
   87SAPS  H19R 8357   3.436   4.767   8.846  0.1639  0.1988 -0.0674
   87SAPS  H19S 8358   3.326   4.632   8.855 -0.1183 -1.8949 -0.6232
   87SAPS  C220 8359   3.503   4.602   8.728  0.2386  0.1324 -0.0373
   87SAPS  H20R 8360   3.437   4.621   8.641  1.6181  2.8760 -0.5897
   87SAPS  H20S 8361   3.518   4.492   8.721 -1.1213  0.0467 -2.8561
   87SAPS  H20T 8362   3.602   4.643   8.698  0.4405 -0.1595  0.2171
   87SAPS   C33 8363   2.632   3.877  10.173  0.1283 -0.0443 -0.1721
   87SAPS   H3X 8364   2.557   3.940  10.225  0.3472 -1.3940  1.9256
   87SAPS   H3Y 8365   2.613   3.779  10.221  2.5174 -0.0668  0.9233
   87SAPS   C34 8366   2.615   3.847  10.020  1.4842  0.4098 -0.4777
   87SAPS   H4X 8367   2.553   3.756  10.015 -0.6329  1.7439  0.3668
   87SAPS   H4Y 8368   2.714   3.827   9.974  0.9484  1.4004 -2.1412
   87SAPS   C35 8369   2.535   3.960   9.950  0.4053 -0.5857  0.0362
   87SAPS   H5X 8370   2.609   4.042   9.935 -1.7289  1.4964  0.2444
   87SAPS   H5Y 8371   2.462   3.999  10.024  0.4446  2.2481 -1.2913
   87SAPS   C36 8372   2.467   3.925   9.821 -0.0723  0.6723  0.1489
   87SAPS   H6X 8373   2.404   4.012   9.795  0.1514  1.0298  0.7833
   87SAPS   H6Y 8374   2.407   3.833   9.841 -0.7543  0.7642 -1.3498
   87SAPS   C37 8375   2.557   3.923   9.695  0.3858  0.9480  0.4165
   87SAPS   H7X 8376   2.628   3.839   9.710 -0.5391  0.0085 -0.3306
   87SAPS   H7Y 8377   2.616   4.017   9.685 -0.2400  1.1436 -2.2386
   87SAPS   C38 8378   2.475   3.899   9.570 -0.0052 -0.1352  0.7261
   87SAPS   H8X 8379   2.398   3.978   9.575 -0.6786 -0.6053 -1.3359
   87SAPS   H8Y 8380   2.416   3.805   9.573 -0.6458  0.2938  1.8048
   87SAPS   C39 8381   2.551   3.913   9.438 -0.7410  0.0373  0.2555
   87SAPS   H9X 8382   2.630   3.837   9.425 -1.2124 -0.3337 -0.5006
   87SAPS   H9Y 8383   2.604   4.010   9.445 -1.4942  0.6083 -1.3768
   87SAPS  C310 8384   2.458   3.913   9.320  0.4878  0.4505 -0.1264
   87SAPS  H10X 8385   2.375   3.982   9.347  0.7868  0.0862  1.8240
   87SAPS  H10Y 8386   2.430   3.806   9.306  1.7504 -0.3467  2.6796
   87SAPS  C311 8387   2.524   3.956   9.193 -0.4961 -0.2872  0.0095
   87SAPS  H11X 8388   2.616   3.894   9.186  0.5829  1.2401  0.0394
   87SAPS  H11Y 8389   2.567   4.058   9.206 -0.2284 -0.5035  0.8597
   87SAPS  C312 8390   2.433   3.967   9.068 -0.7181  0.0613 -0.7326
   87SAPS  H12X 8391   2.331   4.010   9.080 -0.2818  1.4188 -1.6305
   87SAPS  H12Y 8392   2.420   3.861   9.040  0.4425 -0.2227 -0.2386
   87SAPS  C313 8393   2.510   4.020   8.941 -0.4575  0.0548 -0.5091
   87SAPS  H13X 8394   2.597   3.959   8.909  0.6200  1.1537  0.2261
   87SAPS  H13Y 8395   2.552   4.121   8.959  0.4716 -0.3716 -0.2144
   87SAPS  C314 8396   2.413   4.017   8.823 -0.2058 -0.4744  0.2282
   87SAPS  H14X 8397   2.363   3.918   8.814 -2.7465  0.8802 -2.2378
   87SAPS  H14Y 8398   2.475   4.017   8.731  1.4055  0.5078  1.2701
   87SAPS  C315 8399   2.317   4.133   8.817 -0.0140  0.2960 -0.1478
   87SAPS  H15X 8400   2.367   4.231   8.833 -0.9192  0.2796  3.5982
   87SAPS  H15Y 8401   2.250   4.126   8.905  2.3727 -0.0663  1.7392
   87SAPS  C316 8402   2.238   4.130   8.688 -0.0244 -0.1215 -0.0558
   87SAPS  H16X 8403   2.179   4.036   8.686  0.9719 -0.7814  0.6148
   87SAPS  H16Y 8404   2.290   4.135   8.590 -2.3966 -0.8280 -1.4208
   87SAPS  C317 8405   2.140   4.246   8.686 -0.4006  0.5520 -0.3747
   87SAPS  H17X 8406   2.103   4.257   8.790 -0.4525 -3.0833  0.0981
   87SAPS  H17Y 8407   2.056   4.213   8.622 -1.0479  1.1470  0.1464
   87SAPS  C318 8408   2.191   4.381   8.631 -0.6154  0.0164  0.4939
   87SAPS  H18X 8409   2.104   4.442   8.598  0.7242  2.3317  0.9979
   87SAPS  H18Y 8410   2.269   4.367   8.552  0.7208 -1.1122  1.9511
   87SAPS  H18Z 8411   2.244   4.440   8.709  1.2388  1.3150 -1.6075
   88SAPS     N 8412   4.484   3.831  10.942 -0.5771 -0.6204  0.5381
   88SAPS   HN1 8413   4.517   3.817  11.040 -0.9250  0.4507  0.8256
   88SAPS   HN2 8414   4.382   3.845  10.952 -0.5630 -0.3144  0.2684
   88SAPS   HN3 8415   4.499   3.750  10.878 -0.0868 -0.4174  0.3857
   88SAPS   C12 8416   4.563   3.950  10.892 -0.0359 -0.1104 -0.3481
   88SAPS  H12A 8417   4.528   3.959  10.790  0.3967 -0.6183 -0.5512
   88SAPS   C13 8418   4.553   4.080  10.975  0.0109  0.6887  0.1348
   88SAPS  O13A 8419   4.518   4.077  11.095  0.0609 -0.0709  0.2493
   88SAPS  O13B 8420   4.565   4.187  10.915 -0.5629  0.3947  0.6572
   88SAPS   C11 8421   4.717   3.905  10.899 -0.4981 -0.2746  0.7459
   88SAPS  H11A 8422   4.734   3.892  11.008 -0.3341 -0.8197  0.6550
   88SAPS  H11B 8423   4.776   3.995  10.872 -1.1921  0.0039  0.1231
   88SAPS     P 8424   4.761   3.823  10.657  0.1032  0.0265 -0.2192
   88SAPS   O13 8425   4.763   3.967  10.627 -0.4461 -0.5406  0.2666
   88SAPS   O14 8426   4.876   3.751  10.596  0.0901 -0.3052  0.0014
   88SAPS   O12 8427   4.749   3.793  10.817 -0.2423 -0.5878  0.1649
   88SAPS   O11 8428   4.617   3.768  10.617  0.5808  0.7241 -0.3691
   88SAPS    C1 8429   4.612   3.670  10.514  0.1569 -0.3763 -0.5382
   88SAPS    HA 8430   4.681   3.584  10.531 -0.2691 -0.3785  1.3901
   88SAPS    HB 8431   4.511   3.623  10.505 -0.1286  0.1239  0.0409
   88SAPS    C2 8432   4.637   3.737  10.379 -0.0472  0.1719  0.1537
   88SAPS    HS 8433   4.739   3.782  10.388  0.0781  0.1886 -1.1583
   88SAPS   O21 8434   4.534   3.834  10.354 -0.0652 -0.4357  0.2688
   88SAPS   C21 8435   4.573   3.950  10.299  0.2171  1.4007  0.0759
   88SAPS   O22 8436   4.692   3.969  10.276  0.1747 -0.4024 -0.0004
   88SAPS   C22 8437   4.456   4.037  10.278 -0.7309 -0.0731 -0.1151
   88SAPS   H2R 8438   4.383   4.015  10.359 -0.6073 -2.4120 -0.5697
   88SAPS   H2S 8439   4.489   4.142  10.291 -1.5501  0.1495  0.2545
   88SAPS    C3 8440   4.627   3.624  10.268  0.4777 -0.1588 -0.3300
   88SAPS    HX 8441   4.522   3.588  10.260  1.1737 -2.1222 -1.3862
   88SAPS    HY 8442   4.696   3.541  10.290 -1.1074 -1.8219 -1.3307
   88SAPS   O31 8443   4.654   3.683  10.141  0.2162 -0.0886 -0.5088
   88SAPS   C31 8444   4.782   3.696  10.114 -0.0634  0.0624  0.5916
   88SAPS   O32 8445   4.870   3.660  10.188 -1.1303  0.2474  0.8425
   88SAPS   C32 8446   4.794   3.755   9.976 -0.1102  0.4974  0.0440
   88SAPS   H2X 8447   4.901   3.781   9.962  0.2696 -1.5374 -1.2098
   88SAPS   H2Y 8448   4.730   3.846   9.970 -0.0895  0.4716 -0.6102
   88SAPS   C23 8449   4.390   4.015  10.147  0.7427 -0.3602 -0.6190
   88SAPS   H3R 8450   4.285   4.050  10.135  1.7093  2.4109 -2.0682
   88SAPS   H3S 8451   4.381   3.905  10.147 -3.7406 -0.2022  0.3176
   88SAPS   C24 8452   4.477   4.067  10.027  0.9700  0.0078  0.5422
   88SAPS   H4R 8453   4.462   3.998   9.942 -3.2914 -0.0667  1.1518
   88SAPS   H4S 8454   4.585   4.072  10.054  1.6414 -0.9744 -1.7261
   88SAPS   C25 8455   4.443   4.211   9.987  0.5702 -0.0710  0.0119
   88SAPS   H5R 8456   4.488   4.291  10.047  0.2595  1.6662 -1.9670
   88SAPS   C26 8457   4.371   4.252   9.879  0.3794 -0.5747 -0.5060
   88SAPS   H6R 8458   4.351   4.359   9.867 -1.9182 -0.7307  1.2918
   88SAPS   C27 8459   4.298   4.164   9.781 -0.2621  0.1985  0.6201
   88SAPS   H7R 8460   4.259   4.071   9.828  0.3867  0.4469  1.6685
   88SAPS   H7S 8461   4.368   4.137   9.699 -0.1685  1.5011  0.2482
   88SAPS   C28 8462   4.181   4.232   9.705 -0.2445  0.1643 -0.1190
   88SAPS   H8R 8463   4.095   4.263   9.766  0.9736  0.5898  1.4624
   88SAPS   C29 8464   4.177   4.263   9.572 -0.1104 -0.0888 -0.0162
   88SAPS   H9R 8465   4.089   4.315   9.530  0.2184 -0.0653 -0.6837
   88SAPS  C210 8466   4.287   4.231   9.478 -0.1804 -0.7121 -0.0523
   88SAPS  H10R 8467   4.297   4.120   9.471 -2.4883 -1.0624  1.3050
   88SAPS  H10S 8468   4.382   4.284   9.500  0.2291 -1.0217 -1.0132
   88SAPS  C211 8469   4.260   4.289   9.342 -0.4435  0.0861  0.2930
   88SAPS  H11R 8470   4.206   4.385   9.332 -0.8363 -0.1934 -0.3386
   88SAPS  C212 8471   4.294   4.224   9.225  0.2745  0.5876  0.0592
   88SAPS  H12R 8472   4.257   4.277   9.136 -1.2349  1.7415  1.3045
   88SAPS  C213 8473   4.373   4.100   9.208  0.3497 -0.9522  0.0230
   88SAPS  H13R 8474   4.389   4.037   9.299  2.8407  0.5346  0.7134
   88SAPS  H13S 8475   4.475   4.142   9.200  0.6780 -1.9565 -1.3134
   88SAPS  C214 8476   4.332   4.013   9.092 -0.7048  0.4964  0.4745
   88SAPS  H14R 8477   4.238   3.961   9.116 -0.7956 -0.5422 -1.8155
   88SAPS  C215 8478   4.402   4.000   8.976 -0.1859 -0.6156  0.4524
   88SAPS  H15R 8479   4.368   3.933   8.895 -1.7342  0.1685  0.4183
   88SAPS  C216 8480   4.535   4.071   8.949 -0.4828 -1.1709 -0.6919
   88SAPS  H16R 8481   4.617   4.006   8.985 -1.3456  0.0504  4.1750
   88SAPS  H16S 8482   4.550   4.165   9.007 -1.9775  0.8483 -3.2876
   88SAPS  C217 8483   4.552   4.117   8.805 -0.3979  0.4580 -0.6519
   88SAPS  H17R 8484   4.630   4.196   8.808 -0.3549  0.3884  0.2702
   88SAPS  H17S 8485   4.456   4.159   8.767 -2.3284 -0.9408  2.3060
   88SAPS  C218 8486   4.609   4.004   8.714  0.0242 -0.7236 -0.8841
   88SAPS  H18R 8487   4.529   3.927   8.716 -0.2249 -0.5215  1.9307
   88SAPS  H18S 8488   4.697   3.951   8.758  0.0402  0.7595  1.0203
   88SAPS  C219 8489   4.633   4.034   8.569 -0.2963 -0.2269 -0.6083
   88SAPS  H19R 8490   4.558   4.112   8.543  1.5021  2.0321  0.5936
   88SAPS  H19S 8491   4.625   3.946   8.502 -1.4747 -1.1050  0.6435
   88SAPS  C220 8492   4.767   4.103   8.548  0.4658  0.6102 -0.9008
   88SAPS  H20R 8493   4.774   4.202   8.597 -0.2221  1.3089 -2.1415
   88SAPS  H20S 8494   4.783   4.128   8.441 -1.7701  0.1478 -1.3902
   88SAPS  H20T 8495   4.850   4.036   8.577 -0.6057  0.2114  1.5098
   88SAPS   C33 8496   4.749   3.664   9.861 -0.2156 -0.0221 -0.5761
   88SAPS   H3X 8497   4.757   3.704   9.757 -4.0562 -2.5206 -2.0272
   88SAPS   H3Y 8498   4.647   3.622   9.872 -0.2617  0.2311 -0.0057
   88SAPS   C34 8499   4.836   3.537   9.845 -0.2039 -0.4713  0.0588
   88SAPS   H4X 8500   4.779   3.471   9.776 -2.5186 -0.0608  1.4846
   88SAPS   H4Y 8501   4.839   3.464   9.928 -0.8532 -2.5743 -1.6510
   88SAPS   C35 8502   4.985   3.561   9.812  0.8711 -0.3122  0.3793
   88SAPS   H5X 8503   5.032   3.461   9.810 -1.2406 -1.3567 -0.7864
   88SAPS   H5Y 8504   5.043   3.607   9.895  0.5523 -2.4723  1.8686
   88SAPS   C36 8505   5.008   3.625   9.673 -0.7886 -0.0721  0.2285
   88SAPS   H6X 8506   4.976   3.730   9.693  1.1265  1.1376 -2.4745
   88SAPS   H6Y 8507   4.954   3.578   9.589 -0.9637 -1.6416  1.1800
   88SAPS   C37 8508   5.168   3.634   9.646 -0.2980 -1.3675  0.6374
   88SAPS   H7X 8509   5.190   3.526   9.631 -2.5381 -1.8453  0.2954
   88SAPS   H7Y 8510   5.214   3.682   9.735 -0.3539 -3.8387  2.1037
   88SAPS   C38 8511   5.193   3.707   9.513  0.1290  0.3896 -0.4958
   88SAPS   H8X 8512   5.141   3.804   9.526  2.3790  1.8397 -1.5833
   88SAPS   H8Y 8513   5.140   3.657   9.430 -3.4395  0.4857  1.5491
   88SAPS   C39 8514   5.340   3.742   9.483  0.2300 -0.0345  0.0326
   88SAPS   H9X 8515   5.403   3.658   9.448  0.3010 -0.1878  0.5247
   88SAPS   H9Y 8516   5.386   3.765   9.581  1.0798 -3.0439  0.4168
   88SAPS  C310 8517   5.341   3.857   9.379 -0.0981  0.4327  0.6524
   88SAPS  H10X 8518   5.420   3.931   9.404 -0.8169  1.3272  0.3538
   88SAPS  H10Y 8519   5.249   3.916   9.403 -1.6182 -1.1185 -1.0804
   88SAPS  C311 8520   5.344   3.824   9.233  0.8313  0.3786 -0.3333
   88SAPS  H11X 8521   5.319   3.918   9.180  0.5261 -0.2484 -1.3483
   88SAPS  H11Y 8522   5.258   3.756   9.215  0.9762  0.4225 -1.2558
   88SAPS  C312 8523   5.473   3.755   9.177 -0.1100  0.1208 -0.0742
   88SAPS  H12X 8524   5.500   3.679   9.255 -1.4297  1.0104  1.3106
   88SAPS  H12Y 8525   5.549   3.834   9.166  0.7498 -0.8464 -1.3490
   88SAPS  C313 8526   5.459   3.683   9.044  0.3647 -0.6991  0.7280
   88SAPS  H13X 8527   5.396   3.591   9.053 -0.9034  0.1824  1.0619
   88SAPS  H13Y 8528   5.559   3.645   9.012 -0.9295 -2.2683 -1.7934
   88SAPS  C314 8529   5.418   3.771   8.924  0.2753  0.5798 -0.8303
   88SAPS  H14X 8530   5.494   3.849   8.901  0.4456  0.4874 -0.5789
   88SAPS  H14Y 8531   5.314   3.807   8.928 -0.2982 -0.9513 -1.1787
   88SAPS  C315 8532   5.396   3.692   8.794 -0.5299  0.4913 -0.4264
   88SAPS  H15X 8533   5.323   3.608   8.792  2.0661 -1.9240 -2.9176
   88SAPS  H15Y 8534   5.488   3.641   8.758 -1.6968 -0.1671 -2.6695
   88SAPS  C316 8535   5.363   3.787   8.679 -0.7032  0.1227 -0.6388
   88SAPS  H16X 8536   5.342   3.723   8.591  0.9822 -1.7082  0.2298
   88SAPS  H16Y 8537   5.452   3.851   8.662  0.2778 -0.4133  2.0572
   88SAPS  C317 8538   5.241   3.871   8.697  0.4371  0.4690  0.0417
   88SAPS  H17X 8539   5.229   3.928   8.602 -2.0524 -1.0104 -0.6112
   88SAPS  H17Y 8540   5.242   3.936   8.788 -0.9522 -0.5057  0.7871
   88SAPS  C318 8541   5.118   3.782   8.698 -0.1269  0.3696 -0.3007
   88SAPS  H18X 8542   5.132   3.683   8.746 -0.7561 -0.3188 -1.4837
   88SAPS  H18Y 8543   5.103   3.752   8.592  0.3855  0.1069 -0.2986
   88SAPS  H18Z 8544   5.026   3.828   8.740 -0.2619 -0.6399  0.5454
   89SAPS     N 8545   5.333   5.132  10.773  0.4824 -0.0456  0.2440
   89SAPS   HN1 8546   5.382   5.075  10.701 -0.9140 -0.8688 -0.0888
   89SAPS   HN2 8547   5.317   5.079  10.861 -1.8611  1.0548  0.5480
   89SAPS   HN3 8548   5.236   5.149  10.741 -0.4362 -2.1004  1.6847
   89SAPS   C12 8549   5.398   5.258  10.820 -0.0424 -0.1028 -0.1767
   89SAPS  H12A 8550   5.330   5.309  10.886 -2.1955 -0.7415 -1.8125
   89SAPS   C13 8551   5.528   5.230  10.903 -0.6276 -0.6133  0.0306
   89SAPS  O13A 8552   5.537   5.122  10.962 -0.0323  0.1242 -0.9659
   89SAPS  O13B 8553   5.596   5.326  10.946 -0.0889 -0.3657  0.2838
   89SAPS   C11 8554   5.433   5.350  10.708  0.4235  0.3199 -0.0764
   89SAPS  H11A 8555   5.503   5.300  10.638  0.0138 -1.2696  0.6186
   89SAPS  H11B 8556   5.482   5.441  10.749  0.2675  1.2373 -1.8051
   89SAPS     P 8557   5.313   5.495  10.521 -0.1007  0.1028 -0.0926
   89SAPS   O13 8558   5.189   5.574  10.515 -0.0988 -0.1544 -0.6395
   89SAPS   O14 8559   5.441   5.570  10.522 -0.1960 -0.0382  0.7111
   89SAPS   O12 8560   5.317   5.396  10.640 -0.1127  0.0690 -0.7589
   89SAPS   O11 8561   5.317   5.401  10.394  0.0582 -0.4312 -0.4279
   89SAPS    C1 8562   5.429   5.361  10.315 -0.0664 -0.3661 -0.0196
   89SAPS    HA 8563   5.457   5.444  10.246 -1.9385 -0.5934 -1.0992
   89SAPS    HB 8564   5.520   5.328  10.371  0.4122 -1.4189 -1.3756
   89SAPS    C2 8565   5.383   5.238  10.229 -0.3385  0.1952  0.1403
   89SAPS    HS 8566   5.451   5.233  10.141  0.7246 -0.2194  0.9656
   89SAPS   O21 8567   5.247   5.255  10.181 -0.2666  0.5445 -0.4692
   89SAPS   C21 8568   5.245   5.338  10.081 -0.8569 -0.0757  0.4959
   89SAPS   O22 8569   5.341   5.374  10.016 -0.2765 -0.2780 -0.6958
   89SAPS   C22 8570   5.102   5.386  10.061 -0.2770  0.2090 -0.2554
   89SAPS   H2R 8571   5.032   5.307  10.096  0.2570  0.2153  0.8867
   89SAPS   H2S 8572   5.088   5.471  10.131 -0.7128 -1.1122  1.3330
   89SAPS    C3 8573   5.390   5.097  10.299 -0.2569  0.0422  0.0512
   89SAPS    HX 8574   5.326   5.092  10.389  0.7793  0.7205  0.8546
   89SAPS    HY 8575   5.492   5.077  10.339  0.2207  0.6743 -0.7975
   89SAPS   O31 8576   5.351   4.996  10.201  0.0404 -0.2851 -0.0169
   89SAPS   C31 8577   5.302   4.881  10.235  0.6289 -0.0483  0.0012
   89SAPS   O32 8578   5.289   4.835  10.344  0.3168 -0.2035 -0.2043
   89SAPS   C32 8579   5.266   4.807  10.097  0.2733 -0.2925  0.4832
   89SAPS   H2X 8580   5.167   4.760  10.116 -1.5083  2.8687 -0.3367
   89SAPS   H2Y 8581   5.352   4.738  10.085  0.3729 -0.1623  0.4492
   89SAPS   C23 8582   5.067   5.429   9.913 -0.4427 -0.6150 -0.2230
   89SAPS   H3R 8583   5.153   5.486   9.872 -0.8982 -0.5844 -1.1630
   89SAPS   H3S 8584   4.982   5.501   9.922  0.3231  0.3124 -0.3033
   89SAPS   C24 8585   5.035   5.324   9.818 -0.1077  0.0816  0.0519
   89SAPS   H4R 8586   4.992   5.372   9.728  0.6851 -1.8299 -1.4415
   89SAPS   H4S 8587   4.960   5.255   9.861 -0.8439 -0.1198 -1.4756
   89SAPS   C25 8588   5.148   5.240   9.758 -0.6039 -0.2922 -0.5585
   89SAPS   H5R 8589   5.243   5.238   9.813 -1.0788  1.0859  0.3487
   89SAPS   C26 8590   5.136   5.167   9.641 -0.5656 -0.1195 -0.1468
   89SAPS   H6R 8591   5.215   5.099   9.608 -0.5480  0.6307 -1.7598
   89SAPS   C27 8592   5.010   5.180   9.552 -0.2617 -0.8414 -0.3749
   89SAPS   H7R 8593   4.915   5.207   9.601  0.3194  0.8636 -0.1106
   89SAPS   H7S 8594   5.005   5.087   9.490  0.1347  0.6044 -2.6934
   89SAPS   C28 8595   5.045   5.292   9.454  0.3756 -0.0511  0.6659
   89SAPS   H8R 8596   5.080   5.384   9.503  2.5693 -0.9842  0.9829
   89SAPS   C29 8597   5.027   5.296   9.322 -0.6047 -0.9772  0.1846
   89SAPS   H9R 8598   5.061   5.389   9.274 -0.6811  0.4458  2.7212
   89SAPS  C210 8599   4.973   5.177   9.242 -0.0762  0.2961 -0.0933
   89SAPS  H10R 8600   4.871   5.152   9.276  0.6665 -1.5369  0.9321
   89SAPS  H10S 8601   5.032   5.090   9.276  0.8937  2.0369  3.0805
   89SAPS  C211 8602   4.983   5.186   9.091  0.1993 -0.1401 -0.4648
   89SAPS  H11R 8603   4.884   5.178   9.043 -1.4615  1.4285  2.3773
   89SAPS  C212 8604   5.100   5.210   9.025 -0.6091 -0.5885  0.4988
   89SAPS  H12R 8605   5.108   5.201   8.915  2.5757  0.5143  0.5212
   89SAPS  C213 8606   5.238   5.229   9.081  0.1254  0.3266  0.5036
   89SAPS  H13R 8607   5.313   5.159   9.037 -2.0641 -1.5107 -0.4919
   89SAPS  H13S 8608   5.246   5.191   9.186  0.3775 -0.6960  0.1260
   89SAPS  C214 8609   5.290   5.369   9.058  0.5168 -0.6355 -0.9306
   89SAPS  H14R 8610   5.233   5.443   9.117 -0.4203 -1.8875 -0.1990
   89SAPS  C215 8611   5.386   5.415   8.976 -0.9866  0.3677 -0.2560
   89SAPS  H15R 8612   5.388   5.525   8.972 -3.0554  0.6944  3.3653
   89SAPS  C216 8613   5.472   5.329   8.884 -0.0576  0.8361 -0.2922
   89SAPS  H16R 8614   5.495   5.232   8.933 -4.0542  0.9732  2.3042
   89SAPS  H16S 8615   5.572   5.367   8.854  0.7966 -1.1641 -0.1617
   89SAPS  C217 8616   5.400   5.313   8.746  0.5616  0.5535  0.2026
   89SAPS  H17R 8617   5.391   5.411   8.694 -0.1597  0.3707 -0.0313
   89SAPS  H17S 8618   5.297   5.277   8.771  0.3864  0.0563 -1.1818
   89SAPS  C218 8619   5.462   5.208   8.649 -0.2632 -0.3583 -0.4298
   89SAPS  H18R 8620   5.396   5.221   8.560  0.4270  3.1165 -0.5930
   89SAPS  H18S 8621   5.452   5.105   8.689 -1.5536  0.1339  0.5942
   89SAPS  C219 8622   5.608   5.232   8.616 -0.3755 -1.0486 -0.1747
   89SAPS  H19R 8623   5.647   5.142   8.564 -0.0355 -0.9909 -0.0201
   89SAPS  H19S 8624   5.660   5.238   8.714  0.9109  0.1653 -0.8990
   89SAPS  C220 8625   5.636   5.365   8.541  0.3867 -0.7580  0.0965
   89SAPS  H20R 8626   5.567   5.379   8.456 -1.4271 -2.1475  1.2771
   89SAPS  H20S 8627   5.741   5.371   8.506 -0.0777  0.3693 -1.1983
   89SAPS  H20T 8628   5.615   5.452   8.607 -0.9832  0.0578 -1.3715
   89SAPS   C33 8629   5.237   4.895   9.976 -0.5862  0.1148  0.3081
   89SAPS   H3X 8630   5.333   4.952   9.965  1.0073 -2.7140 -1.9790
   89SAPS   H3Y 8631   5.161   4.974   9.993 -0.3683  0.6219 -0.8974
   89SAPS   C34 8632   5.211   4.820   9.845 -0.2340  0.3911  0.5788
   89SAPS   H4X 8633   5.165   4.889   9.771 -1.6327 -0.2740  0.7872
   89SAPS   H4Y 8634   5.134   4.744   9.874  1.9349 -2.5348 -0.8469
   89SAPS   C35 8635   5.328   4.740   9.788 -0.0819  0.0216  0.3681
   89SAPS   H5X 8636   5.369   4.674   9.868 -0.2157  1.5323  1.7364
   89SAPS   H5Y 8637   5.413   4.801   9.751  3.4025 -3.7476  1.3542
   89SAPS   C36 8638   5.284   4.648   9.667  0.0079 -0.8727 -0.2501
   89SAPS   H6X 8639   5.380   4.605   9.631  1.2192  0.3941  1.2888
   89SAPS   H6Y 8640   5.246   4.706   9.581  4.9973  1.7629 -1.0670
   89SAPS   C37 8641   5.194   4.531   9.715 -0.5690 -0.2690 -0.5331
   89SAPS   H7X 8642   5.096   4.562   9.758 -0.4061  0.3735 -0.6203
   89SAPS   H7Y 8643   5.246   4.481   9.799 -1.4943 -2.3912 -1.1501
   89SAPS   C38 8644   5.180   4.420   9.611 -0.6182  0.7758 -0.1236
   89SAPS   H8X 8645   5.093   4.356   9.635  0.6516 -0.5227  1.2549
   89SAPS   H8Y 8646   5.260   4.343   9.616  0.2373  1.6998  1.1104
   89SAPS   C39 8647   5.164   4.471   9.469 -0.0582 -0.7139 -0.5630
   89SAPS   H9X 8648   5.255   4.526   9.437 -1.0813  1.6821  0.3954
   89SAPS   H9Y 8649   5.079   4.542   9.466  1.1120  0.7240 -3.1112
   89SAPS  C310 8650   5.143   4.351   9.375 -0.5525  0.3252 -0.5907
   89SAPS  H10X 8651   5.052   4.297   9.408 -0.4062  0.0258 -0.6815
   89SAPS  H10Y 8652   5.223   4.275   9.381  0.8939  1.6162 -2.3252
   89SAPS  C311 8653   5.130   4.388   9.233  0.1576  0.1319 -0.5968
   89SAPS  H11X 8654   5.222   4.445   9.209  2.5167 -1.6547  3.2769
   89SAPS  H11Y 8655   5.041   4.454   9.220  0.9437  1.2529 -0.3868
   89SAPS  C312 8656   5.092   4.268   9.139 -0.0278 -0.1531 -0.3150
   89SAPS  H12X 8657   5.014   4.214   9.197  0.4920  1.5992  2.1858
   89SAPS  H12Y 8658   5.180   4.202   9.121 -0.9660 -0.7478 -3.2916
   89SAPS  C313 8659   5.048   4.311   8.997 -0.0374 -0.1587 -0.3412
   89SAPS  H13X 8660   5.099   4.402   8.959 -0.1660 -1.3140 -3.5881
   89SAPS  H13Y 8661   4.941   4.340   8.992  0.1222  0.4627 -0.2793
   89SAPS  C314 8662   5.069   4.198   8.891  0.1388  0.5159 -1.0631
   89SAPS  H14X 8663   5.010   4.109   8.921  1.6069 -1.5940 -3.9880
   89SAPS  H14Y 8664   5.172   4.158   8.899 -0.4104 -1.1859 -2.1443
   89SAPS  C315 8665   5.022   4.236   8.753  0.4884 -0.9676  0.3578
   89SAPS  H15X 8666   4.911   4.238   8.764  0.3418  1.0559 -0.8946
   89SAPS  H15Y 8667   5.049   4.147   8.692  0.7816 -1.4696  1.2111
   89SAPS  C316 8668   5.072   4.365   8.693  0.5572  0.1874  0.8257
   89SAPS  H16X 8669   5.049   4.457   8.750  0.9990  1.4313 -0.9091
   89SAPS  H16Y 8670   5.011   4.380   8.601  0.6568 -1.1005  0.5336
   89SAPS  C317 8671   5.211   4.356   8.643 -0.0955  0.7595  0.2437
   89SAPS  H17X 8672   5.234   4.302   8.550  3.2291  3.2044 -0.5383
   89SAPS  H17Y 8673   5.277   4.318   8.724 -1.2415  0.2451  0.9754
   89SAPS  C318 8674   5.272   4.495   8.621  0.4030  0.5649 -0.4328
   89SAPS  H18X 8675   5.205   4.564   8.565 -2.9332 -1.0312  1.2749
   89SAPS  H18Y 8676   5.372   4.492   8.573  0.6765 -2.9745  0.0531
   89SAPS  H18Z 8677   5.271   4.543   8.722 -2.3847 -2.6534  1.3100
   90SAPS     N 8678   0.911   3.871  10.742  0.4880 -0.3771  0.1936
   90SAPS   HN1 8679   0.868   3.906  10.830 -2.4667  0.0184 -1.2785
   90SAPS   HN2 8680   0.930   3.956  10.685 -1.8084 -0.0192 -0.1573
   90SAPS   HN3 8681   0.849   3.801  10.696 -0.9395  0.0162  1.4492
   90SAPS   C12 8682   1.040   3.798  10.781  0.1015 -0.4176 -0.1755
   90SAPS  H12A 8683   1.118   3.868  10.808  1.9329 -1.4443 -2.4031
   90SAPS   C13 8684   1.012   3.707  10.903  0.9148 -0.0276  0.2945
   90SAPS  O13A 8685   0.899   3.707  10.962 -0.2936 -0.0781 -0.8228
   90SAPS  O13B 8686   1.106   3.640  10.943 -0.6115  0.0285 -0.6921
   90SAPS   C11 8687   1.081   3.713  10.656 -0.2022 -0.4249 -0.3271
   90SAPS  H11A 8688   1.017   3.624  10.634  1.7437 -2.1295  0.5447
   90SAPS  H11B 8689   1.172   3.659  10.690  0.9836  2.2653  1.0288
   90SAPS     P 8690   1.241   3.845  10.494  0.4289 -0.2594  0.1283
   90SAPS   O13 8691   1.228   3.997  10.489 -0.2227 -0.3167 -0.3530
   90SAPS   O14 8692   1.356   3.788  10.567 -0.5259 -0.2511  0.2050
   90SAPS   O12 8693   1.100   3.792  10.538 -0.0290  0.1863 -0.2290
   90SAPS   O11 8694   1.258   3.785  10.347  0.2936 -0.0689  0.2316
   90SAPS    C1 8695   1.242   3.645  10.312 -0.5997 -0.0377 -0.4225
   90SAPS    HA 8696   1.269   3.583  10.401 -0.7884  0.9290  0.3171
   90SAPS    HB 8697   1.139   3.629  10.275 -1.1124 -1.6605  1.4873
   90SAPS    C2 8698   1.321   3.607  10.182  0.1595  0.4504  0.4997
   90SAPS    HS 8699   1.429   3.613  10.207  0.7118  1.1711 -1.7533
   90SAPS   O21 8700   1.297   3.687  10.065 -0.3804  0.3495  0.9788
   90SAPS   C21 8701   1.383   3.794  10.057 -0.8509 -0.8699  0.4592
   90SAPS   O22 8702   1.466   3.818  10.140  0.5507 -0.4268 -0.4520
   90SAPS   C22 8703   1.370   3.858   9.913  0.1875 -1.3763 -1.2491
   90SAPS   H2R 8704   1.352   3.968   9.921  0.1307 -1.4234 -0.6946
   90SAPS   H2S 8705   1.466   3.846   9.860  1.1508 -0.5356  0.2240
   90SAPS    C3 8706   1.290   3.457  10.135 -0.5802  0.7158 -0.1113
   90SAPS    HX 8707   1.193   3.469  10.083 -1.0350  2.2016  1.0044
   90SAPS    HY 8708   1.265   3.391  10.221 -1.6116 -0.3848 -1.2359
   90SAPS   O31 8709   1.379   3.399  10.037 -0.1519 -0.2463 -0.1552
   90SAPS   C31 8710   1.449   3.294  10.081  0.3053  0.7813 -0.2494
   90SAPS   O32 8711   1.443   3.247  10.193  0.0561  0.6962 -0.1420
   90SAPS   C32 8712   1.520   3.230   9.963 -0.1458 -0.0563  0.5001
   90SAPS   H2X 8713   1.615   3.287   9.949 -1.3810  1.4735 -2.4455
   90SAPS   H2Y 8714   1.452   3.239   9.876 -1.5364 -2.3326  1.2707
   90SAPS   C23 8715   1.251   3.801   9.838  0.1900 -0.0786  0.8493
   90SAPS   H3R 8716   1.155   3.812   9.893 -1.2288 -2.2007 -0.9883
   90SAPS   H3S 8717   1.270   3.696   9.806 -1.0753 -0.5844  1.6385
   90SAPS   C24 8718   1.232   3.877   9.698 -0.1906  0.0283 -0.2457
   90SAPS   H4R 8719   1.332   3.862   9.652  0.1482 -0.5336  0.6541
   90SAPS   H4S 8720   1.219   3.987   9.705  1.6497  0.3789 -1.5943
   90SAPS   C25 8721   1.129   3.801   9.617 -0.8075  0.2778 -0.1458
   90SAPS   H5R 8722   1.039   3.776   9.675 -0.4398 -0.6792  0.0260
   90SAPS   C26 8723   1.146   3.755   9.494  0.2028 -0.8405  0.3034
   90SAPS   H6R 8724   1.068   3.691   9.450  2.4948 -3.2180 -0.5581
   90SAPS   C27 8725   1.268   3.763   9.401  0.6201  0.1560 -1.2077
   90SAPS   H7R 8726   1.330   3.852   9.427 -0.6797  1.0267 -1.0114
   90SAPS   H7S 8727   1.231   3.782   9.298  0.2939  0.0770 -1.1053
   90SAPS   C28 8728   1.354   3.642   9.408 -0.1183 -0.1428  0.0891
   90SAPS   H8R 8729   1.363   3.595   9.507  1.5206 -1.2088 -0.5268
   90SAPS   C29 8730   1.425   3.584   9.311  0.3517 -0.2992  0.0648
   90SAPS   H9R 8731   1.487   3.496   9.332  2.8989  0.7727 -2.3394
   90SAPS  C210 8732   1.421   3.632   9.167 -0.3147 -0.0735  0.3460
   90SAPS  H10R 8733   1.503   3.706   9.160 -0.3134  0.1555  2.3504
   90SAPS  H10S 8734   1.329   3.686   9.136 -0.4807 -1.2050 -1.2744
   90SAPS  C211 8735   1.443   3.520   9.059  0.1670 -0.7149 -0.1186
   90SAPS  H11R 8736   1.363   3.491   8.989  1.8583 -0.6785 -2.1659
   90SAPS  C212 8737   1.567   3.477   9.015 -0.5904  0.1001 -0.0019
   90SAPS  H12R 8738   1.568   3.400   8.936  0.5090  0.0943 -0.0009
   90SAPS  C213 8739   1.701   3.510   9.060 -0.0572 -0.1046 -0.2820
   90SAPS  H13R 8740   1.695   3.606   9.115 -0.3837  0.2651 -0.9546
   90SAPS  H13S 8741   1.770   3.524   8.975  1.3244 -0.2144  0.7793
   90SAPS  C214 8742   1.727   3.399   9.165 -0.4890  0.3570  0.1174
   90SAPS  H14R 8743   1.683   3.420   9.264 -0.4203 -0.8280  0.4237
   90SAPS  C215 8744   1.799   3.284   9.152 -0.2110  0.2405  0.3804
   90SAPS  H15R 8745   1.787   3.215   9.237  0.6396 -1.3285 -0.7255
   90SAPS  C216 8746   1.876   3.221   9.032  0.2581  0.0230 -0.6790
   90SAPS  H16R 8747   1.977   3.193   9.069 -0.6276 -1.4151  0.8015
   90SAPS  H16S 8748   1.884   3.300   8.954 -1.1620  1.0063  0.1261
   90SAPS  C217 8749   1.805   3.095   8.987 -0.3642  0.0311 -0.8106
   90SAPS  H17R 8750   1.795   3.025   9.073  2.9598 -2.0226 -1.8979
   90SAPS  H17S 8751   1.870   3.042   8.914 -1.1299 -3.5596  0.8748
   90SAPS  C218 8752   1.668   3.129   8.920  0.1199  0.2222  0.2577
   90SAPS  H18R 8753   1.700   3.196   8.838  1.8783 -1.4638 -0.5212
   90SAPS  H18S 8754   1.609   3.188   8.993  2.4657  1.4778  1.2426
   90SAPS  C219 8755   1.599   2.999   8.879 -0.5583 -0.0784 -0.0134
   90SAPS  H19R 8756   1.616   2.936   8.969  0.5620 -3.4409 -2.3792
   90SAPS  H19S 8757   1.662   2.949   8.803  0.4797  1.4596 -0.2037
   90SAPS  C220 8758   1.443   3.009   8.867  0.5803 -0.3031  0.0084
   90SAPS  H20R 8759   1.396   3.053   8.958 -1.3583 -0.2463 -0.9658
   90SAPS  H20S 8760   1.402   2.906   8.877 -0.2380  0.1081  1.1398
   90SAPS  H20T 8761   1.412   3.047   8.768  2.8040  0.9956 -0.2612
   90SAPS   C33 8762   1.538   3.084   9.993 -0.3787  0.2736  0.3347
   90SAPS   H3X 8763   1.591   3.072  10.090  0.2059  0.9364  0.1063
   90SAPS   H3Y 8764   1.615   3.052   9.919 -1.1189  1.0722 -0.8007
   90SAPS   C34 8765   1.411   2.996   9.987 -0.5517  0.0298  0.6523
   90SAPS   H4X 8766   1.341   3.030  10.067  1.6348 -1.5699  3.4291
   90SAPS   H4Y 8767   1.434   2.890  10.007 -1.7060 -0.5236 -0.7371
   90SAPS   C35 8768   1.332   3.001   9.856  0.3679  0.4571 -0.4414
   90SAPS   H5X 8769   1.295   3.105   9.839 -1.1155  0.4783  2.4081
   90SAPS   H5Y 8770   1.252   2.926   9.873  2.7495 -1.7583  1.7529
   90SAPS   C36 8771   1.424   2.960   9.739 -0.3417 -0.1796 -0.2966
   90SAPS   H6X 8772   1.482   2.869   9.764  0.9641  0.4967 -0.7553
   90SAPS   H6Y 8773   1.482   3.054   9.721 -0.8301 -0.1679 -1.9380
   90SAPS   C37 8774   1.327   2.958   9.616 -0.6290 -0.1606 -0.0115
   90SAPS   H7X 8775   1.354   3.057   9.575  0.3012  0.8990  2.8867
   90SAPS   H7Y 8776   1.221   2.951   9.650  0.0937 -1.0334  2.2826
   90SAPS   C38 8777   1.352   2.844   9.525  0.2205 -0.3727  0.2113
   90SAPS   H8X 8778   1.323   2.744   9.563  0.0534  0.1144  1.4083
   90SAPS   H8Y 8779   1.460   2.839   9.500  0.2223 -1.2674  0.3864
   90SAPS   C39 8780   1.264   2.872   9.403  0.5945  0.5127  0.2500
   90SAPS   H9X 8781   1.305   2.965   9.360 -0.9727 -0.0176 -2.6692
   90SAPS   H9Y 8782   1.160   2.901   9.429  0.6271  0.5318  0.3614
   90SAPS  C310 8783   1.265   2.759   9.294 -0.4906 -0.5189  0.3210
   90SAPS  H10X 8784   1.206   2.672   9.331 -0.4133 -1.0391 -0.7382
   90SAPS  H10Y 8785   1.370   2.722   9.291 -0.7104 -1.1217 -0.2386
   90SAPS  C311 8786   1.230   2.796   9.145 -0.9343 -0.2381  0.2312
   90SAPS  H11X 8787   1.222   2.699   9.092  1.9735 -0.4477  0.0030
   90SAPS  H11Y 8788   1.311   2.855   9.097 -0.5523 -0.4206  0.6454
   90SAPS  C312 8789   1.104   2.878   9.134 -0.0345  0.4713 -0.1245
   90SAPS  H12X 8790   1.126   2.973   9.187  0.3923 -0.4903  1.5118
   90SAPS  H12Y 8791   1.027   2.815   9.184  0.0207 -0.1466 -0.7966
   90SAPS  C313 8792   1.060   2.917   8.997 -0.4388  0.0515 -0.0589
   90SAPS  H13X 8793   1.147   2.965   8.947 -1.1482  0.1310 -1.2534
   90SAPS  H13Y 8794   0.973   2.986   9.008  0.7601  1.4595  1.0347
   90SAPS  C314 8795   1.015   2.793   8.915  0.4256  0.1787  0.0665
   90SAPS  H14X 8796   0.925   2.752   8.966  1.3274 -2.5183 -0.3316
   90SAPS  H14Y 8797   1.095   2.716   8.904 -1.5461 -1.8229 -1.3132
   90SAPS  C315 8798   0.970   2.821   8.768  0.1315 -0.2014  0.2351
   90SAPS  H15X 8799   0.890   2.747   8.747 -1.0271  0.9026  0.6004
   90SAPS  H15Y 8800   1.061   2.803   8.707 -0.1641  3.8485 -1.7826
   90SAPS  C316 8801   0.907   2.963   8.738 -0.2243 -0.5061 -0.0929
   90SAPS  H16X 8802   0.983   3.042   8.755 -0.5207 -0.5019  1.3305
   90SAPS  H16Y 8803   0.826   2.984   8.812 -0.3877  1.4708 -0.7645
   90SAPS  C317 8804   0.864   2.967   8.593 -0.3823 -0.7127 -0.0508
   90SAPS  H17X 8805   0.801   2.880   8.564 -0.6769 -0.4594 -0.1823
   90SAPS  H17Y 8806   0.952   2.958   8.527  0.0445 -2.8899  0.7373
   90SAPS  C318 8807   0.779   3.086   8.547  0.1843 -0.0658 -0.2570
   90SAPS  H18X 8808   0.695   3.094   8.619 -2.0842  0.7575 -2.8363
   90SAPS  H18Y 8809   0.734   3.079   8.446 -2.5855 -0.7898  0.9190
   90SAPS  H18Z 8810   0.829   3.185   8.557  0.3234 -0.1872  0.2976
   91SAPS     N 8811   2.491   1.393   6.267 -0.5040  0.2849  0.2171
   91SAPS   HN1 8812   2.482   1.355   6.364 -3.3339 -2.1885 -0.8722
   91SAPS   HN2 8813   2.591   1.395   6.240 -0.6885 -2.5158 -1.0530
   91SAPS   HN3 8814   2.461   1.492   6.261  2.6991  1.4274  1.2131
   91SAPS   C12 8815   2.428   1.293   6.178  0.0882 -0.1083  0.5181
   91SAPS  H12A 8816   2.332   1.267   6.221  0.5363  1.0917  2.3388
   91SAPS   C13 8817   2.400   1.329   6.030  0.0117 -0.2150  0.1873
   91SAPS  O13A 8818   2.438   1.442   5.977 -0.3902 -0.0312  0.1118
   91SAPS  O13B 8819   2.327   1.252   5.966 -0.3734 -0.2803  0.0112
   91SAPS   C11 8820   2.501   1.160   6.173 -0.2079  0.5028 -0.3183
   91SAPS  H11A 8821   2.600   1.164   6.123 -0.3408 -0.0722 -0.6456
   91SAPS  H11B 8822   2.433   1.095   6.113 -1.1515  0.1967  1.0297
   91SAPS     P 8823   2.627   0.988   6.338 -0.0729  0.2787 -0.3149
   91SAPS   O13 8824   2.539   0.868   6.325 -0.2769  0.4446  0.0214
   91SAPS   O14 8825   2.750   0.997   6.254  0.1490 -0.3556 -0.2705
   91SAPS   O12 8826   2.525   1.109   6.308  0.3082  0.2926 -0.1198
   91SAPS   O11 8827   2.671   1.009   6.483 -0.4876 -0.2310  0.3022
   91SAPS    C1 8828   2.576   1.047   6.585 -0.4921 -0.4656  0.1123
   91SAPS    HA 8829   2.525   1.135   6.541  1.1780 -0.0191 -1.0507
   91SAPS    HB 8830   2.505   0.964   6.607  0.1036 -0.7269  1.1225
   91SAPS    C2 8831   2.662   1.094   6.711  0.4697 -0.0851 -0.4756
   91SAPS    HS 8832   2.725   1.181   6.684 -0.4893  0.5400 -0.7231
   91SAPS   O21 8833   2.741   0.979   6.760 -0.4111 -0.1676 -0.2562
   91SAPS   C21 8834   2.867   1.010   6.804  0.7123  0.6529  0.0169
   91SAPS   O22 8835   2.927   1.114   6.784 -0.0947  0.1194  0.0373
   91SAPS   C22 8836   2.936   0.893   6.879  0.5422  0.2247 -0.2079
   91SAPS   H2R 8837   2.859   0.814   6.890  0.7836 -0.4635 -2.8176
   91SAPS   H2S 8838   3.021   0.860   6.815  0.5476  0.1808 -0.1778
   91SAPS    C3 8839   2.575   1.141   6.834 -0.5906 -0.0964 -1.0351
   91SAPS    HX 8840   2.520   1.053   6.875 -1.4349  1.7793  2.2867
   91SAPS    HY 8841   2.506   1.214   6.786 -0.6847  0.8191  0.4261
   91SAPS   O31 8842   2.653   1.201   6.941  0.5450  0.0318  0.4341
   91SAPS   C31 8843   2.690   1.334   6.920 -0.2698  0.2292  0.1578
   91SAPS   O32 8844   2.674   1.384   6.808  0.4719  0.1751 -0.1498
   91SAPS   C32 8845   2.751   1.403   7.047  0.1103  0.2570  0.5506
   91SAPS   H2X 8846   2.664   1.406   7.117 -0.8282  1.2159 -0.6076
   91SAPS   H2Y 8847   2.789   1.496   7.001  2.9436 -1.0629  0.0377
   91SAPS   C23 8848   2.993   0.933   7.012  0.2298 -0.3741 -0.2638
   91SAPS   H3R 8849   2.909   0.944   7.084 -0.2272  1.5063 -1.0096
   91SAPS   H3S 8850   3.051   1.028   7.004  0.7194 -0.6073  0.4627
   91SAPS   C24 8851   3.094   0.830   7.064  0.6457  0.7440  0.0176
   91SAPS   H4R 8852   3.170   0.785   6.997  0.3062 -1.2108  0.8698
   91SAPS   H4S 8853   3.038   0.738   7.093  0.6141  0.7064 -0.1592
   91SAPS   C25 8854   3.163   0.891   7.188  0.8620 -0.3106  0.5266
   91SAPS   H5R 8855   3.251   0.954   7.171  0.8312 -0.9169 -2.2210
   91SAPS   C26 8856   3.119   0.870   7.318  0.0689 -0.2568 -0.3390
   91SAPS   H6R 8857   3.160   0.919   7.407 -2.9378 -2.7577  2.6521
   91SAPS   C27 8858   2.996   0.796   7.359  0.4755 -0.4796  0.1379
   91SAPS   H7R 8859   2.940   0.736   7.284  0.9004  1.3967 -1.7651
   91SAPS   H7S 8860   2.930   0.883   7.380  3.1028  2.0745 -1.5164
   91SAPS   C28 8861   3.021   0.720   7.485 -0.8709 -0.3409 -0.5510
   91SAPS   H8R 8862   3.056   0.618   7.467  0.0812 -0.4092  1.3317
   91SAPS   C29 8863   3.027   0.763   7.615  0.1918 -0.5084  0.1584
   91SAPS   H9R 8864   3.071   0.684   7.678  1.1261 -0.0603  0.0794
   91SAPS  C210 8865   2.996   0.899   7.674 -0.1681  0.6212 -0.1592
   91SAPS  H10R 8866   2.904   0.897   7.736 -0.3143 -1.6362 -0.3472
   91SAPS  H10S 8867   2.974   0.969   7.590  0.2771  0.0498 -0.7683
   91SAPS  C211 8868   3.118   0.956   7.743  1.0959  0.2203  0.0586
   91SAPS  H11R 8869   3.188   1.010   7.678  0.6809  0.2935 -0.3370
   91SAPS  C212 8870   3.157   0.914   7.861 -0.5224  0.0959 -0.2046
   91SAPS  H12R 8871   3.250   0.948   7.908 -0.4053 -1.4801  0.7786
   91SAPS  C213 8872   3.090   0.812   7.946  0.5015  0.0078  0.4729
   91SAPS  H13R 8873   3.169   0.741   7.977  0.3108 -0.1580  0.5850
   91SAPS  H13S 8874   3.017   0.749   7.891  0.7982 -0.0252  0.1160
   91SAPS  C214 8875   3.014   0.877   8.065  0.5250 -0.0555  0.2986
   91SAPS  H14R 8876   2.935   0.948   8.036  1.1302  0.8863  0.9078
   91SAPS  C215 8877   3.048   0.869   8.192  1.5758  0.2046 -0.2169
   91SAPS  H15R 8878   2.990   0.929   8.262 -2.1704 -2.1376 -1.0193
   91SAPS  C216 8879   3.161   0.795   8.262  0.5869 -0.2342  0.1304
   91SAPS  H16R 8880   3.215   0.731   8.189 -0.0008  0.8609 -1.3233
   91SAPS  H16S 8881   3.113   0.727   8.336 -2.8229  1.9374  0.1369
   91SAPS  C217 8882   3.268   0.886   8.326  0.6855 -0.2030  0.1491
   91SAPS  H17R 8883   3.300   0.948   8.239 -1.5534  1.8351  0.6716
   91SAPS  H17S 8884   3.346   0.827   8.379 -1.2774 -1.1912  2.0704
   91SAPS  C218 8885   3.216   0.981   8.438 -0.6647 -0.3033 -0.7416
   91SAPS  H18R 8886   3.160   0.916   8.508 -1.7113  1.5809  0.2416
   91SAPS  H18S 8887   3.142   1.051   8.395 -0.2316  0.7615  0.1962
   91SAPS  C219 8888   3.324   1.054   8.513  0.5018 -0.1437  0.0022
   91SAPS  H19R 8889   3.411   1.088   8.452 -0.1147  0.8044 -0.3713
   91SAPS  H19S 8890   3.378   0.983   8.579  0.0133 -1.2107 -0.7131
   91SAPS  C220 8891   3.274   1.177   8.587  0.3930 -0.2582 -0.5393
   91SAPS  H20R 8892   3.232   1.254   8.519 -0.6673 -0.1040  0.2487
   91SAPS  H20S 8893   3.356   1.222   8.647 -0.3020  0.6846 -0.2672
   91SAPS  H20T 8894   3.191   1.140   8.652  1.2236  1.4083  1.5699
   91SAPS   C33 8895   2.872   1.325   7.101  0.3191 -0.2059  0.1654
   91SAPS   H3X 8896   2.939   1.395   7.156 -0.7846  0.1153  1.1446
   91SAPS   H3Y 8897   2.936   1.286   7.019  1.5210  2.8465 -0.4917
   91SAPS   C34 8898   2.840   1.212   7.202  0.3759 -0.2534  0.0807
   91SAPS   H4X 8899   2.927   1.143   7.208  0.2818 -0.3339  0.5643
   91SAPS   H4Y 8900   2.761   1.142   7.169  0.2309 -0.3700  0.6539
   91SAPS   C35 8901   2.802   1.270   7.340 -0.0864  0.8629  0.1456
   91SAPS   H5X 8902   2.756   1.189   7.400 -1.8253  0.7693 -1.2280
   91SAPS   H5Y 8903   2.724   1.349   7.330 -0.8958  0.1588  0.7595
   91SAPS   C36 8904   2.930   1.321   7.419 -0.1813 -0.1418 -0.2441
   91SAPS   H6X 8905   2.974   1.410   7.369 -0.4736 -0.4480 -1.0665
   91SAPS   H6Y 8906   3.011   1.246   7.415  0.2654  0.2879  0.4347
   91SAPS   C37 8907   2.913   1.355   7.571  0.0734 -0.5318  0.0572
   91SAPS   H7X 8908   2.900   1.263   7.632  0.4095 -0.3132  0.4616
   91SAPS   H7Y 8909   2.820   1.412   7.591 -2.0729 -3.6528 -0.2666
   91SAPS   C38 8910   3.033   1.442   7.629  0.1821  0.4687 -0.4060
   91SAPS   H8X 8911   3.038   1.542   7.580  0.7931  1.6540  1.9109
   91SAPS   H8Y 8912   3.119   1.379   7.597  0.5357  0.7518 -0.0284
   91SAPS   C39 8913   3.032   1.444   7.781  0.2473 -0.2005  0.0214
   91SAPS   H9X 8914   2.925   1.446   7.811  0.5239 -1.6875  1.2002
   91SAPS   H9Y 8915   3.072   1.543   7.810 -0.1339  0.2232 -0.8513
   91SAPS  C310 8916   3.125   1.349   7.853  0.4231 -0.5862  0.4648
   91SAPS  H10X 8917   3.221   1.347   7.796 -0.0182  0.0916 -0.3234
   91SAPS  H10Y 8918   3.083   1.246   7.853 -1.6944  0.2215 -0.7513
   91SAPS  C311 8919   3.158   1.394   8.000 -0.3027  0.6541 -0.6455
   91SAPS  H11X 8920   3.070   1.376   8.065  2.0490  1.1549  2.9858
   91SAPS  H11Y 8921   3.183   1.503   8.001  1.3376  0.3112  1.0060
   91SAPS  C312 8922   3.274   1.322   8.074  0.4825 -1.0240 -0.7492
   91SAPS  H12X 8923   3.373   1.338   8.026  0.2165 -1.4819 -1.4671
   91SAPS  H12Y 8924   3.251   1.215   8.055  1.6763 -1.3362 -0.5544
   91SAPS  C313 8925   3.273   1.345   8.227  0.4593  0.0243  1.3029
   91SAPS  H13X 8926   3.364   1.288   8.258 -0.4698 -0.8354  2.5361
   91SAPS  H13Y 8927   3.177   1.313   8.271  0.8304  1.4454  3.2608
   91SAPS  C314 8928   3.289   1.493   8.264 -0.5137 -0.9866 -0.5275
   91SAPS  H14X 8929   3.297   1.487   8.374 -2.2913 -0.6929 -0.3493
   91SAPS  H14Y 8930   3.193   1.545   8.241  0.8080  1.9300  0.1318
   91SAPS  C315 8931   3.409   1.573   8.218  0.6085  0.6682 -0.2894
   91SAPS  H15X 8932   3.426   1.558   8.109  1.4465  1.6782 -0.3163
   91SAPS  H15Y 8933   3.500   1.542   8.274  0.9747  0.3389 -1.0421
   91SAPS  C316 8934   3.399   1.723   8.230 -0.1799  0.0572 -0.2206
   91SAPS  H16X 8935   3.497   1.772   8.214 -0.2000  1.1772  2.4992
   91SAPS  H16Y 8936   3.388   1.745   8.339  1.8564 -1.1455  0.2731
   91SAPS  C317 8937   3.288   1.793   8.153 -0.2415  0.3682  0.2477
   91SAPS  H17X 8938   3.194   1.740   8.182  0.2342 -0.7896 -0.2744
   91SAPS  H17Y 8939   3.308   1.782   8.044  0.5356 -1.4513  0.5289
   91SAPS  C318 8940   3.277   1.941   8.183  0.3958 -0.2121  0.3622
   91SAPS  H18X 8941   3.196   1.980   8.118  0.3454 -0.2992  0.3732
   91SAPS  H18Y 8942   3.372   1.991   8.155  0.2926 -1.3943 -2.4238
   91SAPS  H18Z 8943   3.257   1.970   8.288  0.2380  2.1381 -0.2484
   92SAPS     N 8944   3.058   1.284   5.990  0.0389 -0.1988  0.0427
   92SAPS   HN1 8945   3.034   1.371   6.041  0.2838 -0.2654  0.2726
   92SAPS   HN2 8946   2.980   1.238   5.939 -1.1797  0.2683  1.4348
   92SAPS   HN3 8947   3.091   1.220   6.065 -0.2932  0.5322  0.8186
   92SAPS   C12 8948   3.175   1.293   5.908 -1.3879 -1.0077 -0.1842
   92SAPS  H12A 8949   3.197   1.198   5.863  3.5935  0.0113 -0.5464
   92SAPS   C13 8950   3.176   1.417   5.808 -0.4968  0.5026  1.1372
   92SAPS  O13A 8951   3.064   1.458   5.774 -0.3487  0.4524 -0.2385
   92SAPS  O13B 8952   3.267   1.416   5.718 -0.4005  0.4607  0.0413
   92SAPS   C11 8953   3.307   1.292   6.000 -0.2043 -0.8140 -0.3479
   92SAPS  H11A 8954   3.298   1.360   6.088  1.6453 -0.2338 -0.5631
   92SAPS  H11B 8955   3.395   1.345   5.959  0.5600 -1.3460  0.5535
   92SAPS     P 8956   3.300   1.094   6.172 -0.0612  0.0650 -0.1629
   92SAPS   O13 8957   3.157   1.107   6.177  0.4398 -0.2861 -0.3741
   92SAPS   O14 8958   3.357   0.957   6.184  0.3307 -0.1673 -0.1220
   92SAPS   O12 8959   3.342   1.153   6.027  0.0366  0.4371  0.0353
   92SAPS   O11 8960   3.355   1.194   6.281  0.3816 -0.2229  0.1007
   92SAPS    C1 8961   3.494   1.209   6.310 -0.0300 -0.2587 -0.5637
   92SAPS    HA 8962   3.557   1.205   6.218 -1.3176 -0.5654 -1.4682
   92SAPS    HB 8963   3.520   1.306   6.359 -0.4803 -0.2353 -0.3679
   92SAPS    C2 8964   3.537   1.101   6.413  0.4301 -0.7008  0.3407
   92SAPS    HS 8965   3.492   1.005   6.378  1.5833 -0.8635 -0.7582
   92SAPS   O21 8966   3.489   1.145   6.541 -0.1524  0.4143 -0.8512
   92SAPS   C21 8967   3.471   1.049   6.636  0.4087  0.1401 -0.2841
   92SAPS   O22 8968   3.505   0.934   6.622 -0.2644  0.2590  0.1130
   92SAPS   C22 8969   3.372   1.111   6.736  0.2725  0.0209  0.5093
   92SAPS   H2R 8970   3.409   1.212   6.762  0.2826 -0.3428  1.9933
   92SAPS   H2S 8971   3.281   1.131   6.675  1.6099  2.2370 -0.8971
   92SAPS    C3 8972   3.688   1.079   6.405  0.1180 -0.2830 -1.6009
   92SAPS    HX 8973   3.731   1.181   6.416  0.1033 -0.3388 -0.9497
   92SAPS    HY 8974   3.713   1.040   6.304 -0.5501 -0.4254 -1.7109
   92SAPS   O31 8975   3.737   0.994   6.512  0.6032 -0.1622  0.1997
   92SAPS   C31 8976   3.803   0.884   6.489  0.2998 -0.2619  0.5193
   92SAPS   O32 8977   3.806   0.825   6.387 -0.2247  0.4065  0.7356
   92SAPS   C32 8978   3.878   0.849   6.615  0.1156  0.1535  0.3018
   92SAPS   H2X 8979   3.957   0.925   6.638 -0.0921 -0.0038  1.6418
   92SAPS   H2Y 8980   3.927   0.756   6.580 -2.0246 -0.8840 -0.0382
   92SAPS   C23 8981   3.335   1.021   6.851 -0.1837  0.3219 -0.0500
   92SAPS   H3R 8982   3.303   0.924   6.807 -2.9867  1.3847 -0.5719
   92SAPS   H3S 8983   3.242   1.056   6.900 -0.4793  0.0152 -0.3840
   92SAPS   C24 8984   3.451   1.010   6.945 -0.7799 -0.2700 -0.1437
   92SAPS   H4R 8985   3.539   0.956   6.906 -0.9910 -0.1212 -0.8343
   92SAPS   H4S 8986   3.426   0.941   7.029  1.3524  0.0805  0.8241
   92SAPS   C25 8987   3.487   1.137   7.016  0.2801  0.0237 -0.1618
   92SAPS   H5R 8988   3.484   1.229   6.956 -0.8247 -0.3713 -0.7400
   92SAPS   C26 8989   3.533   1.146   7.148  0.0054 -0.0500  0.6831
   92SAPS   H6R 8990   3.568   1.245   7.181 -0.8792  0.2009  0.8787
   92SAPS   C27 8991   3.552   1.032   7.244 -0.2465  0.7199 -0.0463
   92SAPS   H7R 8992   3.561   0.935   7.191 -0.5893  0.4627  0.3606
   92SAPS   H7S 8993   3.453   1.024   7.292 -0.3045  2.4927  0.2015
   92SAPS   C28 8994   3.659   1.047   7.348  0.0517 -0.0644  0.0231
   92SAPS   H8R 8995   3.760   1.030   7.309  1.2887 -1.4792  3.4485
   92SAPS   C29 8996   3.644   1.076   7.479 -0.6397 -0.1976  0.0397
   92SAPS   H9R 8997   3.736   1.087   7.537 -0.4097  2.9548 -0.7426
   92SAPS  C210 8998   3.518   1.115   7.549 -0.0508  0.1953  0.0300
   92SAPS  H10R 8999   3.478   1.024   7.599 -1.1931  1.4742  1.5245
   92SAPS  H10S 9000   3.433   1.145   7.484  0.1546  1.6797  0.4046
   92SAPS  C211 9001   3.536   1.229   7.649  0.3052  0.1911  0.2827
   92SAPS  H11R 9002   3.507   1.325   7.604  2.7868  1.8098  1.8884
   92SAPS  C212 9003   3.577   1.216   7.775  0.0972  0.4237  0.2987
   92SAPS  H12R 9004   3.591   1.302   7.843 -0.9512  0.3723  0.6067
   92SAPS  C213 9005   3.631   1.086   7.833  0.8558  0.5816 -0.4537
   92SAPS  H13R 9006   3.736   1.097   7.868  0.3416 -1.0554  1.8123
   92SAPS  H13S 9007   3.626   1.006   7.755 -1.7949  0.2800 -0.0636
   92SAPS  C214 9008   3.554   1.028   7.950  0.3195  0.0942 -0.0344
   92SAPS  H14R 9009   3.480   0.950   7.925 -1.3305  1.4817  0.3481
   92SAPS  C215 9010   3.563   1.060   8.085  0.9393 -0.0403  0.4060
   92SAPS  H15R 9011   3.508   1.002   8.161 -0.8856  0.5266 -0.4187
   92SAPS  C216 9012   3.643   1.174   8.134 -0.4348 -0.2903  0.2001
   92SAPS  H16R 9013   3.580   1.246   8.190  0.2635 -0.4668  1.2555
   92SAPS  H16S 9014   3.686   1.226   8.045  1.2526 -1.5922  0.1924
   92SAPS  C217 9015   3.760   1.146   8.234 -0.5306 -0.4381 -0.4085
   92SAPS  H17R 9016   3.828   1.234   8.233 -0.2233 -0.5956  1.7405
   92SAPS  H17S 9017   3.813   1.056   8.195 -1.4847 -0.9128 -0.6540
   92SAPS  C218 9018   3.706   1.114   8.374  1.0703 -0.0263 -0.8146
   92SAPS  H18R 9019   3.632   1.032   8.362  1.6783 -0.4209 -2.0123
   92SAPS  H18S 9020   3.658   1.204   8.417  0.6373 -1.8540  2.9105
   92SAPS  C219 9021   3.818   1.074   8.471  0.1508  0.7366  0.0150
   92SAPS  H19R 9022   3.893   1.154   8.453  0.7280  0.4697  1.1187
   92SAPS  H19S 9023   3.859   0.975   8.444 -0.0901 -0.6974  4.1782
   92SAPS  C220 9024   3.780   1.078   8.621 -1.0358  0.2803  0.6343
   92SAPS  H20R 9025   3.708   0.998   8.648 -2.6163  1.4781  0.0723
   92SAPS  H20S 9026   3.735   1.177   8.643  0.4937  1.6875 -2.1366
   92SAPS  H20T 9027   3.873   1.077   8.683 -0.4098  0.4873 -0.2863
   92SAPS   C33 9028   3.798   0.813   6.737  0.2052  1.0478  0.3323
   92SAPS   H3X 9029   3.717   0.738   6.723  1.6518 -0.8601  1.6650
   92SAPS   H3Y 9030   3.745   0.893   6.793 -0.6679 -0.0143  1.0637
   92SAPS   C34 9031   3.888   0.739   6.831  0.1566 -0.1079 -0.1849
   92SAPS   H4X 9032   3.967   0.807   6.870  1.1261 -1.4284  0.2317
   92SAPS   H4Y 9033   3.925   0.649   6.777 -0.9115  0.1090 -1.3456
   92SAPS   C35 9034   3.816   0.694   6.966 -0.5138 -0.1569 -0.4975
   92SAPS   H5X 9035   3.738   0.618   6.944 -2.1283  0.8761  1.3395
   92SAPS   H5Y 9036   3.755   0.778   7.006 -0.9077 -0.1578 -1.0828
   92SAPS   C36 9037   3.915   0.645   7.074  0.2568 -0.3693  0.7209
   92SAPS   H6X 9038   4.012   0.698   7.075  0.8562 -1.4343  0.8633
   92SAPS   H6Y 9039   3.948   0.539   7.068  1.8876  0.2235 -2.4647
   92SAPS   C37 9040   3.861   0.675   7.215  0.3543  0.1949  0.5173
   92SAPS   H7X 9041   3.777   0.608   7.241  0.8182 -0.1054  1.2809
   92SAPS   H7Y 9042   3.812   0.774   7.219 -1.6789 -0.5842 -2.0995
   92SAPS   C38 9043   3.961   0.652   7.327  0.2522 -0.1949  0.2953
   92SAPS   H8X 9044   4.049   0.709   7.291 -0.1143  0.8860  1.0855
   92SAPS   H8Y 9045   3.998   0.547   7.331 -1.4386 -0.7919  1.6287
   92SAPS   C39 9046   3.914   0.699   7.460 -0.7360 -0.3281 -0.3244
   92SAPS   H9X 9047   3.822   0.654   7.504 -0.7712  0.5058  0.4785
   92SAPS   H9Y 9048   3.867   0.798   7.446 -0.6402 -0.2361 -0.0160
   92SAPS  C310 9049   4.029   0.695   7.572  0.6282  0.5490  0.4492
   92SAPS  H10X 9050   4.109   0.769   7.548  0.5805  0.8635  1.2322
   92SAPS  H10Y 9051   4.078   0.595   7.576  2.2916  1.3555  1.1568
   92SAPS  C311 9052   3.993   0.750   7.712 -0.0459 -0.3612 -0.1522
   92SAPS  H11X 9053   3.955   0.854   7.704  1.0572 -0.0313 -1.4891
   92SAPS  H11Y 9054   4.091   0.752   7.764  0.0638 -0.0843 -0.3652
   92SAPS  C312 9055   3.906   0.658   7.804  0.4383  0.0661  0.3010
   92SAPS  H12X 9056   3.971   0.568   7.800  2.3897  1.4203  0.1706
   92SAPS  H12Y 9057   3.810   0.650   7.748  1.3799  0.7487 -1.4826
   92SAPS  C313 9058   3.895   0.701   7.952  0.4177 -0.4154  0.7861
   92SAPS  H13X 9059   3.808   0.647   7.995 -0.2163 -0.0285  0.0196
   92SAPS  H13Y 9060   3.884   0.811   7.961  1.3862 -0.2104 -0.3298
   92SAPS  C314 9061   4.020   0.672   8.039  0.5619  0.2482  0.1752
   92SAPS  H14X 9062   4.094   0.748   8.006 -0.7524  1.4708 -0.0818
   92SAPS  H14Y 9063   4.059   0.569   8.022  1.1834  0.1919  1.8181
   92SAPS  C315 9064   3.973   0.678   8.187  0.1617 -0.5227 -0.5328
   92SAPS  H15X 9065   3.895   0.603   8.209 -1.0095  0.4618 -1.1704
   92SAPS  H15Y 9066   3.933   0.781   8.198 -2.0600 -1.3630 -0.2918
   92SAPS  C316 9067   4.081   0.661   8.293 -0.0311 -0.0805  0.3951
   92SAPS  H16X 9068   4.157   0.743   8.288  1.0694 -1.0744  0.3290
   92SAPS  H16Y 9069   4.126   0.566   8.259  1.2022  0.3644  0.6989
   92SAPS  C317 9070   4.026   0.658   8.429 -0.3454 -0.2460 -0.9366
   92SAPS  H17X 9071   3.965   0.565   8.437  2.9619 -2.6317 -1.1814
   92SAPS  H17Y 9072   3.970   0.750   8.453 -1.0232 -1.2483  1.7342
   92SAPS  C318 9073   4.132   0.659   8.537  0.0069  0.3298 -0.1888
   92SAPS  H18X 9074   4.192   0.751   8.522 -0.7650  0.5250 -2.5230
   92SAPS  H18Y 9075   4.197   0.569   8.529 -1.0126 -0.4311 -0.2420
   92SAPS  H18Z 9076   4.079   0.664   8.634 -1.8436  0.2865 -1.1306
   93SAPS     N 9077   5.119   0.765   6.328 -0.2827 -0.4405 -0.0272
   93SAPS   HN1 9078   5.091   0.861   6.357 -0.3532 -0.2860 -0.5978
   93SAPS   HN2 9079   5.089   0.713   6.413  1.5060 -3.2526 -0.9882
   93SAPS   HN3 9080   5.222   0.757   6.322 -0.2408  0.2532 -0.3321
   93SAPS   C12 9081   5.039   0.744   6.194 -0.2713  0.0665 -0.3116
   93SAPS  H12A 9082   4.936   0.767   6.219 -0.5231  0.0880 -1.3038
   93SAPS   C13 9083   5.071   0.839   6.083 -0.5046  0.4288 -0.0878
   93SAPS  O13A 9084   5.184   0.899   6.090 -0.3099  0.1237 -0.2378
   93SAPS  O13B 9085   4.998   0.850   5.980  0.0004  0.1032  0.0339
   93SAPS   C11 9086   5.050   0.595   6.148 -0.3639 -0.0681 -0.2817
   93SAPS  H11A 9087   5.142   0.563   6.093  1.2153  1.7434  1.1564
   93SAPS  H11B 9088   4.965   0.578   6.079  1.6054 -0.7323 -2.7369
   93SAPS     P 9089   5.068   0.363   6.270 -0.1185  0.5198 -0.0927
   93SAPS   O13 9090   4.996   0.292   6.160  0.3107  0.1321 -0.7442
   93SAPS   O14 9091   5.215   0.349   6.279 -0.4594 -0.2865 -0.2049
   93SAPS   O12 9092   5.033   0.512   6.268  0.3249 -0.0101  0.3466
   93SAPS   O11 9093   5.007   0.325   6.411  0.7978  0.2533  0.8074
   93SAPS    C1 9094   4.891   0.388   6.470 -0.5405  0.4492  0.0511
   93SAPS    HA 9095   4.916   0.434   6.567  0.7783  0.9670 -0.5034
   93SAPS    HB 9096   4.832   0.459   6.409 -2.3022  1.4880  2.7851
   93SAPS    C2 9097   4.779   0.273   6.504 -0.5894  0.3065 -0.4401
   93SAPS    HS 9098   4.694   0.315   6.561 -1.1420 -0.7181 -0.4965
   93SAPS   O21 9099   4.847   0.169   6.576 -0.5201  0.1328 -0.0668
   93SAPS   C21 9100   4.869   0.199   6.702 -0.3627  0.0178  0.2201
   93SAPS   O22 9101   4.834   0.302   6.760  0.0065  0.5080  0.1035
   93SAPS   C22 9102   4.956   0.087   6.770  0.4122  0.2653  0.5811
   93SAPS   H2R 9103   4.882   0.005   6.785  0.8069  0.1004  1.7625
   93SAPS   H2S 9104   5.042   0.045   6.715 -1.5481 -0.1771 -2.3859
   93SAPS    C3 9105   4.722   0.221   6.370  0.4626  0.3453 -0.1291
   93SAPS    HX 9106   4.808   0.182   6.312 -0.6031 -1.6432 -0.4797
   93SAPS    HY 9107   4.665   0.297   6.313 -1.0088 -1.2271 -0.8687
   93SAPS   O31 9108   4.630   0.112   6.398 -0.1750 -0.1638  0.3262
   93SAPS   C31 9109   4.505   0.147   6.421  0.0901 -0.5672  0.2760
   93SAPS   O32 9110   4.465   0.264   6.431  0.2688 -0.1767 -0.5944
   93SAPS   C32 9111   4.408   0.024   6.442 -0.0007  1.1704  0.2532
   93SAPS   H2X 9112   4.469  -0.068   6.448 -0.1887  1.0244 -0.0262
   93SAPS   H2Y 9113   4.336   0.024   6.357 -0.2710  0.6251  0.4832
   93SAPS   C23 9114   5.007   0.131   6.912  1.0182 -0.2818  0.2214
   93SAPS   H3R 9115   4.923   0.157   6.980 -0.0326 -4.1686  0.6709
   93SAPS   H3S 9116   5.083   0.207   6.885  1.8254 -1.4432 -0.9034
   93SAPS   C24 9117   5.069   0.013   6.979 -0.3665  0.4895  1.0699
   93SAPS   H4R 9118   5.122   0.058   7.066  1.0946 -0.4177  0.6869
   93SAPS   H4S 9119   5.155  -0.016   6.915  0.8772  1.2646  2.3213
   93SAPS   C25 9120   4.986  -0.105   7.013 -0.2390  0.0632 -0.4298
   93SAPS   H5R 9121   4.935  -0.145   6.924 -0.7953  1.9056 -0.9993
   93SAPS   C26 9122   4.953  -0.147   7.135  0.1437  0.3128  0.0948
   93SAPS   H6R 9123   4.882  -0.231   7.143 -0.0112  0.3727 -0.5442
   93SAPS   C27 9124   5.013  -0.082   7.261 -0.0178  0.0107  0.6204
   93SAPS   H7R 9125   5.111  -0.029   7.255  0.0410 -0.0726  0.8395
   93SAPS   H7S 9126   5.013  -0.154   7.345 -1.4116  1.4425  1.9034
   93SAPS   C28 9127   4.917   0.032   7.293 -0.1228  0.4313 -0.1259
   93SAPS   H8R 9128   4.873   0.084   7.206  0.1149 -0.2804 -0.6850
   93SAPS   C29 9129   4.915   0.089   7.412 -0.6591  0.1979 -0.2737
   93SAPS   H9R 9130   4.846   0.171   7.436 -0.6966 -0.1860  1.0093
   93SAPS  C210 9131   4.992   0.048   7.535  0.2628 -0.1937  0.4857
   93SAPS  H10R 9132   5.038   0.138   7.581  2.7632 -0.9683 -0.3575
   93SAPS  H10S 9133   5.080  -0.016   7.513  0.1862 -0.0560 -0.2679
   93SAPS  C211 9134   4.894  -0.013   7.629 -0.5742 -0.3538  0.6646
   93SAPS  H11R 9135   4.811  -0.053   7.569  1.2656 -1.1824 -1.4470
   93SAPS  C212 9136   4.897  -0.025   7.761  0.7412  0.9164 -0.4986
   93SAPS  H12R 9137   4.827  -0.089   7.817 -1.1001  0.1625 -3.3751
   93SAPS  C213 9138   5.012   0.038   7.838 -0.0458 -0.3526  0.1964
   93SAPS  H13R 9139   5.058   0.112   7.769 -1.3066 -0.5715 -0.9258
   93SAPS  H13S 9140   5.087  -0.045   7.843  1.6735  0.7393 -3.6771
   93SAPS  C214 9141   4.984   0.088   7.975  0.4795  0.3754  0.5218
   93SAPS  H14R 9142   4.958   0.195   7.967 -1.1735 -0.0662 -0.5908
   93SAPS  C215 9143   4.972   0.021   8.084 -0.3001  0.0550  0.1875
   93SAPS  H15R 9144   4.924   0.070   8.170  0.1089  0.9717 -0.0959
   93SAPS  C216 9145   4.990  -0.125   8.107  0.3040 -0.0667  0.2460
   93SAPS  H16R 9146   5.084  -0.156   8.058  0.4765 -1.6823  1.5139
   93SAPS  H16S 9147   4.910  -0.185   8.059  0.7737 -0.2526 -0.3138
   93SAPS  C217 9148   5.013  -0.167   8.259 -0.1243  0.1342  0.5870
   93SAPS  H17R 9149   5.027  -0.277   8.247  0.3587  0.3730 -1.2757
   93SAPS  H17S 9150   4.925  -0.139   8.320 -0.4747  1.7634 -0.5976
   93SAPS  C218 9151   5.142  -0.099   8.295 -0.7891 -1.0678  0.2753
   93SAPS  H18R 9152   5.137   0.012   8.293  1.6728 -0.8471  1.9276
   93SAPS  H18S 9153   5.207  -0.111   8.206  1.4696  1.3385  1.4458
   93SAPS  C219 9154   5.208  -0.158   8.417  0.1281 -0.2709  0.5981
   93SAPS  H19R 9155   5.308  -0.118   8.443 -1.0322  1.4947  2.7122
   93SAPS  H19S 9156   5.217  -0.265   8.388  0.7101 -0.4936  1.5581
   93SAPS  C220 9157   5.116  -0.139   8.532  0.2919 -0.2207  0.2041
   93SAPS  H20R 9158   5.163  -0.141   8.633 -2.3716 -0.3270  1.5281
   93SAPS  H20S 9159   5.034  -0.214   8.536 -1.1144  1.3105  2.6059
   93SAPS  H20T 9160   5.061  -0.042   8.524 -1.9956 -1.5194 -0.9450
   93SAPS   C33 9161   4.330   0.034   6.571 -0.5627 -0.1124 -0.3456
   93SAPS   H3X 9162   4.241  -0.032   6.556  0.6403 -1.7144 -0.6848
   93SAPS   H3Y 9163   4.285   0.132   6.600 -0.5199  0.0217 -0.7280
   93SAPS   C34 9164   4.396  -0.034   6.699  0.3774  0.7678  0.6526
   93SAPS   H4X 9165   4.498  -0.069   6.673  0.3990  1.5804 -0.4240
   93SAPS   H4Y 9166   4.330  -0.122   6.720 -1.1052  1.7853  0.4481
   93SAPS   C35 9167   4.401   0.053   6.830  0.1550  0.0903  0.3988
   93SAPS   H5X 9168   4.303   0.074   6.877  1.4220  1.2180  2.7199
   93SAPS   H5Y 9169   4.452   0.147   6.801 -0.1927  0.0542 -0.3651
   93SAPS   C36 9170   4.489  -0.013   6.942  0.3850 -0.7681 -0.7541
   93SAPS   H6X 9171   4.588  -0.039   6.900  1.0662  1.2922 -0.5137
   93SAPS   H6Y 9172   4.442  -0.109   6.976 -0.5457 -0.2272 -0.4779
   93SAPS   C37 9173   4.493   0.085   7.066  0.0085 -0.3234  0.5638
   93SAPS   H7X 9174   4.395   0.137   7.070 -0.0341 -0.2194 -1.2801
   93SAPS   H7Y 9175   4.581   0.152   7.062  1.6735 -2.4338  0.3234
   93SAPS   C38 9176   4.516   0.019   7.200  0.1632  0.0039  0.3865
   93SAPS   H8X 9177   4.610  -0.039   7.212 -0.1552 -1.1405 -2.1558
   93SAPS   H8Y 9178   4.438  -0.059   7.214  1.2500 -1.6805 -2.2618
   93SAPS   C39 9179   4.531   0.125   7.307 -0.6066 -0.0108  0.1229
   93SAPS   H9X 9180   4.451   0.202   7.297 -0.5770  0.5696  3.2699
   93SAPS   H9Y 9181   4.623   0.183   7.284 -0.4829 -1.0001 -2.1969
   93SAPS  C310 9182   4.537   0.061   7.441  0.3525  1.0383 -0.0111
   93SAPS  H10X 9183   4.628   0.000   7.458  0.7948  1.2166 -1.6265
   93SAPS  H10Y 9184   4.447  -0.004   7.451  0.3911  0.7269 -1.5287
   93SAPS  C311 9185   4.510   0.164   7.557 -0.0532 -0.1881 -0.1646
   93SAPS  H11X 9186   4.413   0.213   7.531  0.1046 -0.2908 -0.9861
   93SAPS  H11Y 9187   4.596   0.233   7.565  0.8431 -1.1699 -1.0851
   93SAPS  C312 9188   4.497   0.080   7.694  0.2670 -0.5156 -0.2570
   93SAPS  H12X 9189   4.567  -0.003   7.675  1.6109  0.8701 -1.6673
   93SAPS  H12Y 9190   4.392   0.043   7.701 -0.2025  0.4921 -1.4622
   93SAPS  C313 9191   4.552   0.161   7.816  0.1199 -0.0097  0.8061
   93SAPS  H13X 9192   4.476   0.239   7.840  0.7819  1.0432 -0.4186
   93SAPS  H13Y 9193   4.644   0.216   7.790 -0.1965  0.4158  0.5757
   93SAPS  C314 9194   4.570   0.069   7.937  0.3099 -0.1966  0.2854
   93SAPS  H14X 9195   4.648  -0.007   7.917  1.1869  1.3209 -2.6168
   93SAPS  H14Y 9196   4.482   0.010   7.969 -0.9661  0.5470 -1.6755
   93SAPS  C315 9197   4.605   0.159   8.062 -0.4582  0.2291  0.6747
   93SAPS  H15X 9198   4.530   0.240   8.053 -1.3210 -0.7341 -1.4935
   93SAPS  H15Y 9199   4.705   0.205   8.055 -0.1958 -0.3823  0.3268
   93SAPS  C316 9200   4.580   0.098   8.202 -0.1378  0.1629 -0.0014
   93SAPS  H16X 9201   4.645   0.008   8.210 -0.7315 -0.2663  0.1232
   93SAPS  H16Y 9202   4.480   0.052   8.219  0.3177  0.2335  3.9295
   93SAPS  C317 9203   4.614   0.202   8.312  0.4308 -0.0667  0.4281
   93SAPS  H17X 9204   4.519   0.249   8.345 -0.6215 -2.6087  1.2070
   93SAPS  H17Y 9205   4.685   0.278   8.273  0.8634 -0.9660 -0.5959
   93SAPS  C318 9206   4.682   0.136   8.434 -0.4121  0.7586  0.4655
   93SAPS  H18X 9207   4.770   0.087   8.388 -1.5043 -0.9253  0.0728
   93SAPS  H18Y 9208   4.620   0.051   8.471  0.0082 -0.4995 -1.5702
   93SAPS  H18Z 9209   4.712   0.202   8.518  2.8987 -1.4144  1.1570
   94SAPS     N 9210   5.246   2.696   6.024  0.0278  0.2022  0.4564
   94SAPS   HN1 9211   5.230   2.776   6.088  0.1169  0.4151  0.2120
   94SAPS   HN2 9212   5.159   2.645   6.000  0.6209 -1.1825  1.1196
   94SAPS   HN3 9213   5.311   2.635   6.078  0.4726  2.0397  2.1247
   94SAPS   C12 9214   5.289   2.761   5.891 -0.6892  0.3329 -0.1013
   94SAPS  H12A 9215   5.392   2.792   5.902 -0.3996 -0.9288  1.0144
   94SAPS   C13 9216   5.276   2.678   5.762  0.1134  0.3829  0.6753
   94SAPS  O13A 9217   5.246   2.557   5.782  0.0129 -0.2817 -0.1648
   94SAPS  O13B 9218   5.338   2.710   5.656 -0.3321  0.2595  0.0574
   94SAPS   C11 9219   5.208   2.889   5.880 -0.7563 -0.4927 -0.2488
   94SAPS  H11A 9220   5.101   2.857   5.884 -0.5754 -1.0153  0.5174
   94SAPS  H11B 9221   5.239   2.937   5.785  0.8294  1.0787  0.9862
   94SAPS     P 9222   5.184   3.118   5.988  0.0052  0.0622  0.5458
   94SAPS   O13 9223   5.287   3.211   6.036 -0.6431 -0.1328 -0.1912
   94SAPS   O14 9224   5.137   3.152   5.855 -0.0577 -0.7438  0.5021
   94SAPS   O12 9225   5.233   2.967   5.997 -0.4574  0.1788  0.4225
   94SAPS   O11 9226   5.061   3.131   6.080  0.2507 -0.6756 -0.5259
   94SAPS    C1 9227   4.994   3.015   6.147 -0.2362 -0.5142 -0.6455
   94SAPS    HA 9228   4.887   3.032   6.167  0.3423  1.4792  1.1204
   94SAPS    HB 9229   5.008   2.922   6.088  0.1517  0.0566 -1.4808
   94SAPS    C2 9230   5.058   2.997   6.291  0.4336 -0.3602 -0.2187
   94SAPS    HS 9231   5.159   2.955   6.268  1.2208  0.6778  1.1897
   94SAPS   O21 9232   4.980   2.916   6.379 -0.0458  0.2777  0.2805
   94SAPS   C21 9233   5.008   2.785   6.358 -0.4834 -0.0089 -0.1184
   94SAPS   O22 9234   5.080   2.732   6.274  0.2199  0.2245 -0.6448
   94SAPS   C22 9235   4.939   2.700   6.468  0.3348 -0.3909  0.0048
   94SAPS   H2R 9236   4.844   2.664   6.423 -0.6503  1.7162  0.2725
   94SAPS   H2S 9237   5.006   2.612   6.477  2.5846  0.8709 -2.6317
   94SAPS    C3 9238   5.087   3.134   6.365  0.5560 -0.0963 -0.4049
   94SAPS    HX 9239   4.990   3.187   6.358  0.5092  0.2573  1.9689
   94SAPS    HY 9240   5.161   3.187   6.303  0.1042  1.0684  0.0315
   94SAPS   O31 9241   5.126   3.111   6.495  0.0596 -0.0268 -0.1117
   94SAPS   C31 9242   5.130   3.222   6.568 -0.0125 -0.2367 -0.6928
   94SAPS   O32 9243   5.116   3.333   6.520  0.1613 -0.0954 -0.3964
   94SAPS   C32 9244   5.165   3.195   6.711  0.7068 -0.0385 -0.7977
   94SAPS   H2X 9245   5.267   3.235   6.731  1.1980 -1.7496  0.2815
   94SAPS   H2Y 9246   5.172   3.086   6.726  0.6314  0.0308 -0.2193
   94SAPS   C23 9247   4.928   2.764   6.603 -0.6463 -0.2944  0.0642
   94SAPS   H3R 9248   4.880   2.692   6.673  0.1270 -0.5287  0.3593
   94SAPS   H3S 9249   4.856   2.847   6.585 -1.6925 -1.2453 -0.2125
   94SAPS   C24 9250   5.054   2.813   6.667 -0.5198  0.2551  0.0436
   94SAPS   H4R 9251   5.043   2.853   6.770 -0.7169 -0.2063  0.2070
   94SAPS   H4S 9252   5.103   2.891   6.605  0.5266 -1.3491 -1.2566
   94SAPS   C25 9253   5.152   2.689   6.665 -0.0575 -0.2040 -0.3618
   94SAPS   H5R 9254   5.190   2.674   6.563 -1.2348  0.7168 -0.9624
   94SAPS   C26 9255   5.188   2.608   6.762  0.8612 -0.1869 -0.2801
   94SAPS   H6R 9256   5.270   2.539   6.739  1.3604 -0.0163  0.9152
   94SAPS   C27 9257   5.141   2.623   6.903  0.0544  0.3267  0.0303
   94SAPS   H7R 9258   5.084   2.716   6.921  0.5924  0.5454  0.6192
   94SAPS   H7S 9259   5.227   2.634   6.973 -2.4401  0.0762  3.4095
   94SAPS   C28 9260   5.046   2.514   6.952 -0.3669  0.1294  0.4016
   94SAPS   H8R 9261   4.941   2.545   6.955 -0.4579  0.0899 -1.2767
   94SAPS   C29 9262   5.100   2.410   7.020  0.2852 -0.1910 -0.1795
   94SAPS   H9R 9263   5.030   2.349   7.078 -3.1280  2.2174 -1.4456
   94SAPS  C210 9264   5.246   2.375   7.043 -1.3000  0.3365 -0.1404
   94SAPS  H10R 9265   5.262   2.397   7.150  0.1214  0.3743 -0.3408
   94SAPS  H10S 9266   5.312   2.447   6.989  1.4986  0.4743  3.1212
   94SAPS  C211 9267   5.281   2.231   7.002  0.1723  0.4338 -0.3728
   94SAPS  H11R 9268   5.280   2.202   6.896  1.3615 -0.7064 -0.1057
   94SAPS  C212 9269   5.324   2.140   7.089  0.3473  0.3424 -0.6417
   94SAPS  H12R 9270   5.330   2.037   7.051  1.4774  0.2035 -0.1356
   94SAPS  C213 9271   5.341   2.150   7.241  0.1285 -0.1654 -0.1756
   94SAPS  H13R 9272   5.356   2.255   7.274  2.2270 -1.0661  2.0205
   94SAPS  H13S 9273   5.432   2.097   7.275 -1.3304 -1.8883  1.2454
   94SAPS  C214 9274   5.220   2.094   7.318  0.5529  0.1400 -0.1076
   94SAPS  H14R 9275   5.121   2.090   7.270 -0.3169 -2.2531  1.6383
   94SAPS  C215 9276   5.222   2.036   7.447  0.8922 -0.6170  0.8694
   94SAPS  H15R 9277   5.124   2.005   7.487  0.2125  1.1289  0.6312
   94SAPS  C216 9278   5.333   2.015   7.541  0.7902 -0.6845  0.3593
   94SAPS  H16R 9279   5.431   2.049   7.499 -0.7678  1.9071 -1.4339
   94SAPS  H16S 9280   5.345   1.905   7.557  2.6245 -0.4180  1.0383
   94SAPS  C217 9281   5.297   2.088   7.674 -0.5833  0.1943  0.2849
   94SAPS  H17R 9282   5.286   2.198   7.667  1.1466  0.3376 -0.5228
   94SAPS  H17S 9283   5.386   2.068   7.737  1.9387  0.2500 -2.9720
   94SAPS  C218 9284   5.175   2.032   7.754  0.3733 -0.4834  0.6167
   94SAPS  H18R 9285   5.168   1.927   7.716  1.2887  0.0382 -1.0801
   94SAPS  H18S 9286   5.090   2.092   7.716  1.8250 -0.5444 -3.2042
   94SAPS  C219 9287   5.193   2.043   7.905  0.5325  0.4425  0.0281
   94SAPS  H19R 9288   5.294   1.999   7.924 -0.0074 -0.9943 -0.3023
   94SAPS  H19S 9289   5.114   1.977   7.946 -2.3002  1.9935 -2.5455
   94SAPS  C220 9290   5.188   2.177   7.969 -0.5283  0.7660  0.0607
   94SAPS  H20R 9291   5.104   2.234   7.923 -0.1533 -0.3070 -2.0880
   94SAPS  H20S 9292   5.278   2.233   7.937  1.1838 -2.0052 -0.2964
   94SAPS  H20T 9293   5.199   2.162   8.079  1.3535 -0.9347 -0.3098
   94SAPS   C33 9294   5.067   3.267   6.814  0.8099 -0.1257 -0.2101
   94SAPS   H3X 9295   4.969   3.215   6.824 -0.7892  2.5160 -1.1548
   94SAPS   H3Y 9296   5.043   3.369   6.778  0.0702 -0.2600 -0.1127
   94SAPS   C34 9297   5.115   3.261   6.961  0.2486 -0.1476 -0.2194
   94SAPS   H4X 9298   5.217   3.304   6.956 -0.2033  0.9259 -0.2964
   94SAPS   H4Y 9299   5.116   3.153   6.988  2.5595 -0.2499 -0.5263
   94SAPS   C35 9300   5.013   3.327   7.061  0.7054 -0.4074  0.3687
   94SAPS   H5X 9301   4.931   3.253   7.077  1.1345 -0.9056  0.2966
   94SAPS   H5Y 9302   4.966   3.410   7.003  1.3236 -0.0949  0.3067
   94SAPS   C36 9303   5.076   3.365   7.192 -0.3384 -0.0127 -0.4479
   94SAPS   H6X 9304   4.994   3.395   7.261  0.8555  2.3386  0.0417
   94SAPS   H6Y 9305   5.145   3.450   7.173 -0.7304  0.2485 -0.7167
   94SAPS   C37 9306   5.166   3.264   7.258 -0.2844  0.1249  0.1108
   94SAPS   H7X 9307   5.250   3.237   7.190 -0.9119 -1.6264 -0.0010
   94SAPS   H7Y 9308   5.112   3.168   7.273  2.5472 -1.7762 -0.9956
   94SAPS   C38 9309   5.231   3.313   7.387  0.6514  0.4972 -0.6710
   94SAPS   H8X 9310   5.154   3.366   7.447  1.1628  1.3484 -0.7378
   94SAPS   H8Y 9311   5.303   3.395   7.361  0.2537  1.2204  0.4403
   94SAPS   C39 9312   5.296   3.201   7.471  0.9677  0.1941  0.0430
   94SAPS   H9X 9313   5.371   3.244   7.541  0.7424 -1.3610  1.3008
   94SAPS   H9Y 9314   5.355   3.143   7.397 -2.2083 -1.1781 -1.5721
   94SAPS  C310 9315   5.199   3.109   7.547  0.3975  0.2161 -0.8075
   94SAPS  H10X 9316   5.123   3.066   7.479  0.1591  1.1956 -1.1757
   94SAPS  H10Y 9317   5.149   3.172   7.624  1.7086  0.9267 -0.4993
   94SAPS  C311 9318   5.279   3.000   7.629 -0.0889 -0.1398 -0.4532
   94SAPS  H11X 9319   5.343   3.046   7.707  0.2575  0.5753 -1.1397
   94SAPS  H11Y 9320   5.353   2.951   7.562  1.6624  1.3809  0.2654
   94SAPS  C312 9321   5.196   2.903   7.719 -0.4693 -0.2937 -0.3429
   94SAPS  H12X 9322   5.257   2.844   7.791 -0.6323  0.5618  0.5081
   94SAPS  H12Y 9323   5.159   2.831   7.643  1.9704 -2.6693  0.5370
   94SAPS  C313 9324   5.088   2.973   7.807  0.1489  0.5304  0.9250
   94SAPS  H13X 9325   5.027   2.889   7.847 -0.0956 -0.7238 -1.8190
   94SAPS  H13Y 9326   5.015   3.028   7.744  0.9903 -1.9293 -2.4990
   94SAPS  C314 9327   5.144   3.061   7.918 -0.0847 -0.2041 -0.2952
   94SAPS  H14X 9328   5.067   3.122   7.970  0.9059  0.4311  0.4600
   94SAPS  H14Y 9329   5.222   3.136   7.890  0.1010  0.5179  2.0034
   94SAPS  C315 9330   5.212   2.985   8.034  1.2020  0.5723  0.2514
   94SAPS  H15X 9331   5.310   2.938   8.007  1.9811  2.9470 -1.3684
   94SAPS  H15Y 9332   5.142   2.908   8.072  1.2276  0.0100 -0.7804
   94SAPS  C316 9333   5.246   3.068   8.153 -0.1627  0.1550 -0.6423
   94SAPS  H16X 9334   5.188   3.163   8.161 -1.0703 -0.3906 -0.5883
   94SAPS  H16Y 9335   5.354   3.082   8.131 -0.3167  0.3538 -1.3010
   94SAPS  C317 9336   5.238   3.002   8.291  0.0926 -0.2402  0.0051
   94SAPS  H17X 9337   5.299   2.910   8.295 -0.4036 -0.5375  1.6029
   94SAPS  H17Y 9338   5.132   2.978   8.312  0.1853  1.3549  2.8978
   94SAPS  C318 9339   5.283   3.091   8.409  0.4997  0.0467  0.0389
   94SAPS  H18X 9340   5.201   3.165   8.423  0.5884  0.4202 -1.2733
   94SAPS  H18Y 9341   5.370   3.152   8.377  0.0428  0.5666 -0.2296
   94SAPS  H18Z 9342   5.317   3.033   8.498  3.4855  1.7991  0.1740
   95SAPS     N 9343   6.508   6.783   6.103 -0.2640 -0.4120  0.2478
   95SAPS   HN1 9344   6.466   6.841   6.028  1.4172  0.0309 -0.3817
   95SAPS   HN2 9345   6.445   6.774   6.186 -2.7704 -0.7587 -1.5751
   95SAPS   HN3 9346   6.604   6.817   6.123 -0.7088  2.5328 -2.0278
   95SAPS   C12 9347   6.531   6.646   6.041 -0.0281 -0.2725  0.1302
   95SAPS  H12A 9348   6.432   6.609   6.020 -0.9749  1.3943  1.3984
   95SAPS   C13 9349   6.625   6.638   5.914 -0.3760 -0.1122  0.5689
   95SAPS  O13A 9350   6.689   6.740   5.881  0.2480 -0.0049 -0.1127
   95SAPS  O13B 9351   6.646   6.525   5.861  0.2423  0.0580  0.0127
   95SAPS   C11 9352   6.576   6.541   6.149 -0.0134 -0.0950 -0.1778
   95SAPS  H11A 9353   6.682   6.554   6.180  0.9605 -1.4524 -2.6214
   95SAPS  H11B 9354   6.572   6.441   6.099 -3.6787 -0.0580 -0.2205
   95SAPS     P 9355   6.528   6.514   6.401 -0.3466  0.2036 -0.2659
   95SAPS   O13 9356   6.639   6.417   6.426  0.3187  0.0128 -0.3611
   95SAPS   O14 9357   6.557   6.654   6.450  0.1414  0.2664 -0.5872
   95SAPS   O12 9358   6.483   6.523   6.253  0.2807 -0.0246 -0.2473
   95SAPS   O11 9359   6.395   6.460   6.468  0.1614 -0.0814 -0.1018
   95SAPS    C1 9360   6.324   6.550   6.543  0.7145 -0.0452 -0.3083
   95SAPS    HA 9361   6.319   6.650   6.496  0.8247  0.2719  0.3474
   95SAPS    HB 9362   6.216   6.526   6.556  0.4218  1.1820 -0.3614
   95SAPS    C2 9363   6.384   6.566   6.682 -0.5172  0.5951  0.3643
   95SAPS    HS 9364   6.464   6.643   6.678  1.4010 -1.1371  2.6266
   95SAPS   O21 9365   6.420   6.435   6.730 -0.0495  0.0975  0.1019
   95SAPS   C21 9366   6.513   6.443   6.825  0.0193 -0.0238 -0.3310
   95SAPS   O22 9367   6.577   6.542   6.857  0.0852 -0.3174 -0.7118
   95SAPS   C22 9368   6.530   6.310   6.894  0.4825  0.0907  0.4394
   95SAPS   H2R 9369   6.435   6.255   6.912  1.6678 -2.1812  0.0379
   95SAPS   H2S 9370   6.581   6.252   6.814 -2.2568  0.8658 -2.0274
   95SAPS    C3 9371   6.284   6.633   6.781 -1.0457 -0.9417  0.6976
   95SAPS    HX 9372   6.199   6.562   6.783 -1.0595 -0.9491  0.0971
   95SAPS    HY 9373   6.243   6.731   6.750  2.7109  1.1051  1.5428
   95SAPS   O31 9374   6.333   6.643   6.913 -0.3127 -0.5072 -0.1421
   95SAPS   C31 9375   6.380   6.761   6.952  0.0276 -0.3132 -0.3047
   95SAPS   O32 9376   6.368   6.862   6.880 -0.0123  0.3353 -0.1491
   95SAPS   C32 9377   6.450   6.746   7.087  0.2802 -0.5203 -0.3448
   95SAPS   H2X 9378   6.558   6.729   7.066  0.1531 -0.5569 -0.9859
   95SAPS   H2Y 9379   6.424   6.653   7.142 -0.2888  1.9131  3.9431
   95SAPS   C23 9380   6.610   6.317   7.018  0.0881  0.1082 -0.1707
   95SAPS   H3R 9381   6.704   6.375   7.005  1.3097 -1.9608 -1.1394
   95SAPS   H3S 9382   6.653   6.218   7.043 -1.6120 -1.1675 -2.0020
   95SAPS   C24 9383   6.534   6.362   7.146  0.0820  0.3170  0.1091
   95SAPS   H4R 9384   6.461   6.283   7.172  0.1437  0.4195  0.6084
   95SAPS   H4S 9385   6.485   6.456   7.115  1.9029  1.7159  1.2528
   95SAPS   C25 9386   6.631   6.397   7.258  0.4883  0.7288 -0.1899
   95SAPS   H5R 9387   6.720   6.438   7.208 -0.5475  1.8298 -1.1973
   95SAPS   C26 9388   6.622   6.409   7.399  0.3582 -0.1762 -0.4350
   95SAPS   H6R 9389   6.715   6.446   7.446  1.7208 -3.0253 -0.6835
   95SAPS   C27 9390   6.515   6.375   7.502 -1.0930 -0.1045  0.2191
   95SAPS   H7R 9391   6.561   6.295   7.563  1.7326  0.0749 -1.4907
   95SAPS   H7S 9392   6.427   6.327   7.454  0.1553 -2.0566 -0.2215
   95SAPS   C28 9393   6.474   6.494   7.578  0.3352 -0.4169  0.2787
   95SAPS   H8R 9394   6.400   6.556   7.526  1.8233  2.6397  1.5128
   95SAPS   C29 9395   6.533   6.546   7.688 -0.2846  0.0098  0.2505
   95SAPS   H9R 9396   6.506   6.648   7.718  2.6464  1.8602 -2.7745
   95SAPS  C210 9397   6.651   6.491   7.758 -0.5330 -0.4130 -0.5622
   95SAPS  H10R 9398   6.721   6.570   7.792 -2.4061  0.4936  1.4037
   95SAPS  H10S 9399   6.721   6.439   7.688  0.9343  0.2893  0.3304
   95SAPS  C211 9400   6.622   6.412   7.884 -0.4249 -0.3672  0.8757
   95SAPS  H11R 9401   6.622   6.304   7.865  0.6233 -0.1979 -0.2157
   95SAPS  C212 9402   6.585   6.464   8.000 -0.6577  0.5258 -0.4602
   95SAPS  H12R 9403   6.555   6.390   8.076  0.9455 -0.7062 -0.9491
   95SAPS  C213 9404   6.568   6.609   8.037 -0.3113 -0.0073 -0.1629
   95SAPS  H13R 9405   6.460   6.633   8.045  0.0030  1.2755  0.5960
   95SAPS  H13S 9406   6.606   6.679   7.959  0.3331  0.5465  0.6208
   95SAPS  C214 9407   6.642   6.640   8.163 -0.1598 -0.2182 -0.8068
   95SAPS  H14R 9408   6.752   6.628   8.161  0.0977  1.5337  0.4579
   95SAPS  C215 9409   6.579   6.678   8.283  0.3660  0.4251 -0.3612
   95SAPS  H15R 9410   6.637   6.684   8.376  0.7630 -0.4450 -0.5462
   95SAPS  C216 9411   6.431   6.706   8.293  0.3556 -0.1999  0.2229
   95SAPS  H16R 9412   6.407   6.772   8.207 -1.9733 -3.9804 -2.3239
   95SAPS  H16S 9413   6.402   6.749   8.391  1.2355 -0.5585  0.6536
   95SAPS  C217 9414   6.343   6.577   8.285 -0.0391 -0.1333 -0.1640
   95SAPS  H17R 9415   6.366   6.502   8.207 -0.8438 -2.8010  2.0164
   95SAPS  H17S 9416   6.244   6.617   8.255 -1.1058 -1.6283  1.2031
   95SAPS  C218 9417   6.336   6.488   8.418  0.5937 -0.2407  0.0847
   95SAPS  H18R 9418   6.438   6.457   8.448  0.7618  0.0209 -0.1997
   95SAPS  H18S 9419   6.285   6.392   8.397  1.5307 -0.7432  0.0614
   95SAPS  C219 9420   6.269   6.546   8.539  0.1766 -0.5081  0.5316
   95SAPS  H19R 9421   6.162   6.548   8.510  0.7316  0.0685 -1.6454
   95SAPS  H19S 9422   6.302   6.649   8.564  0.8977 -0.2683 -1.3117
   95SAPS  C220 9423   6.277   6.452   8.663 -0.2982 -0.5654  0.4388
   95SAPS  H20R 9424   6.361   6.379   8.664 -0.6142 -0.9272  0.9469
   95SAPS  H20S 9425   6.189   6.389   8.636  0.9766 -1.7825 -1.1108
   95SAPS  H20T 9426   6.270   6.512   8.756  2.5025 -2.1954  1.8279
   95SAPS   C33 9427   6.425   6.859   7.195  0.7527 -0.4712  0.9800
   95SAPS   H3X 9428   6.321   6.893   7.215  0.7115 -0.7393  1.2229
   95SAPS   H3Y 9429   6.476   6.955   7.170  2.4609 -1.8283 -1.1475
   95SAPS   C34 9430   6.487   6.820   7.329  0.1847  0.0732 -0.2778
   95SAPS   H4X 9431   6.593   6.788   7.320  0.0599 -0.4150 -0.0464
   95SAPS   H4Y 9432   6.429   6.732   7.365  1.2676 -0.5311  0.0194
   95SAPS   C35 9433   6.470   6.924   7.440 -0.2134  0.3593 -0.5065
   95SAPS   H5X 9434   6.367   6.968   7.438 -1.2957 -2.0335 -1.6132
   95SAPS   H5Y 9435   6.533   7.005   7.397  0.3188  0.7241  0.9227
   95SAPS   C36 9436   6.515   6.879   7.588 -0.0481 -0.6471  0.9372
   95SAPS   H6X 9437   6.622   6.850   7.579  0.0590 -0.6744  2.0652
   95SAPS   H6Y 9438   6.436   6.808   7.623  0.9234 -0.7387  3.1262
   95SAPS   C37 9439   6.508   7.003   7.682  0.2515  0.1446 -0.4437
   95SAPS   H7X 9440   6.426   7.076   7.668  0.1988  0.7607  2.4300
   95SAPS   H7Y 9441   6.601   7.057   7.654  1.6672 -2.0559 -0.2353
   95SAPS   C38 9442   6.535   6.956   7.827  0.3273  1.2476 -0.7019
   95SAPS   H8X 9443   6.615   6.880   7.838  2.6860  3.2919 -2.5639
   95SAPS   H8Y 9444   6.442   6.905   7.860  1.1383 -0.5992 -1.1376
   95SAPS   C39 9445   6.574   7.074   7.916 -0.0613  0.3291  0.4799
   95SAPS   H9X 9446   6.515   7.167   7.899 -0.6535  0.0347  0.8985
   95SAPS   H9Y 9447   6.681   7.097   7.899 -0.5285  1.6753 -0.8044
   95SAPS  C310 9448   6.573   7.040   8.064 -0.2512  0.0968  0.0661
   95SAPS  H10X 9449   6.621   6.941   8.076  0.1672  0.3887  0.9429
   95SAPS  H10Y 9450   6.466   7.021   8.089 -0.4288  1.2644  0.2602
   95SAPS  C311 9451   6.634   7.151   8.155  0.0909  0.9702 -0.1413
   95SAPS  H11X 9452   6.596   7.138   8.258  0.1335  0.1358 -0.2224
   95SAPS  H11Y 9453   6.622   7.255   8.119  1.9212  0.8210 -1.3540
   95SAPS  C312 9454   6.783   7.141   8.164 -0.2905 -0.2046  0.2776
   95SAPS  H12X 9455   6.819   7.175   8.065 -0.5105  0.3388  0.3803
   95SAPS  H12Y 9456   6.813   7.036   8.182  3.4611  0.5952 -0.4375
   95SAPS  C313 9457   6.841   7.230   8.277  0.0802 -0.0326  0.7727
   95SAPS  H13X 9458   6.787   7.327   8.265 -0.9509 -0.7482 -0.7002
   95SAPS  H13Y 9459   6.950   7.249   8.269  0.6292 -2.7188  0.7621
   95SAPS  C314 9460   6.823   7.172   8.420 -0.1642 -0.0039 -0.4984
   95SAPS  H14X 9461   6.855   7.066   8.427  2.0428  0.6498  0.2110
   95SAPS  H14Y 9462   6.717   7.174   8.455  0.3801  2.6750  1.2795
   95SAPS  C315 9463   6.913   7.252   8.517  0.1818 -0.2532 -0.3490
   95SAPS  H15X 9464   6.911   7.361   8.498  1.0098 -0.1101  0.3557
   95SAPS  H15Y 9465   7.021   7.226   8.508  0.4853  0.5623  0.7727
   95SAPS  C316 9466   6.876   7.225   8.665 -0.4652  0.2938 -0.1714
   95SAPS  H16X 9467   6.894   7.117   8.684  1.1920  0.4901 -0.5056
   95SAPS  H16Y 9468   6.771   7.261   8.675 -1.1323 -0.7973 -2.5795
   95SAPS  C317 9469   6.969   7.293   8.765 -0.5284 -0.6437  0.0905
   95SAPS  H17X 9470   7.077   7.267   8.751 -0.8226 -1.7716 -0.1982
   95SAPS  H17Y 9471   6.944   7.247   8.863  1.8929  0.6676  1.4199
   95SAPS  C318 9472   6.972   7.441   8.759 -0.6361 -0.9356 -0.7213
   95SAPS  H18X 9473   7.012   7.476   8.661 -0.1252 -0.9926 -0.5305
   95SAPS  H18Y 9474   7.039   7.491   8.831 -1.1227 -0.1717 -0.7917
   95SAPS  H18Z 9475   6.872   7.486   8.775 -1.6423 -3.8926  2.7046
   96SAPS     N 9476   2.636   1.623   6.043 -0.4028 -1.0361  0.2042
   96SAPS   HN1 9477   2.678   1.606   6.136  1.7194  3.0388  0.2200
   96SAPS   HN2 9478   2.563   1.553   6.018  1.2144 -2.7962  0.2720
   96SAPS   HN3 9479   2.711   1.620   5.972  1.4532 -0.6119  2.0529
   96SAPS   C12 9480   2.561   1.755   6.052  0.5870 -0.1468 -0.0011
   96SAPS  H12A 9481   2.621   1.835   6.093 -1.2297  2.2678 -1.7697
   96SAPS   C13 9482   2.524   1.813   5.918  0.1864 -0.6556  0.5323
   96SAPS  O13A 9483   2.541   1.750   5.809 -0.0258 -0.0759  0.5495
   96SAPS  O13B 9484   2.489   1.936   5.917 -0.3016 -0.5378 -0.5987
   96SAPS   C11 9485   2.434   1.731   6.140 -0.3664  0.1747  0.7844
   96SAPS  H11A 9486   2.375   1.649   6.094  0.2999 -1.8869  3.3560
   96SAPS  H11B 9487   2.367   1.819   6.149 -0.0017  0.5942 -0.4036
   96SAPS     P 9488   2.494   1.762   6.392 -0.0757 -0.4320  0.0150
   96SAPS   O13 9489   2.509   1.670   6.509 -0.0621  0.4735 -0.2445
   96SAPS   O14 9490   2.615   1.839   6.354  0.4147 -0.3170 -0.2833
   96SAPS   O12 9491   2.473   1.672   6.263 -0.1874  0.5356 -0.0125
   96SAPS   O11 9492   2.371   1.867   6.396  0.3570  0.6102  0.3712
   96SAPS    C1 9493   2.234   1.821   6.418 -0.3050  0.2124  0.4283
   96SAPS    HA 9494   2.170   1.854   6.333 -0.3958 -0.8617  0.0626
   96SAPS    HB 9495   2.228   1.710   6.415 -1.7160  0.2860 -1.1003
   96SAPS    C2 9496   2.166   1.868   6.547 -0.3119  0.2631 -0.4154
   96SAPS    HS 9497   2.154   1.977   6.527  2.8386  0.7547 -0.0704
   96SAPS   O21 9498   2.240   1.828   6.657  0.6513 -0.1733  0.0689
   96SAPS   C21 9499   2.338   1.913   6.693  0.3997  0.1253  0.6524
   96SAPS   O22 9500   2.361   2.025   6.656  0.7280 -0.4337 -0.0965
   96SAPS   C22 9501   2.415   1.845   6.802 -0.9310  0.1962  0.0800
   96SAPS   H2R 9502   2.501   1.781   6.772 -0.8706 -0.5391  1.7130
   96SAPS   H2S 9503   2.472   1.929   6.846 -0.2482 -0.1582 -0.1110
   96SAPS    C3 9504   2.020   1.815   6.564 -0.0440  0.5876  0.1663
   96SAPS    HX 9505   2.019   1.704   6.553  2.8224  0.6811 -2.1921
   96SAPS    HY 9506   1.954   1.853   6.484  0.7149  0.5735 -0.4827
   96SAPS   O31 9507   1.976   1.841   6.700  0.7207 -0.0990  0.0962
   96SAPS   C31 9508   1.937   1.962   6.719  0.0310  0.4459 -0.5502
   96SAPS   O32 9509   1.937   2.054   6.639 -0.3642 -0.0256 -0.4559
   96SAPS   C32 9510   1.876   1.960   6.860  0.0126 -0.4701 -0.3031
   96SAPS   H2X 9511   1.884   1.866   6.919 -0.5333  0.2415  0.9647
   96SAPS   H2Y 9512   1.768   1.986   6.853 -0.4726 -2.7550 -2.5779
   96SAPS   C23 9513   2.344   1.773   6.915 -0.2021  0.8805 -0.9472
   96SAPS   H3R 9514   2.287   1.686   6.875  1.1473 -0.9755  0.9430
   96SAPS   H3S 9515   2.266   1.832   6.967 -0.7422 -0.0605 -0.6606
   96SAPS   C24 9516   2.436   1.696   7.011 -0.3345 -0.5182 -0.2745
   96SAPS   H4R 9517   2.499   1.624   6.955 -0.6285  0.2021 -1.5677
   96SAPS   H4S 9518   2.377   1.632   7.080  1.2874 -0.8321  0.8618
   96SAPS   C25 9519   2.522   1.799   7.075 -0.6355 -1.2899 -0.5071
   96SAPS   H5R 9520   2.529   1.897   7.025  0.8685 -0.9276  0.3542
   96SAPS   C26 9521   2.596   1.786   7.184  0.2060  0.5461  0.2516
   96SAPS   H6R 9522   2.656   1.872   7.216  0.6226  0.3216  0.0715
   96SAPS   C27 9523   2.614   1.660   7.266  0.0289 -0.1930 -0.0115
   96SAPS   H7R 9524   2.584   1.570   7.208 -0.8808 -0.8814  1.4599
   96SAPS   H7S 9525   2.537   1.665   7.345 -0.3645  0.2739 -0.4212
   96SAPS   C28 9526   2.751   1.634   7.322 -0.5291 -0.0660 -0.7167
   96SAPS   H8R 9527   2.819   1.560   7.278  1.0029 -0.9141  2.7019
   96SAPS   C29 9528   2.796   1.702   7.427  0.0751  0.1558 -1.0625
   96SAPS   H9R 9529   2.896   1.672   7.464 -0.9145 -2.6434 -0.4283
   96SAPS  C210 9530   2.725   1.807   7.517 -0.9752 -0.7088 -0.3087
   96SAPS  H10R 9531   2.638   1.857   7.469 -1.2795 -1.3031 -0.3777
   96SAPS  H10S 9532   2.802   1.886   7.530 -1.3958 -0.3396 -0.0437
   96SAPS  C211 9533   2.670   1.734   7.639 -0.4210 -0.3377 -0.2158
   96SAPS  H11R 9534   2.570   1.688   7.627 -0.5188 -0.1739 -0.0410
   96SAPS  C212 9535   2.733   1.718   7.756  0.0798 -0.3575 -0.1737
   96SAPS  H12R 9536   2.678   1.671   7.839 -0.7718  0.0172 -0.5217
   96SAPS  C213 9537   2.869   1.780   7.798  0.0832 -0.1111 -0.2806
   96SAPS  H13R 9538   2.951   1.762   7.726 -0.5569 -2.0766 -0.5938
   96SAPS  H13S 9539   2.900   1.715   7.883  0.2411 -1.0093 -1.0095
   96SAPS  C214 9540   2.879   1.931   7.833 -0.3108  0.3837  0.0705
   96SAPS  H14R 9541   2.851   1.994   7.747  0.1229  0.5417  0.0422
   96SAPS  C215 9542   2.896   1.986   7.958  0.3482  0.5066 -0.3146
   96SAPS  H15R 9543   2.881   2.095   7.965 -0.2853  0.3472  1.0778
   96SAPS  C216 9544   2.908   1.908   8.087  0.5879  0.7598  0.3630
   96SAPS  H16R 9545   3.017   1.898   8.107  0.4190  0.2525  1.0300
   96SAPS  H16S 9546   2.878   1.804   8.061 -1.6440  1.8903 -2.0757
   96SAPS  C217 9547   2.829   1.961   8.211  1.0508 -0.3223 -0.4885
   96SAPS  H17R 9548   2.861   1.903   8.300  1.9534  0.8479 -0.0149
   96SAPS  H17S 9549   2.720   1.941   8.198  1.1676 -0.0731 -2.0374
   96SAPS  C218 9550   2.839   2.112   8.241 -0.4498  0.6230 -0.4270
   96SAPS  H18R 9551   2.815   2.156   8.141 -1.7502 -0.3857 -0.5842
   96SAPS  H18S 9552   2.943   2.132   8.274 -0.0488 -2.9778  0.8736
   96SAPS  C219 9553   2.732   2.159   8.345  0.0110 -0.3372 -0.2840
   96SAPS  H19R 9554   2.773   2.143   8.447  1.9414  3.8307 -0.2347
   96SAPS  H19S 9555   2.634   2.108   8.328 -0.7861  0.5729  1.3744
   96SAPS  C220 9556   2.702   2.308   8.320  0.6401 -0.5805 -0.0899
   96SAPS  H20R 9557   2.782   2.384   8.338 -1.7593  1.7260  1.6940
   96SAPS  H20S 9558   2.620   2.339   8.388  1.6823  3.9783 -0.5583
   96SAPS  H20T 9559   2.670   2.328   8.216  1.2890  2.0891  0.1560
   96SAPS   C33 9560   1.955   2.070   6.941 -0.8015 -0.8679  0.3518
   96SAPS   H3X 9561   1.944   2.159   6.874  0.3398 -2.0610 -1.5012
   96SAPS   H3Y 9562   2.062   2.047   6.959 -0.4261 -1.4224 -2.1866
   96SAPS   C34 9563   1.887   2.105   7.069 -0.0400 -0.3602 -0.2444
   96SAPS   H4X 9564   1.872   2.010   7.125  1.0154  0.3703  1.3324
   96SAPS   H4Y 9565   1.782   2.137   7.053  0.2197  1.2504  1.0761
   96SAPS   C35 9566   1.966   2.208   7.159 -0.0380  0.2114 -0.3040
   96SAPS   H5X 9567   1.969   2.302   7.100  0.0325  0.4767  0.1207
   96SAPS   H5Y 9568   2.067   2.164   7.175 -0.5542 -0.8554  0.1536
   96SAPS   C36 9569   1.897   2.226   7.295  0.0799  0.4037  0.4102
   96SAPS   H6X 9570   1.919   2.141   7.364 -1.6687  0.7829  1.5109
   96SAPS   H6Y 9571   1.786   2.224   7.289  0.0634 -0.7354  0.8211
   96SAPS   C37 9572   1.950   2.352   7.368 -0.3834 -0.7609  0.2068
   96SAPS   H7X 9573   1.875   2.414   7.422 -0.8616 -1.2326  0.0927
   96SAPS   H7Y 9574   1.982   2.418   7.284 -0.2852  0.6576  1.3168
   96SAPS   C38 9575   2.070   2.330   7.458 -0.5158 -0.2284  0.4412
   96SAPS   H8X 9576   2.130   2.422   7.477 -2.1964  0.6970  1.5170
   96SAPS   H8Y 9577   2.132   2.249   7.416  0.9548  1.1594 -0.1954
   96SAPS   C39 9578   2.021   2.280   7.598  0.8025 -0.0703  0.1967
   96SAPS   H9X 9579   1.974   2.180   7.582 -1.4181  1.0785 -0.9562
   96SAPS   H9Y 9580   1.945   2.352   7.635  0.6495  0.5934 -1.3005
   96SAPS  C310 9581   2.129   2.260   7.703  0.0117 -0.1992 -0.2919
   96SAPS  H10X 9582   2.155   2.365   7.727 -1.9273  0.8413 -2.3419
   96SAPS  H10Y 9583   2.222   2.209   7.668  1.5688  1.3315  1.4141
   96SAPS  C311 9584   2.084   2.187   7.836  0.4807 -0.6356  0.2388
   96SAPS  H11X 9585   2.082   2.077   7.821  0.0774 -0.6168  0.1437
   96SAPS  H11Y 9586   1.983   2.224   7.863  0.3934 -0.5777 -0.1617
   96SAPS  C312 9587   2.172   2.209   7.958 -0.2861 -0.2882  0.1228
   96SAPS  H12X 9588   2.190   2.316   7.980 -1.4105  0.3806 -1.9188
   96SAPS  H12Y 9589   2.271   2.175   7.921 -0.0201  1.3597 -0.7717
   96SAPS  C313 9590   2.136   2.125   8.081 -1.1314 -0.1755 -0.6129
   96SAPS  H13X 9591   2.119   2.019   8.050 -0.2652 -0.7583  0.8155
   96SAPS  H13Y 9592   2.040   2.163   8.122 -0.8204  0.5455 -0.5497
   96SAPS  C314 9593   2.239   2.121   8.195  0.0482  0.7583  0.6031
   96SAPS  H14X 9594   2.268   2.226   8.217  2.0167  0.0069  1.8290
   96SAPS  H14Y 9595   2.332   2.076   8.154 -0.4502  1.1108 -0.9641
   96SAPS  C315 9596   2.194   2.043   8.312  0.0973 -0.0807  0.1783
   96SAPS  H15X 9597   2.176   1.934   8.295  1.4504  0.1200 -3.2078
   96SAPS  H15Y 9598   2.103   2.086   8.360 -2.0510  0.5720 -3.9701
   96SAPS  C316 9599   2.303   2.058   8.416  0.3097 -0.4692 -0.3367
   96SAPS  H16X 9600   2.336   2.163   8.428 -2.5666  0.3405  1.8321
   96SAPS  H16Y 9601   2.389   2.005   8.370  0.2912  1.1967 -2.4014
   96SAPS  C317 9602   2.265   2.003   8.555 -0.2413  0.2819 -0.5590
   96SAPS  H17X 9603   2.237   1.895   8.554 -2.7460  0.8678 -1.0096
   96SAPS  H17Y 9604   2.175   2.054   8.596 -0.3579 -1.1898  1.1291
   96SAPS  C318 9605   2.376   2.022   8.653 -0.2729  0.0102  0.2678
   96SAPS  H18X 9606   2.472   2.000   8.602 -1.2391 -1.2819 -1.1093
   96SAPS  H18Y 9607   2.369   1.957   8.743  1.6043  0.0453  0.4692
   96SAPS  H18Z 9608   2.381   2.131   8.673 -2.4636 -0.1507  2.0759
   97SAPS     N 9609   2.363   0.675   6.332 -0.2390  0.0020 -0.5725
   97SAPS   HN1 9610   2.392   0.596   6.394  0.9819  0.5796 -0.3715
   97SAPS   HN2 9611   2.439   0.744   6.321  1.5466 -1.9887 -1.6092
   97SAPS   HN3 9612   2.279   0.715   6.378  0.5752 -0.3722  1.3406
   97SAPS   C12 9613   2.320   0.623   6.203 -0.3115  1.2104  0.4718
   97SAPS  H12A 9614   2.235   0.559   6.218  1.0828 -0.7574  0.3510
   97SAPS   C13 9615   2.280   0.720   6.086 -0.2942 -0.0756  0.4864
   97SAPS  O13A 9616   2.313   0.841   6.100  0.3303  0.0911 -0.5615
   97SAPS  O13B 9617   2.245   0.670   5.973  0.2524  0.1223 -0.1541
   97SAPS   C11 9618   2.452   0.545   6.153  0.3363  0.0420 -0.2550
   97SAPS  H11A 9619   2.522   0.615   6.103  1.6276  0.5745  2.1618
   97SAPS  H11B 9620   2.417   0.482   6.068  0.1407 -0.2461  0.0370
   97SAPS     P 9621   2.647   0.386   6.225 -0.3475 -0.1785  0.0381
   97SAPS   O13 9622   2.646   0.250   6.286  0.3838 -0.0689 -0.5205
   97SAPS   O14 9623   2.664   0.385   6.076  0.4094  0.3108 -0.1170
   97SAPS   O12 9624   2.510   0.460   6.259  0.3228 -0.8217  0.3482
   97SAPS   O11 9625   2.754   0.484   6.293 -0.4507 -0.1201  0.2794
   97SAPS    C1 9626   2.707   0.564   6.400 -0.1386 -0.0000 -0.3212
   97SAPS    HA 9627   2.752   0.664   6.383 -1.1663  0.5292 -0.0144
   97SAPS    HB 9628   2.597   0.576   6.408 -0.1951  0.0846 -1.1889
   97SAPS    C2 9629   2.767   0.526   6.541 -0.1898 -0.2529 -0.3703
   97SAPS    HS 9630   2.877   0.536   6.544 -0.3305  1.3023  0.7455
   97SAPS   O21 9631   2.721   0.388   6.578 -0.0556 -0.3831  0.1291
   97SAPS   C21 9632   2.807   0.291   6.538  0.3262  0.1759  0.6794
   97SAPS   O22 9633   2.922   0.311   6.494 -0.0625 -0.4136  0.2350
   97SAPS   C22 9634   2.745   0.156   6.586 -0.6444 -0.0631  0.5537
   97SAPS   H2R 9635   2.745   0.166   6.697 -0.1069  0.2398  0.5267
   97SAPS   H2S 9636   2.642   0.142   6.546  0.0107 -2.2103 -0.5680
   97SAPS    C3 9637   2.712   0.623   6.647  0.0449  0.3523 -0.2828
   97SAPS    HX 9638   2.602   0.630   6.635 -0.3001 -2.0849  0.9067
   97SAPS    HY 9639   2.750   0.727   6.646  1.5398 -0.1698 -0.0690
   97SAPS   O31 9640   2.722   0.562   6.782 -0.4476  0.2682  0.1259
   97SAPS   C31 9641   2.845   0.554   6.833  0.1900  0.6665 -0.5627
   97SAPS   O32 9642   2.940   0.612   6.795 -0.5266 -0.7470  0.8374
   97SAPS   C32 9643   2.827   0.484   6.966 -0.4206  0.1214  0.5829
   97SAPS   H2X 9644   2.760   0.545   7.030  0.9860  1.9261  0.4245
   97SAPS   H2Y 9645   2.927   0.497   7.013  0.0106  0.3633 -0.3837
   97SAPS   C23 9646   2.829   0.025   6.553 -0.4120  0.4370  0.1732
   97SAPS   H3R 9647   2.878   0.029   6.453  0.2089  0.4597  0.4695
   97SAPS   H3S 9648   2.764  -0.063   6.536  2.4680 -2.1718  1.5479
   97SAPS   C24 9649   2.938  -0.010   6.657 -0.9177 -0.0585 -0.4330
   97SAPS   H4R 9650   2.969  -0.116   6.659 -2.1073 -0.4250 -0.7055
   97SAPS   H4S 9651   2.893   0.003   6.758 -2.7980  1.3144 -1.3834
   97SAPS   C25 9652   3.062   0.082   6.656  0.1948 -0.4643  0.2503
   97SAPS   H5R 9653   3.095   0.115   6.557 -0.4785 -1.2469 -0.2458
   97SAPS   C26 9654   3.123   0.127   6.769 -0.0537 -0.4170  0.1319
   97SAPS   H6R 9655   3.191   0.213   6.760 -2.6436  1.7100 -0.3193
   97SAPS   C27 9656   3.092   0.092   6.911 -0.9339  0.5649 -0.3884
   97SAPS   H7R 9657   2.986   0.093   6.943 -1.4004 -0.4256 -1.8181
   97SAPS   H7S 9658   3.143   0.166   6.976  1.2433 -1.6517  0.6057
   97SAPS   C28 9659   3.138  -0.048   6.956  0.8747 -0.0079 -0.6896
   97SAPS   H8R 9660   3.153  -0.118   6.873 -0.4210 -1.2338  0.0616
   97SAPS   C29 9661   3.160  -0.089   7.087 -0.7025  0.9857  0.8895
   97SAPS   H9R 9662   3.191  -0.194   7.091  1.1339  1.3694 -1.2719
   97SAPS  C210 9663   3.145  -0.006   7.207 -0.3955  0.1585 -0.7391
   97SAPS  H10R 9664   3.055  -0.047   7.258 -1.5629  1.3926 -1.7071
   97SAPS  H10S 9665   3.110   0.098   7.188 -1.4223 -0.0255  0.0265
   97SAPS  C211 9666   3.268  -0.000   7.297  0.9843 -0.2175 -0.1609
   97SAPS  H11R 9667   3.368  -0.008   7.252  0.4709  0.9933 -1.5819
   97SAPS  C212 9668   3.260   0.007   7.436  0.3748 -0.2447 -0.1209
   97SAPS  H12R 9669   3.356  -0.001   7.488  1.7883  1.6043 -2.2552
   97SAPS  C213 9670   3.136   0.012   7.521 -0.4471 -0.5665 -0.0470
   97SAPS  H13R 9671   3.041   0.009   7.464  0.0733  1.6745 -1.1656
   97SAPS  H13S 9672   3.127   0.119   7.551  0.9703  0.3669 -2.6151
   97SAPS  C214 9673   3.140  -0.080   7.634 -0.0438 -0.3337 -0.0586
   97SAPS  H14R 9674   3.106  -0.183   7.615 -0.6114 -0.0654 -0.5585
   97SAPS  C215 9675   3.170  -0.045   7.758  0.7758 -0.0213 -0.4288
   97SAPS  H15R 9676   3.152  -0.123   7.833  0.5854  0.3563 -0.0708
   97SAPS  C216 9677   3.200   0.085   7.822 -0.4175 -0.0288  0.2481
   97SAPS  H16R 9678   3.234   0.153   7.741 -1.2214 -0.8451 -0.8147
   97SAPS  H16S 9679   3.284   0.078   7.894  0.0276  1.5774 -0.0754
   97SAPS  C217 9680   3.080   0.146   7.896  0.6209  0.8272  0.9080
   97SAPS  H17R 9681   3.035   0.074   7.968  1.3484 -0.7522 -0.1642
   97SAPS  H17S 9682   3.001   0.150   7.818  0.5484 -2.1596  0.7182
   97SAPS  C218 9683   3.107   0.288   7.954 -0.4940  0.6612 -0.9944
   97SAPS  H18R 9684   3.154   0.347   7.873 -3.3530  3.4748 -0.7914
   97SAPS  H18S 9685   3.178   0.277   8.039  0.2056  3.0735 -1.2127
   97SAPS  C219 9686   2.982   0.344   8.021  0.8071 -0.6761  0.2032
   97SAPS  H19R 9687   2.961   0.269   8.100  2.4298 -0.1130  1.2235
   97SAPS  H19S 9688   2.893   0.360   7.957  3.0194  1.5164 -2.6084
   97SAPS  C220 9689   2.981   0.485   8.084 -0.1876  0.6688 -0.1539
   97SAPS  H20R 9690   3.078   0.504   8.136  0.1578 -1.4070  0.0308
   97SAPS  H20S 9691   2.902   0.497   8.161 -1.4182  4.8439 -1.7789
   97SAPS  H20T 9692   2.984   0.564   8.006 -2.2780  0.3464 -0.6031
   97SAPS   C33 9693   2.797   0.327   6.965  0.2396 -0.6156 -0.1017
   97SAPS   H3X 9694   2.837   0.281   6.873 -0.1131  0.9958 -1.0956
   97SAPS   H3Y 9695   2.687   0.314   6.956  0.0006  0.6389  0.7202
   97SAPS   C34 9696   2.844   0.253   7.093  0.3377 -0.0278  0.5725
   97SAPS   H4X 9697   2.952   0.271   7.111  0.9233  0.8853 -3.0828
   97SAPS   H4Y 9698   2.823   0.144   7.085 -0.2420  0.1510 -0.4711
   97SAPS   C35 9699   2.758   0.308   7.207 -0.6955  0.1690 -0.2790
   97SAPS   H5X 9700   2.650   0.284   7.201 -0.6636  0.3423 -3.7572
   97SAPS   H5Y 9701   2.775   0.417   7.218  1.2095 -0.1503  0.2989
   97SAPS   C36 9702   2.798   0.228   7.339 -0.5035  0.0685  0.5522
   97SAPS   H6X 9703   2.907   0.228   7.361  0.3242 -3.3641 -2.5033
   97SAPS   H6Y 9704   2.794   0.119   7.319  1.4932 -0.4899  2.8022
   97SAPS   C37 9705   2.716   0.278   7.455  0.1141 -0.8939  0.5916
   97SAPS   H7X 9706   2.606   0.273   7.441  0.0283  2.6230 -0.9889
   97SAPS   H7Y 9707   2.738   0.386   7.469  1.3100 -0.8479 -1.3633
   97SAPS   C38 9708   2.747   0.198   7.581  0.1760  0.0569 -0.4373
   97SAPS   H8X 9709   2.857   0.184   7.587  0.0331 -1.7476 -1.4272
   97SAPS   H8Y 9710   2.710   0.094   7.568  0.5288  0.0848 -1.8258
   97SAPS   C39 9711   2.693   0.255   7.712  0.0215  0.3427 -0.3104
   97SAPS   H9X 9712   2.727   0.361   7.712 -2.2123  1.1082 -1.4653
   97SAPS   H9Y 9713   2.733   0.186   7.789 -0.5754  0.2262 -0.1057
   97SAPS  C310 9714   2.543   0.254   7.717 -0.0363  0.1336 -0.5547
   97SAPS  H10X 9715   2.500   0.152   7.706 -1.3527  0.5788  0.1888
   97SAPS  H10Y 9716   2.509   0.312   7.629 -1.5427  2.3566  1.3959
   97SAPS  C311 9717   2.475   0.318   7.842 -0.2803 -0.2708 -0.2231
   97SAPS  H11X 9718   2.507   0.422   7.861 -0.4393  0.0380 -1.5319
   97SAPS  H11Y 9719   2.500   0.254   7.930  0.6435  2.2396  1.4673
   97SAPS  C312 9720   2.318   0.319   7.827 -0.0430 -0.2651 -0.3186
   97SAPS  H12X 9721   2.278   0.220   7.857  0.9476  0.2911  3.4170
   97SAPS  H12Y 9722   2.273   0.343   7.729 -0.9924 -0.5533  0.0387
   97SAPS  C313 9723   2.253   0.421   7.923  0.6424  0.9097  0.0754
   97SAPS  H13X 9724   2.267   0.526   7.893 -2.9494  1.5047  0.0467
   97SAPS  H13Y 9725   2.300   0.396   8.021 -1.8384 -1.5504  0.7756
   97SAPS  C314 9726   2.102   0.398   7.944  0.2768  0.3510 -0.0506
   97SAPS  H14X 9727   2.099   0.294   7.982 -0.3240 -0.2109 -1.5778
   97SAPS  H14Y 9728   2.052   0.405   7.845  0.3290 -0.2304 -0.1212
   97SAPS  C315 9729   2.055   0.496   8.050  0.1338 -0.1629  0.5632
   97SAPS  H15X 9730   2.067   0.599   8.009 -0.1189 -0.1815  0.4436
   97SAPS  H15Y 9731   2.114   0.486   8.144  1.0445  0.1740  0.0340
   97SAPS  C316 9732   1.904   0.477   8.080 -0.2650 -0.0109 -0.1416
   97SAPS  H16X 9733   1.893   0.370   8.111 -1.5979  0.1066 -0.1507
   97SAPS  H16Y 9734   1.844   0.509   7.992  1.8632  0.2786 -1.5603
   97SAPS  C317 9735   1.870   0.543   8.213  0.5302 -0.5267 -0.0217
   97SAPS  H17X 9736   1.945   0.517   8.290 -0.2231 -2.2377  0.1683
   97SAPS  H17Y 9737   1.776   0.497   8.250  0.4386 -1.3836 -1.2666
   97SAPS  C318 9738   1.850   0.695   8.202 -0.1145  0.5809  0.0556
   97SAPS  H18X 9739   1.794   0.742   8.285 -0.7030 -2.1309  1.3021
   97SAPS  H18Y 9740   1.818   0.718   8.098 -2.5591 -1.0124  0.3663
   97SAPS  H18Z 9741   1.951   0.741   8.214  0.2388  0.0415 -0.7489
   98SAPS     N 9742   0.120   6.587   5.840 -0.0349  0.0097 -0.0087
   98SAPS   HN1 9743   0.186   6.660   5.807 -1.1669  0.9779 -0.1819
   98SAPS   HN2 9744   0.096   6.508   5.777 -1.4902  0.3963  0.0196
   98SAPS   HN3 9745   0.038   6.644   5.870  1.1987  2.4107 -0.9020
   98SAPS   C12 9746   0.193   6.530   5.961 -0.5680 -0.0202 -0.5588
   98SAPS  H12A 9747   0.137   6.445   5.999 -0.3103 -0.4236 -1.0625
   98SAPS   C13 9748   0.330   6.460   5.934  0.2046  0.5466  0.0890
   98SAPS  O13A 9749   0.376   6.455   5.817  0.2405  0.5405  0.2456
   98SAPS  O13B 9750   0.387   6.396   6.030  0.4777 -0.7525  0.1572
   98SAPS   C11 9751   0.217   6.635   6.070  0.4763 -0.3910  0.3096
   98SAPS  H11A 9752   0.307   6.698   6.056  1.0157 -1.1522  0.2849
   98SAPS  H11B 9753   0.244   6.584   6.165  2.4922 -0.0697 -0.0519
   98SAPS     P 9754   0.095   6.839   6.193  0.4510  0.2979 -0.2422
   98SAPS   O13 9755   0.171   6.938   6.119 -0.4092 -0.0374 -0.9030
   98SAPS   O14 9756  -0.046   6.874   6.219 -0.2227  0.4047 -0.4535
   98SAPS   O12 9757   0.101   6.712   6.105  0.1203 -0.5056  0.2470
   98SAPS   O11 9758   0.174   6.787   6.320  0.7593  0.0949  0.2718
   98SAPS    C1 9759   0.103   6.749   6.437  0.4526  0.5934  0.3928
   98SAPS    HA 9760  -0.007   6.735   6.427  0.2773 -0.2299  2.7072
   98SAPS    HB 9761   0.135   6.645   6.461  2.4687  1.4794  1.7333
   98SAPS    C2 9762   0.134   6.821   6.566 -0.0308 -1.1981  0.2717
   98SAPS    HS 9763   0.127   6.929   6.542  1.8392 -0.2194  3.4356
   98SAPS   O21 9764   0.265   6.789   6.602 -0.2446  0.1957  0.8065
   98SAPS   C21 9765   0.336   6.878   6.663  0.8527 -0.3194 -0.1084
   98SAPS   O22 9766   0.291   6.993   6.687  0.0662  0.1662 -0.1417
   98SAPS   C22 9767   0.463   6.814   6.707 -0.2284 -0.0517 -0.0151
   98SAPS   H2R 9768   0.445   6.722   6.766 -0.2838  0.9602  1.6122
   98SAPS   H2S 9769   0.522   6.772   6.623  1.3336  1.6225  0.1711
   98SAPS    C3 9770   0.042   6.785   6.689  0.0495  0.4278 -0.2225
   98SAPS    HX 9771   0.075   6.683   6.717 -2.4808 -0.7532 -1.1738
   98SAPS    HY 9772  -0.067   6.772   6.667 -0.0405 -0.2581  0.5970
   98SAPS   O31 9773   0.058   6.866   6.803 -0.0272 -0.0998  0.1280
   98SAPS   C31 9774   0.001   6.979   6.792  0.6503  0.0662  0.8390
   98SAPS   O32 9775  -0.078   7.011   6.706  0.5761 -0.1468 -0.5419
   98SAPS   C32 9776   0.056   7.067   6.909 -0.0417  0.2157 -0.2400
   98SAPS   H2X 9777   0.087   7.164   6.864 -1.7244 -0.4137 -3.0175
   98SAPS   H2Y 9778   0.148   7.012   6.936  0.9582  0.9565 -1.9527
   98SAPS   C23 9779   0.552   6.908   6.794 -0.5329  0.1281  0.4704
   98SAPS   H3R 9780   0.567   6.993   6.725 -1.2718 -1.3373 -1.6199
   98SAPS   H3S 9781   0.653   6.861   6.801 -0.4690  0.5758  3.7559
   98SAPS   C24 9782   0.485   6.949   6.923  0.1725 -0.1666  0.0002
   98SAPS   H4R 9783   0.450   6.866   6.988 -1.6157  2.3262  2.4998
   98SAPS   H4S 9784   0.385   6.986   6.890  0.2050  0.3750  0.4907
   98SAPS   C25 9785   0.569   7.042   7.004  0.1448  0.0073  0.0411
   98SAPS   H5R 9786   0.678   7.029   6.997  0.6704  2.0103  2.7923
   98SAPS   C26 9787   0.540   7.147   7.083  0.4760 -0.8258 -0.0498
   98SAPS   H6R 9788   0.630   7.196   7.124  0.3472 -0.6642  0.0394
   98SAPS   C27 9789   0.405   7.205   7.117 -0.0428  0.4361  0.3174
   98SAPS   H7R 9790   0.330   7.188   7.037  0.6594 -1.0301 -0.0722
   98SAPS   H7S 9791   0.417   7.315   7.131  2.6854  0.4609 -1.4996
   98SAPS   C28 9792   0.365   7.133   7.241  0.5707  0.3544 -0.0375
   98SAPS   H8R 9793   0.322   7.035   7.217  0.3453  1.0803 -2.8938
   98SAPS   C29 9794   0.389   7.153   7.372 -0.1180 -0.5293 -0.7026
   98SAPS   H9R 9795   0.352   7.077   7.442  1.3314  0.4187  1.1980
   98SAPS  C210 9796   0.468   7.267   7.433 -0.6034  0.1006 -0.3272
   98SAPS  H10R 9797   0.510   7.329   7.351 -0.1613  0.0992 -0.1067
   98SAPS  H10S 9798   0.553   7.215   7.482 -0.0087  1.7043  0.4101
   98SAPS  C211 9799   0.388   7.360   7.519 -0.9351  0.6757 -0.2256
   98SAPS  H11R 9800   0.292   7.384   7.469  0.0772 -0.2098 -2.7781
   98SAPS  C212 9801   0.427   7.417   7.634 -0.1155  0.6461 -0.5728
   98SAPS  H12R 9802   0.358   7.480   7.693  0.9825 -0.2976  1.8733
   98SAPS  C213 9803   0.561   7.403   7.704  0.2035 -0.2170  0.1305
   98SAPS  H13R 9804   0.624   7.316   7.673 -0.8353 -0.7597 -0.5140
   98SAPS  H13S 9805   0.546   7.385   7.813  1.3477  1.0410  0.5123
   98SAPS  C214 9806   0.640   7.527   7.681  0.0452  0.1710 -0.0497
   98SAPS  H14R 9807   0.658   7.540   7.573  0.3271 -0.1713 -0.0487
   98SAPS  C215 9808   0.684   7.618   7.773  0.0888  0.1549 -0.0628
   98SAPS  H15R 9809   0.743   7.701   7.732  1.5403 -1.3219 -1.0816
   98SAPS  C216 9810   0.666   7.606   7.922  0.2373 -0.6276 -0.5878
   98SAPS  H16R 9811   0.568   7.560   7.947 -0.5466  1.7339  1.0278
   98SAPS  H16S 9812   0.658   7.709   7.964  1.4009 -1.6499  2.4521
   98SAPS  C217 9813   0.780   7.529   7.978  0.1610  0.6547  0.0908
   98SAPS  H17R 9814   0.871   7.582   7.945  0.0806  1.4067  1.0281
   98SAPS  H17S 9815   0.789   7.434   7.921  0.3431  0.9409 -0.3619
   98SAPS  C218 9816   0.778   7.515   8.129 -0.3202  0.2959 -0.6344
   98SAPS  H18R 9817   0.705   7.434   8.154  0.0762  0.2714  0.5066
   98SAPS  H18S 9818   0.730   7.606   8.172 -0.9965  1.3151 -3.3428
   98SAPS  C219 9819   0.912   7.478   8.197  0.2322  0.1353 -0.8293
   98SAPS  H19R 9820   0.906   7.490   8.307  0.0166 -2.5051 -0.4741
   98SAPS  H19S 9821   0.988   7.553   8.166  2.0212 -1.7282 -1.2092
   98SAPS  C220 9822   0.966   7.334   8.173  0.1065 -0.8079 -0.4937
   98SAPS  H20R 9823   0.903   7.261   8.229  0.0056  0.3925  1.0227
   98SAPS  H20S 9824   1.070   7.323   8.209 -0.1714 -1.1469  0.2208
   98SAPS  H20T 9825   0.952   7.315   8.064 -1.2643  0.7718 -0.6377
   98SAPS   C33 9826  -0.051   7.078   7.022 -0.7782 -0.3273 -0.1789
   98SAPS   H3X 9827  -0.079   6.983   7.070  1.5456 -2.0526 -1.9735
   98SAPS   H3Y 9828  -0.140   7.127   6.977 -0.7352  1.2593  1.3583
   98SAPS   C34 9829  -0.019   7.170   7.134  0.3928 -0.1535  0.0728
   98SAPS   H4X 9830   0.067   7.130   7.192  1.0797  2.8331  1.3117
   98SAPS   H4Y 9831  -0.108   7.175   7.200  1.0649 -0.6672  1.0402
   98SAPS   C35 9832   0.015   7.308   7.086 -0.0518 -0.2891 -0.3890
   98SAPS   H5X 9833  -0.076   7.358   7.048  0.8167  0.5744 -1.3966
   98SAPS   H5Y 9834   0.091   7.322   7.007 -1.1903  3.7731 -0.9608
   98SAPS   C36 9835   0.055   7.407   7.202  0.7972 -0.0485 -0.1618
   98SAPS   H6X 9836   0.144   7.372   7.258  0.0221 -0.1310  1.0485
   98SAPS   H6Y 9837  -0.021   7.411   7.283  1.1392 -0.7561  0.2075
   98SAPS   C37 9838   0.097   7.550   7.151 -0.2506  0.1722  0.1277
   98SAPS   H7X 9839   0.019   7.613   7.102  2.7814  4.4835  0.2926
   98SAPS   H7Y 9840   0.190   7.542   7.091 -0.2504  0.0987  0.1376
   98SAPS   C38 9841   0.122   7.633   7.280  0.5505 -0.4785  0.4331
   98SAPS   H8X 9842   0.185   7.577   7.353  0.6813 -0.7015  0.1523
   98SAPS   H8Y 9843   0.031   7.658   7.338  1.0417 -1.7558  1.7986
   98SAPS   C39 9844   0.203   7.759   7.258 -0.0566  0.0026  0.3206
   98SAPS   H9X 9845   0.138   7.819   7.191  1.8654  0.7596 -0.9636
   98SAPS   H9Y 9846   0.296   7.746   7.199  0.0209 -0.8359  0.6189
   98SAPS  C310 9847   0.242   7.832   7.387 -0.5662 -0.4432  0.1272
   98SAPS  H10X 9848   0.151   7.867   7.441  0.8063  0.5181  1.9185
   98SAPS  H10Y 9849   0.307   7.914   7.351  0.7098 -0.8121  1.5151
   98SAPS  C311 9850   0.325   7.746   7.479 -0.2973  0.3566 -0.1982
   98SAPS  H11X 9851   0.401   7.702   7.411 -1.1117 -4.6463  1.7322
   98SAPS  H11Y 9852   0.269   7.657   7.513  0.4918  0.3750  1.2527
   98SAPS  C312 9853   0.395   7.812   7.594  0.2401  0.3278  0.6023
   98SAPS  H12X 9854   0.447   7.907   7.571  3.5983 -1.4540  0.2309
   98SAPS  H12Y 9855   0.474   7.740   7.624 -1.6854 -1.6529  1.2273
   98SAPS  C313 9856   0.290   7.846   7.701 -1.7264  0.4700  0.2647
   98SAPS  H13X 9857   0.216   7.764   7.704  1.2249 -2.4409 -0.1730
   98SAPS  H13Y 9858   0.237   7.939   7.672 -2.4671  0.8135  2.4890
   98SAPS  C314 9859   0.362   7.842   7.842 -0.4226 -0.1043  0.6099
   98SAPS  H14X 9860   0.434   7.758   7.852  1.2561  1.2162  0.1591
   98SAPS  H14Y 9861   0.286   7.834   7.922  0.0710  2.0781  1.3709
   98SAPS  C315 9862   0.445   7.970   7.850  0.0565  0.0307 -0.7884
   98SAPS  H15X 9863   0.379   8.055   7.821  1.1549  0.0419 -3.5788
   98SAPS  H15Y 9864   0.527   7.981   7.775  0.0143  0.8504 -0.7225
   98SAPS  C316 9865   0.497   7.991   7.996 -0.3639 -0.1219 -0.9169
   98SAPS  H16X 9866   0.545   8.091   7.987 -3.1896  1.3114 -1.2728
   98SAPS  H16Y 9867   0.574   7.917   8.029 -0.5190 -0.6447 -1.6948
   98SAPS  C317 9868   0.396   8.017   8.107 -0.1532  0.0446 -0.4520
   98SAPS  H17X 9869   0.322   7.935   8.111  1.0771 -1.1232 -0.6898
   98SAPS  H17Y 9870   0.342   8.112   8.084  0.0830  0.7773  1.7804
   98SAPS  C318 9871   0.446   8.026   8.247 -0.3715 -0.5840 -0.2103
   98SAPS  H18X 9872   0.541   8.082   8.257 -1.5658  1.3114  1.1859
   98SAPS  H18Y 9873   0.468   7.925   8.289  0.9032 -0.3414 -0.2594
   98SAPS  H18Z 9874   0.364   8.069   8.308 -1.4787 -0.8592 -1.4727
   99SAPS     N 9875   3.152   4.714   6.301  0.1865 -0.1596 -0.6629
   99SAPS   HN1 9876   3.069   4.777   6.310  1.3038  1.0369  2.8319
   99SAPS   HN2 9877   3.122   4.615   6.307 -1.8710  0.4497  0.2851
   99SAPS   HN3 9878   3.202   4.747   6.386 -1.4931 -0.4324  0.4954
   99SAPS   C12 9879   3.215   4.749   6.174  0.3166  0.2848  0.0342
   99SAPS  H12A 9880   3.308   4.693   6.167 -0.3852 -0.8147 -0.7193
   99SAPS   C13 9881   3.135   4.721   6.049  0.2805  0.1052 -0.2402
   99SAPS  O13A 9882   3.023   4.664   6.066 -0.2067 -0.0720  0.6359
   99SAPS  O13B 9883   3.175   4.759   5.934  0.4424 -0.4204  0.0819
   99SAPS   C11 9884   3.269   4.897   6.178  0.4143  0.2264  0.3155
   99SAPS  H11A 9885   3.179   4.961   6.182 -0.3240 -0.6131 -1.5583
   99SAPS  H11B 9886   3.316   4.920   6.080  0.3033 -1.7856 -0.2546
   99SAPS     P 9887   3.505   4.951   6.271 -0.0237  0.1556  0.4841
   99SAPS   O13 9888   3.583   4.828   6.246 -0.2782  0.5328  0.4118
   99SAPS   O14 9889   3.515   5.064   6.174 -0.4215 -0.4349 -0.1529
   99SAPS   O12 9890   3.355   4.915   6.288  0.4994  0.6439  0.1324
   99SAPS   O11 9891   3.544   5.011   6.411  0.4103 -0.6924  0.5577
   99SAPS    C1 9892   3.468   5.118   6.478  0.0913  0.1887  0.2538
   99SAPS    HA 9893   3.514   5.217   6.457 -1.5914  1.1384  0.8614
   99SAPS    HB 9894   3.369   5.136   6.432  0.6797  3.0845 -0.1043
   99SAPS    C2 9895   3.468   5.095   6.633  0.2435  0.4496 -0.0594
   99SAPS    HS 9896   3.405   5.169   6.687 -0.1111 -1.5997  2.5327
   99SAPS   O21 9897   3.604   5.096   6.688  0.0846  0.0990  0.2308
   99SAPS   C21 9898   3.657   5.217   6.679  0.4309  0.3384 -0.5014
   99SAPS   O22 9899   3.599   5.324   6.663  0.0505 -0.2258  0.0084
   99SAPS   C22 9900   3.808   5.215   6.710  0.2266 -0.5065  0.1321
   99SAPS   H2R 9901   3.857   5.118   6.686  0.6874 -0.1924 -0.2134
   99SAPS   H2S 9902   3.852   5.296   6.647 -1.9684  1.2433  0.7154
   99SAPS    C3 9903   3.403   4.962   6.675 -0.0893  0.2752  0.7065
   99SAPS    HX 9904   3.454   4.876   6.626  0.4237  1.8134 -1.6506
   99SAPS    HY 9905   3.297   4.955   6.641 -0.1206  0.8196  0.6894
   99SAPS   O31 9906   3.406   4.954   6.816 -0.3029  0.5421  0.5545
   99SAPS   C31 9907   3.334   4.852   6.868  0.3074  0.1956  0.6896
   99SAPS   O32 9908   3.267   4.774   6.805  0.8073  0.0322  0.3225
   99SAPS   C32 9909   3.339   4.865   7.022  0.4262 -0.8755  0.5097
   99SAPS   H2X 9910   3.298   4.967   7.042 -0.3018 -0.7921 -1.2562
   99SAPS   H2Y 9911   3.448   4.860   7.040  0.4111 -1.2218  0.5088
   99SAPS   C23 9912   3.824   5.254   6.860  0.4480 -0.0127 -0.5882
   99SAPS   H3R 9913   3.791   5.170   6.925 -4.5320  0.1466 -2.4787
   99SAPS   H3S 9914   3.753   5.334   6.890  1.0796  0.7287 -1.0187
   99SAPS   C24 9915   3.963   5.315   6.901 -0.2078  0.0962  0.2866
   99SAPS   H4R 9916   3.967   5.341   7.009  1.4087  0.8987  0.0551
   99SAPS   H4S 9917   3.977   5.409   6.844 -1.5262  0.4668  0.5406
   99SAPS   C25 9918   4.072   5.227   6.860  0.7941 -0.2385 -0.0152
   99SAPS   H5R 9919   4.065   5.189   6.757  1.4611  0.2275 -0.2373
   99SAPS   C26 9920   4.155   5.162   6.938 -0.1914  0.0977  0.1262
   99SAPS   H6R 9921   4.230   5.105   6.882  0.3175  2.7322 -2.0812
   99SAPS   C27 9922   4.179   5.171   7.084 -0.4837 -0.5121 -0.1525
   99SAPS   H7R 9923   4.087   5.178   7.145  0.8605  0.5635  1.8303
   99SAPS   H7S 9924   4.223   5.269   7.110  0.0298 -0.6192 -0.5901
   99SAPS   C28 9925   4.270   5.058   7.132  0.2803  0.4339 -0.0149
   99SAPS   H8R 9926   4.252   4.957   7.091  0.8293  0.3193  0.0174
   99SAPS   C29 9927   4.372   5.066   7.225 -0.4899  0.1741  0.2419
   99SAPS   H9R 9928   4.421   4.969   7.240  0.7520  0.4975 -1.3877
   99SAPS  C210 9929   4.415   5.187   7.298 -0.8347  0.0020 -0.3820
   99SAPS  H10R 9930   4.330   5.258   7.300 -0.6603  0.2772 -1.9984
   99SAPS  H10S 9931   4.506   5.233   7.254  0.2075 -1.1705  0.4663
   99SAPS  C211 9932   4.449   5.136   7.439 -0.6457  0.2084  0.0439
   99SAPS  H11R 9933   4.541   5.076   7.441 -1.6038 -1.3204  0.1501
   99SAPS  C212 9934   4.376   5.147   7.551  0.4556 -0.5835  0.6456
   99SAPS  H12R 9935   4.405   5.115   7.653  0.3672  0.0895  0.8846
   99SAPS  C213 9936   4.241   5.215   7.561 -0.6497 -0.0974 -0.1236
   99SAPS  H13R 9937   4.208   5.266   7.468  1.8380 -0.0745 -1.0653
   99SAPS  H13S 9938   4.243   5.302   7.630 -0.7541 -0.8711  0.8777
   99SAPS  C214 9939   4.139   5.122   7.612 -0.1036 -0.2833  0.0978
   99SAPS  H14R 9940   4.145   5.023   7.564  2.2160 -0.3552  0.3859
   99SAPS  C215 9941   4.051   5.145   7.714  0.1598  1.1004  0.2027
   99SAPS  H15R 9942   4.002   5.056   7.754  0.2265 -0.6027 -3.1503
   99SAPS  C216 9943   4.047   5.270   7.798 -0.0799 -0.3844  0.2471
   99SAPS  H16R 9944   3.942   5.284   7.832 -1.1039 -0.7807 -2.4919
   99SAPS  H16S 9945   4.070   5.361   7.738  1.1679 -0.5631  0.4322
   99SAPS  C217 9946   4.137   5.287   7.922 -0.0692 -0.3242 -0.4583
   99SAPS  H17R 9947   4.101   5.213   7.997  0.2825  1.9261  2.0622
   99SAPS  H17S 9948   4.120   5.388   7.965  0.5407 -0.3945 -0.0338
   99SAPS  C218 9949   4.288   5.260   7.907  0.5108  0.3863  0.4298
   99SAPS  H18R 9950   4.328   5.324   7.826  2.4847  1.4600  2.1444
   99SAPS  H18S 9951   4.293   5.157   7.866  0.5930  0.1106  1.1122
   99SAPS  C219 9952   4.375   5.262   8.032  0.7810 -0.6646 -0.3959
   99SAPS  H19R 9953   4.330   5.222   8.125  0.6484  0.2726 -0.0507
   99SAPS  H19S 9954   4.387   5.367   8.066  0.9114 -0.8468  0.1298
   99SAPS  C220 9955   4.506   5.192   8.025 -1.0103 -0.0291  0.9647
   99SAPS  H20R 9956   4.490   5.094   7.975  0.9973  0.4816 -0.8155
   99SAPS  H20S 9957   4.568   5.164   8.113  1.3939 -0.4288 -0.7471
   99SAPS  H20T 9958   4.578   5.241   7.956  0.2147 -0.9759  1.5329
   99SAPS   C33 9959   3.270   4.751   7.098 -0.0397 -0.1434  0.6113
   99SAPS   H3X 9960   3.327   4.656   7.094 -1.1477 -0.7950 -2.1885
   99SAPS   H3Y 9961   3.167   4.741   7.056 -0.3901 -0.8638  1.5862
   99SAPS   C34 9962   3.258   4.778   7.241  0.2392 -0.1987  0.1659
   99SAPS   H4X 9963   3.233   4.682   7.292  0.3989  0.0956  0.8219
   99SAPS   H4Y 9964   3.168   4.839   7.261 -0.1405 -0.0462 -1.8157
   99SAPS   C35 9965   3.373   4.844   7.317 -0.1307 -0.1719 -0.2572
   99SAPS   H5X 9966   3.386   4.952   7.296  0.6206 -0.8444 -4.1795
   99SAPS   H5Y 9967   3.471   4.809   7.278  0.4023  0.0768  0.8325
   99SAPS   C36 9968   3.374   4.816   7.469  0.0471 -0.5012  0.5346
   99SAPS   H6X 9969   3.423   4.716   7.475  0.6985 -0.1861  0.5147
   99SAPS   H6Y 9970   3.271   4.805   7.509 -0.4128 -3.2906 -1.1888
   99SAPS   C37 9971   3.444   4.930   7.544 -0.2908  0.1388 -0.0823
   99SAPS   H7X 9972   3.401   5.026   7.508  0.3640  0.0593 -1.1160
   99SAPS   H7Y 9973   3.549   4.930   7.510 -1.0185  0.1930 -2.5098
   99SAPS   C38 9974   3.421   4.909   7.693 -0.0793  0.9198 -0.5429
   99SAPS   H8X 9975   3.313   4.929   7.711 -0.5605 -1.1617 -0.9338
   99SAPS   H8Y 9976   3.482   4.987   7.744 -0.9136  0.7916  0.6905
   99SAPS   C39 9977   3.468   4.777   7.754  0.2014 -0.1888  0.8054
   99SAPS   H9X 9978   3.572   4.755   7.722  0.1558 -0.6491  0.9687
   99SAPS   H9Y 9979   3.398   4.693   7.734  1.1097 -1.2876  2.0745
   99SAPS  C310 9980   3.480   4.783   7.905 -0.5839 -1.0701 -0.1814
   99SAPS  H10X 9981   3.382   4.793   7.956 -0.8722 -0.7089 -0.7887
   99SAPS  H10Y 9982   3.551   4.864   7.932 -1.3046 -0.9744  1.5566
   99SAPS  C311 9983   3.540   4.648   7.956  0.2741  0.3744  0.4341
   99SAPS  H11X 9984   3.617   4.619   7.881 -1.9027 -0.9602 -1.4182
   99SAPS  H11Y 9985   3.461   4.570   7.960  1.2963 -0.6612  1.0171
   99SAPS  C312 9986   3.627   4.660   8.082 -0.2403 -0.3719 -0.4627
   99SAPS  H12X 9987   3.565   4.709   8.160  0.7072  2.4921 -1.3617
   99SAPS  H12Y 9988   3.710   4.733   8.069 -0.7095  1.1968  3.8788
   99SAPS  C313 9989   3.673   4.526   8.132 -0.0616  0.2084 -0.4799
   99SAPS  H13X 9990   3.716   4.481   8.041  0.6825 -0.6182  0.2577
   99SAPS  H13Y 9991   3.592   4.457   8.165  0.0796 -0.1406 -0.8557
   99SAPS  C314 9992   3.790   4.526   8.239  0.6839 -0.7897 -0.4979
   99SAPS  H14X 9993   3.842   4.620   8.211  1.2463 -0.1250  2.4689
   99SAPS  H14Y 9994   3.854   4.436   8.233  0.7289 -0.7713 -0.2938
   99SAPS  C315 9995   3.746   4.543   8.393 -1.0788  0.4028  0.9278
   99SAPS  H15X 9996   3.643   4.502   8.405 -1.9279  1.1163 -2.7503
   99SAPS  H15Y 9997   3.726   4.649   8.419 -1.5628  1.1204 -1.9512
   99SAPS  C316 9998   3.846   4.487   8.493  0.3685  0.1055 -0.1960
   99SAPS  H16X 9999   3.864   4.380   8.470  1.7145  0.5715 -1.4874
   99SAPS  H16Y10000   3.791   4.493   8.589  1.1249 -0.3155  0.2763
   99SAPS  C31710001   3.981   4.555   8.497 -0.8378  0.0732  0.3465
   99SAPS  H17X10002   4.020   4.551   8.393 -2.8174 -0.0140 -0.4225
   99SAPS  H17Y10003   4.057   4.504   8.560 -0.9113 -0.6829 -0.1650
   99SAPS  C31810004   3.975   4.696   8.543 -0.9234 -0.6212  0.7164
   99SAPS  H18X10005   4.076   4.742   8.547  0.1647 -2.7969 -0.1758
   99SAPS  H18Y10006   3.927   4.693   8.643 -2.1008 -0.2231  0.1861
   99SAPS  H18Z10007   3.909   4.758   8.478  2.9311  2.2287 -0.8769
  100SAPS     N10008   0.800   6.292   5.912  0.3133 -0.2566 -0.5165
  100SAPS   HN110009   0.746   6.368   5.865  0.6860  0.8703  0.8151
  100SAPS   HN210010   0.750   6.202   5.898 -1.4303  0.1363  2.3657
  100SAPS   HN310011   0.791   6.301   6.015 -1.1672 -0.2234 -0.6339
  100SAPS   C1210012   0.943   6.281   5.895 -0.0121 -0.6297 -0.2869
  100SAPS  H12A10013   0.973   6.179   5.915 -0.6377 -1.0681 -1.4526
  100SAPS   C1310014   1.002   6.310   5.757  0.0689  0.2148 -0.0263
  100SAPS  O13A10015   0.916   6.330   5.668  0.1398  0.2892  0.4577
  100SAPS  O13B10016   1.126   6.304   5.732  0.1586  0.0233  0.4347
  100SAPS   C1110017   1.009   6.373   6.004 -0.1577 -0.0679  0.3975
  100SAPS  H11A10018   0.973   6.477   5.990 -2.2459 -0.9419 -1.3170
  100SAPS  H11B10019   1.119   6.367   5.990  0.0176 -0.2905  1.7604
  100SAPS     P10020   1.018   6.403   6.262  0.2197  0.2523 -0.1266
  100SAPS   O1310021   0.996   6.544   6.236 -0.2127 -0.8750 -0.7400
  100SAPS   O1410022   0.969   6.356   6.394  0.6801 -1.0218 -0.1298
  100SAPS   O1210023   0.967   6.316   6.133  0.7646  0.2110 -0.4356
  100SAPS   O1110024   1.170   6.378   6.255 -0.0796  0.3149  0.9956
  100SAPS    C110025   1.241   6.256   6.236  0.4505  0.7224  0.2631
  100SAPS    HA10026   1.195   6.199   6.152  1.6698  0.2783 -0.1296
  100SAPS    HB10027   1.344   6.272   6.199  0.1017 -0.8078 -1.5341
  100SAPS    C210028   1.244   6.174   6.366  0.0006  1.0565  0.1344
  100SAPS    HS10029   1.139   6.137   6.373  0.3655 -0.2087 -0.7748
  100SAPS   O2110030   1.286   6.259   6.475  0.0305 -0.1724 -0.4172
  100SAPS   C2110031   1.216   6.232   6.586 -0.7723 -0.7475 -0.2690
  100SAPS   O2210032   1.136   6.141   6.602 -0.0583  0.4874  0.6711
  100SAPS   C2210033   1.256   6.338   6.691 -0.1191 -0.4157  0.5484
  100SAPS   H2R10034   1.365   6.349   6.676 -0.4427 -0.5186 -2.3518
  100SAPS   H2S10035   1.215   6.439   6.666  2.4118  0.5388 -0.0407
  100SAPS    C310036   1.329   6.044   6.363 -0.5280  0.1510 -0.5617
  100SAPS    HX10037   1.439   6.058   6.369 -0.3443 -1.5107  0.5752
  100SAPS    HY10038   1.311   6.011   6.259  0.9067  1.5129 -1.2843
  100SAPS   O3110039   1.272   5.947   6.459  0.0597  0.0035 -0.2417
  100SAPS   C3110040   1.348   5.933   6.564  0.2924  0.3182 -0.4681
  100SAPS   O3210041   1.450   5.995   6.595  0.5411  0.8456  0.2680
  100SAPS   C3210042   1.282   5.826   6.648 -0.3048 -0.0306  0.4509
  100SAPS   H2X10043   1.300   5.732   6.592 -1.7096 -1.6908  2.5838
  100SAPS   H2Y10044   1.173   5.842   6.656 -0.3417  0.1897 -0.4383
  100SAPS   C2310045   1.234   6.280   6.825  0.1531 -0.1959  0.1660
  100SAPS   H3R10046   1.276   6.177   6.836  1.8316  0.4366 -0.1003
  100SAPS   H3S10047   1.127   6.256   6.839  0.0953 -0.9419 -1.3479
  100SAPS   C2410048   1.288   6.376   6.940  0.0439  0.1867  0.2169
  100SAPS   H4R10049   1.226   6.467   6.936  2.0961  1.7196  1.3683
  100SAPS   H4S10050   1.389   6.411   6.911  0.1212 -1.1268 -1.2548
  100SAPS   C2510051   1.295   6.310   7.076 -0.6529  0.0291  0.0181
  100SAPS   H5R10052   1.359   6.221   7.087  0.4573  0.8597  0.4467
  100SAPS   C2610053   1.234   6.351   7.183 -0.2662 -0.1579 -0.1208
  100SAPS   H6R10054   1.270   6.298   7.273  2.3029 -1.0137 -1.5446
  100SAPS   C2710055   1.142   6.460   7.189  0.2536 -0.4033  0.3245
  100SAPS   H7R10056   1.054   6.444   7.255 -1.5519  1.5318 -1.4358
  100SAPS   H7S10057   1.092   6.478   7.091 -0.5902 -1.1311  0.5988
  100SAPS   C2810058   1.202   6.598   7.227 -0.3485  0.3200 -0.3177
  100SAPS   H8R10059   1.226   6.663   7.142 -0.8106  0.6151 -0.2238
  100SAPS   C2910060   1.219   6.644   7.355  0.4005 -0.1677  0.1538
  100SAPS   H9R10061   1.248   6.748   7.371  2.3549 -0.8145  1.1749
  100SAPS  C21010062   1.174   6.570   7.485 -0.4373  0.0546  0.2542
  100SAPS  H10R10063   1.248   6.576   7.567 -1.3393  1.1187  1.0128
  100SAPS  H10S10064   1.178   6.461   7.462  2.4839  0.6230 -2.6105
  100SAPS  C21110065   1.039   6.584   7.538 -0.4729 -0.0268  0.5237
  100SAPS  H11R10066   0.962   6.587   7.459 -0.0555  0.8413  0.1342
  100SAPS  C21210067   1.003   6.591   7.669 -0.0929  0.2904 -0.1776
  100SAPS  H12R10068   0.897   6.606   7.691 -0.1136  0.2044 -0.2161
  100SAPS  C21310069   1.086   6.589   7.798  0.0037  0.1051 -0.1956
  100SAPS  H13R10070   1.185   6.539   7.794 -1.5785 -3.2574 -2.0006
  100SAPS  H13S10071   1.034   6.514   7.862  0.7829 -1.2432 -1.0782
  100SAPS  C21410072   1.090   6.728   7.866  0.1052  0.3824 -0.9988
  100SAPS  H14R10073   1.070   6.812   7.798 -2.0683  1.6489  1.0714
  100SAPS  C21510074   1.104   6.749   7.999 -0.3024 -0.8198 -0.5349
  100SAPS  H15R10075   1.123   6.845   8.049 -0.8382 -1.3963  0.8099
  100SAPS  C21610076   1.120   6.628   8.095 -0.1809 -0.3352 -0.0132
  100SAPS  H16R10077   1.225   6.617   8.130 -0.2481 -2.4785 -0.3710
  100SAPS  H16S10078   1.089   6.530   8.054  0.8920 -1.1006  0.9600
  100SAPS  C21710079   1.034   6.665   8.219  0.6083  0.5199  0.1123
  100SAPS  H17R10080   1.053   6.771   8.246  1.6711  0.1459  0.8964
  100SAPS  H17S10081   1.069   6.591   8.294 -1.4211 -0.7779 -0.1367
  100SAPS  C21810082   0.884   6.651   8.189  0.0778  0.0236  0.0073
  100SAPS  H18R10083   0.866   6.550   8.145  1.3744 -0.0251 -0.4339
  100SAPS  H18S10084   0.863   6.725   8.109 -0.1268 -0.5080 -0.4388
  100SAPS  C21910085   0.790   6.673   8.307  0.4510 -0.5629  0.0922
  100SAPS  H19R10086   0.815   6.764   8.366  0.7239 -0.4026 -0.2669
  100SAPS  H19S10087   0.804   6.593   8.383 -0.8698  0.4090  1.4241
  100SAPS  C22010088   0.647   6.688   8.254  0.1374  1.2018  0.0053
  100SAPS  H20R10089   0.618   6.582   8.243  1.4095  0.8006  0.3056
  100SAPS  H20S10090   0.656   6.740   8.156  4.3356  1.4255  0.3040
  100SAPS  H20T10091   0.576   6.742   8.320 -0.9548  1.8482 -1.6442
  100SAPS   C3310092   1.357   5.789   6.780  0.3143  0.0777  0.8640
  100SAPS   H3X10093   1.465   5.778   6.756  0.3601  0.1498  1.0422
  100SAPS   H3Y10094   1.320   5.689   6.811  1.7952 -0.7013  0.1879
  100SAPS   C3410095   1.341   5.890   6.896  0.1089 -0.5164  0.5983
  100SAPS   H4X10096   1.234   5.894   6.924 -0.6676 -0.8360 -2.0329
  100SAPS   H4Y10097   1.369   5.990   6.858 -1.4714  0.1876  1.1916
  100SAPS   C3510098   1.433   5.860   7.009  0.1983  0.7357 -0.8391
  100SAPS   H5X10099   1.530   5.914   7.002  1.1388 -0.8857 -0.6959
  100SAPS   H5Y10100   1.459   5.753   6.997  2.3385  1.3058 -1.8075
  100SAPS   C3610101   1.367   5.892   7.142 -0.5374 -0.0611  0.3644
  100SAPS   H6X10102   1.263   5.853   7.147 -1.1086  1.2184 -0.7992
  100SAPS   H6Y10103   1.365   6.003   7.145 -2.1002  0.1259 -2.8818
  100SAPS   C3710104   1.434   5.828   7.266  0.1120 -0.1629  1.0792
  100SAPS   H7X10105   1.543   5.850   7.269  0.4195 -1.3746 -0.0251
  100SAPS   H7Y10106   1.427   5.717   7.266 -0.5891 -0.1331  2.1557
  100SAPS   C3810107   1.373   5.884   7.394 -0.3234  0.0608 -0.0340
  100SAPS   H8X10108   1.267   5.854   7.411 -0.7947  0.0363 -2.6998
  100SAPS   H8Y10109   1.379   5.995   7.388 -1.1980  0.0371 -1.8532
  100SAPS   C3910110   1.454   5.834   7.513 -0.5746  0.4298  0.2835
  100SAPS   H9X10111   1.553   5.884   7.504  1.9495 -4.2285 -1.5948
  100SAPS   H9Y10112   1.479   5.726   7.501  0.6287  0.8921 -1.7271
  100SAPS  C31010113   1.401   5.871   7.652 -0.0039 -0.2485  0.3399
  100SAPS  H10X10114   1.309   5.811   7.667  0.1316 -0.9996 -1.4868
  100SAPS  H10Y10115   1.391   5.981   7.652 -0.2515 -0.2707  0.3546
  100SAPS  C31110116   1.512   5.846   7.759  0.1462  0.2191 -0.0662
  100SAPS  H11X10117   1.606   5.882   7.711  0.2951  1.7899  1.3010
  100SAPS  H11Y10118   1.513   5.737   7.779 -1.9270  0.1687 -0.0214
  100SAPS  C31210119   1.496   5.910   7.901 -0.0824  0.3532 -0.6329
  100SAPS  H12X10120   1.391   5.884   7.928 -0.1054 -0.8464 -1.7952
  100SAPS  H12Y10121   1.506   6.021   7.902  0.6735  0.4163  3.4308
  100SAPS  C31310122   1.580   5.841   8.006  0.0673  0.2384  0.4369
  100SAPS  H13X10123   1.687   5.871   7.999  0.7733 -2.2415 -0.7829
  100SAPS  H13Y10124   1.581   5.731   7.986  0.1922 -0.1590  2.4588
  100SAPS  C31410125   1.534   5.869   8.147 -0.4562  0.3043  0.1248
  100SAPS  H14X10126   1.436   5.822   8.166  0.6618 -1.4216  2.0437
  100SAPS  H14Y10127   1.527   5.979   8.159  0.2659  0.3285  0.4109
  100SAPS  C31510128   1.625   5.806   8.248  0.1549 -1.0027  0.2935
  100SAPS  H15X10129   1.723   5.856   8.233  0.4761 -1.1776  1.6780
  100SAPS  H15Y10130   1.647   5.703   8.214  0.4185 -0.2473 -1.9990
  100SAPS  C31610131   1.574   5.816   8.393 -0.7496  0.0472 -0.6647
  100SAPS  H16X10132   1.479   5.770   8.427  1.0431 -0.8799  3.8000
  100SAPS  H16Y10133   1.560   5.916   8.439 -0.7740 -0.8364  1.3636
  100SAPS  C31710134   1.680   5.744   8.482  0.4659  0.2613  0.6923
  100SAPS  H17X10135   1.742   5.671   8.426  0.3987 -0.2167  1.2228
  100SAPS  H17Y10136   1.624   5.692   8.563 -2.2541  1.2131 -0.4697
  100SAPS  C31810137   1.782   5.847   8.540 -0.0213 -1.2269 -0.2371
  100SAPS  H18X10138   1.838   5.900   8.460 -2.2860  0.4118 -0.8283
  100SAPS  H18Y10139   1.861   5.808   8.609 -0.4210  1.2346  1.7408
  100SAPS  H18Z10140   1.725   5.918   8.603  1.2384 -0.6636  0.2970
  101OSM      N10141   6.479   0.552  11.231  0.0445 -0.4659  0.3222
  101OSM    C1510142   6.611   0.565  11.288 -0.2010 -0.5361  0.5341
  101OSM   H15A10143   6.673   0.478  11.272  0.8615 -0.2825  2.8425
  101OSM   H15B10144   6.615   0.571  11.396  0.9241 -1.5194  0.5659
  101OSM   H15C10145   6.664   0.648  11.245 -3.0187  0.8202 -0.5586
  101OSM    C1410146   6.408   0.431  11.268  0.1746  0.3453 -0.0596
  101OSM   H14A10147   6.459   0.337  11.252 -1.5965 -0.5208 -0.9335
  101OSM   H14B10148   6.314   0.427  11.215 -0.3379  0.2249  0.8441
  101OSM   H14C10149   6.388   0.414  11.373  2.1892  1.4013  0.5496
  101OSM    C1310150   6.393   0.672  11.260 -0.2797  0.2746  0.1827
  101OSM   H13A10151   6.445   0.766  11.245 -1.2409  0.5424 -1.8987
  101OSM   H13B10152   6.363   0.677  11.363 -0.2768 -0.7686  0.2445
  101OSM   H13C10153   6.303   0.669  11.199 -1.7439 -2.7522  2.2624
  101OSM    C1210154   6.500   0.530  11.079  0.4706  0.0580 -0.1567
  101OSM   H12A10155   6.404   0.510  11.034  0.8088 -0.0694 -0.8460
  101OSM   H12B10156   6.567   0.446  11.066  0.5496  0.1226 -0.1663
  101OSM    C1110157   6.585   0.632  11.002  0.1974 -0.6555  0.9116
  101OSM   H11A10158   6.531   0.726  11.025  1.1233  0.0552  0.2100
  101OSM   H11B10159   6.577   0.615  10.893 -1.2984  0.8154  0.7513
  101OSM      P10160   6.830   0.555  10.986  0.2555 -0.5517  0.1407
  101OSM    O1310161   6.962   0.585  11.039  0.2268  0.0902 -0.3489
  101OSM    O1410162   6.795   0.412  10.994 -0.0461 -0.0800 -0.5194
  101OSM    O1110163   6.820   0.603  10.836  0.1929 -0.1391  0.3132
  101OSM    O1210164   6.715   0.647  11.053 -0.1246  0.7429 -0.5933
  101OSM    C1S10165   6.941   0.648  10.775  0.3669 -0.5414  0.3577
  101OSM    H1S10166   7.029   0.586  10.798 -0.6679 -2.3549 -0.3067
  101OSM    H1T10167   6.952   0.755  10.801 -2.0580 -0.0414 -0.3610
  101OSM     NF10168   7.047   0.723  10.564  0.3274 -0.3451 -0.7343
  101OSM    HNF10169   7.046   0.822  10.561  2.5041 -0.2036  0.8223
  101OSM    C2S10170   6.923   0.666  10.623 -0.1625 -0.1943 -0.2641
  101OSM    H2S10171   6.906   0.564  10.582 -1.1350  0.3131 -1.1962
  101OSM    C3S10172   6.798   0.748  10.581  0.6064  0.4852 -1.0641
  101OSM    H3S10173   6.799   0.846  10.633 -1.2677 -0.7692  1.5473
  101OSM     O310174   6.674   0.677  10.624  0.0608  0.0062  0.0228
  101OSM    HO310175   6.709   0.623  10.694  1.9063 -0.3604 -1.1058
  101OSM    C4S10176   6.796   0.767  10.434  0.5577 -0.4512 -0.5139
  101OSM    H4S10177   6.738   0.691  10.380  0.2365 -1.0961  0.7054
  101OSM    C5S10178   6.839   0.873  10.367 -1.1895  0.0588 -0.0492
  101OSM    H5S10179   6.881   0.956  10.425  0.2050 -0.3322 -0.4549
  101OSM    C6S10180   6.843   0.890  10.218 -0.1375 -0.0030 -0.2833
  101OSM    H6S10181   6.939   0.943  10.199 -0.0995 -0.0760 -0.2949
  101OSM    H6T10182   6.770   0.966  10.181 -0.8696 -0.4458  0.2304
  101OSM    C7S10183   6.821   0.766  10.129  0.4034  0.0173  0.9413
  101OSM    H7S10184   6.720   0.723  10.149 -1.0010  1.2456 -2.6135
  101OSM    H7T10185   6.895   0.687  10.152  1.9578  0.8400 -0.9191
  101OSM    C8S10186   6.812   0.804   9.975  0.2963 -0.2034 -0.3075
  101OSM    H8S10187   6.720   0.865   9.963  0.5188  0.5430  1.3911
  101OSM    H8T10188   6.791   0.708   9.926 -0.6216 -0.9441  1.4396
  101OSM    C9S10189   6.936   0.872   9.917 -0.5322 -1.0302 -0.1056
  101OSM    H9S10190   7.012   0.791   9.920 -1.6241 -2.0699  1.8963
  101OSM    H9T10191   6.967   0.959   9.978 -0.7082 -0.3706 -0.9473
  101OSM   C10S10192   6.923   0.907   9.766 -0.0885 -0.2783 -0.3136
  101OSM   H10S10193   6.846   0.987   9.766 -0.6072 -0.7557  0.9476
  101OSM   H10T10194   6.891   0.816   9.712 -2.4005 -0.6011  1.4369
  101OSM   C11S10195   7.053   0.951   9.701  0.2121 -0.6009 -0.0497
  101OSM   H11S10196   7.132   0.873   9.706 -0.8823 -1.6996  1.0127
  101OSM   H11T10197   7.085   1.048   9.746  0.6644 -0.2856 -1.0368
  101OSM   C12S10198   7.022   0.980   9.554  0.7184 -0.8168 -0.1165
  101OSM   H12S10199   6.920   1.024   9.549  2.0987  2.5881 -1.6823
  101OSM   H12T10200   7.011   0.881   9.505  0.6180 -0.9488  0.1704
  101OSM   C13S10201   7.130   1.056   9.470  0.1489 -0.0617 -0.2632
  101OSM   H13S10202   7.229   1.012   9.494  0.1968 -0.2228 -0.7499
  101OSM   H13T10203   7.125   1.161   9.506  0.6416  0.9987 -3.0332
  101OSM   C14S10204   7.098   1.053   9.322 -0.2008 -0.2229 -0.0530
  101OSM   H14S10205   7.007   1.111   9.297 -0.1377 -0.4255 -0.7502
  101OSM   H14T10206   7.063   0.949   9.307 -0.0990 -0.4461  1.1650
  101OSM   C15S10207   7.210   1.081   9.219 -0.1431 -0.2738 -0.7799
  101OSM   H15S10208   7.214   1.192   9.213 -1.5323 -0.0194  1.6597
  101OSM   H15T10209   7.177   1.039   9.122 -1.7509 -1.9414  0.4254
  101OSM   C16S10210   7.338   1.023   9.263 -0.1555 -0.3353 -0.8408
  101OSM   H16S10211   7.323   0.921   9.303 -3.2520 -0.0930 -1.1871
  101OSM   H16T10212   7.384   1.088   9.341 -0.7660  1.3497 -1.8444
  101OSM   C17S10213   7.449   1.007   9.147  0.5307  0.1543  0.0146
  101OSM   H17S10214   7.415   0.929   9.076  0.4220  0.9516 -0.8269
  101OSM   H17T10215   7.535   0.961   9.199  0.8753  1.5571  0.7521
  101OSM   C18S10216   7.490   1.138   9.078 -0.8662  0.0358  0.0801
  101OSM   H18S10217   7.572   1.112   9.009 -2.2638 -1.3447 -1.1504
  101OSM   H18T10218   7.503   1.205   9.166 -5.1284  1.7440 -0.3448
  101OSM   H18U10219   7.405   1.179   9.019  1.4171  1.3458 -2.4794
  101OSM    C1F10220   7.166   0.666  10.570 -0.3165  0.2408  0.2660
  101OSM     OF10221   7.189   0.559  10.630 -0.3583 -0.0750 -0.3146
  101OSM    C2F10222   7.270   0.752  10.515  0.5917 -0.0186  0.5350
  101OSM    H2F10223   7.351   0.758  10.591  0.5020  1.2570  0.5503
  101OSM    H2G10224   7.223   0.849  10.487  1.1700 -0.8834 -4.4385
  101OSM    C3F10225   7.356   0.706  10.392 -0.5502  0.0528 -0.4471
  101OSM    H3F10226   7.378   0.598  10.408  2.4215  0.6856  0.3128
  101OSM    H3G10227   7.449   0.764  10.377 -0.4790  0.5844  1.7010
  101OSM    C4F10228   7.285   0.719  10.253  0.4107  0.4835  0.1355
  101OSM    H4F10229   7.263   0.821  10.217 -0.8203  0.1015 -0.2193
  101OSM    H4G10230   7.197   0.653  10.268  1.3375 -0.6097  0.9859
  101OSM    C5F10231   7.365   0.642  10.151 -0.4640 -0.6646  0.0022
  101OSM    H5F10232   7.381   0.538  10.185  2.0151 -0.2861  0.1462
  101OSM    H5G10233   7.465   0.687  10.137 -0.1079 -1.9655 -2.0406
  101OSM    C6F10234   7.287   0.643  10.022 -0.0993 -0.2819  0.5236
  101OSM    H6F10235   7.288   0.747   9.984  0.0133  0.3127  2.0755
  101OSM    H6G10236   7.181   0.626  10.051 -1.1837  1.7986 -1.8810
  101OSM    C7F10237   7.350   0.547   9.916  0.1328  0.0358  0.5699
  101OSM    H7F10238   7.339   0.439   9.940  0.3993 -0.1262 -0.0251
  101OSM    H7G10239   7.456   0.578   9.903  0.4094 -1.5156 -1.1923
  101OSM    C8F10240   7.277   0.562   9.781  0.2052 -0.4770  0.4786
  101OSM    H8F10241   7.275   0.672   9.766 -0.7793 -0.0233  3.3329
  101OSM    H8G10242   7.173   0.533   9.810 -1.0440  1.2593 -1.8936
  101OSM    C9F10243   7.323   0.489   9.662 -1.6639 -0.6926  1.0722
  101OSM    H9F10244   7.380   0.396   9.682 -0.6770 -0.7641 -1.5768
  101OSM   C10F10245   7.328   0.534   9.533 -0.5367 -0.2906 -0.1112
  101OSM   H10F10246   7.365   0.457   9.464 -2.2970 -1.8148  0.5601
  101OSM   C11F10247   7.292   0.665   9.476 -0.0407 -0.4600 -0.1772
  101OSM   H11F10248   7.386   0.705   9.431  0.7892 -0.9882  1.0288
  101OSM   H11G10249   7.280   0.728   9.567  0.4861 -1.4011  0.5689
  101OSM   C12F10250   7.176   0.661   9.376  0.2325 -0.2028 -0.0443
  101OSM   H12F10251   7.170   0.754   9.317  1.3517 -0.0692  0.0398
  101OSM   H12G10252   7.088   0.653   9.444 -2.6461  1.7351 -3.2389
  101OSM   C13F10253   7.162   0.538   9.289 -0.8096 -0.6912 -0.5009
  101OSM   H13F10254   7.174   0.439   9.338  0.9212  0.8710  2.5593
  101OSM   H13G10255   7.243   0.546   9.215 -0.3682  1.1766  0.1235
  101OSM   C14F10256   7.023   0.558   9.221  0.0831  0.6581 -0.3327
  101OSM   H14F10257   6.946   0.557   9.302 -0.4143 -0.4744 -0.7945
  101OSM   H14G10258   7.005   0.462   9.169  0.2548  0.2054  0.4213
  101OSM   C15F10259   6.995   0.659   9.108  0.1815 -0.3904  0.1972
  101OSM   H15F10260   7.063   0.633   9.025  0.0319  0.2940 -0.1454
  101OSM   H15G10261   7.009   0.762   9.149  0.5949 -0.7901  1.0802
  101OSM   C16F10262   6.844   0.659   9.071 -0.5427 -0.0016  0.6126
  101OSM   H16F10263   6.782   0.632   9.159  0.0457  0.3577  1.1489
  101OSM   H16G10264   6.830   0.569   9.008  1.7024  0.5827 -0.8411
  101OSM   C17F10265   6.809   0.785   9.000  0.1093 -0.2642 -0.6004
  101OSM   H17F10266   6.895   0.817   8.937  2.3645 -0.1084  2.3537
  101OSM   H17G10267   6.809   0.874   9.066  4.6927 -0.8413  0.4717
  101OSM   C18F10268   6.668   0.786   8.933 -0.3807 -0.0183  0.2021
  101OSM   H18F10269   6.594   0.757   9.011  0.6562 -0.9966  0.8504
  101OSM   H18G10270   6.655   0.704   8.860  1.2902 -1.1217  1.0853
  101OSM   H18H10271   6.630   0.883   8.894 -2.1104 -0.8734 -0.3603
  102OSM      N10272   2.770   5.639  11.200  0.0422  0.2399  0.4213
  102OSM    C1510273   2.914   5.605  11.237 -0.6404 -0.0130 -0.3557
  102OSM   H15A10274   2.966   5.675  11.300 -2.6278  2.9479 -1.8025
  102OSM   H15B10275   2.973   5.590  11.148  0.2526  0.4206  0.1565
  102OSM   H15C10276   2.925   5.509  11.286  0.1999  1.0584  1.6522
  102OSM    C1410277   2.694   5.660  11.329  0.1347  0.5946  0.2662
  102OSM   H14A10278   2.703   5.570  11.387  1.3164  2.3999  3.1178
  102OSM   H14B10279   2.592   5.677  11.298 -0.0409 -1.3689 -0.3320
  102OSM   H14C10280   2.735   5.735  11.396  0.6451 -0.3595  1.0528
  102OSM    C1310281   2.769   5.770  11.127  0.1226 -0.3312 -0.1517
  102OSM   H13A10282   2.667   5.804  11.131  0.3262  0.1258  2.3094
  102OSM   H13B10283   2.799   5.755  11.024 -0.8501 -0.4639 -0.4258
  102OSM   H13C10284   2.821   5.846  11.184 -0.3690 -0.3848  0.3741
  102OSM    C1210285   2.714   5.532  11.114 -0.0513 -0.8258 -0.6530
  102OSM   H12A10286   2.698   5.450  11.182 -2.4326 -0.9730 -1.3047
  102OSM   H12B10287   2.780   5.490  11.039  3.7456  0.2870  1.8090
  102OSM    C1110288   2.585   5.567  11.044 -0.3157  0.7872  0.1932
  102OSM   H11A10289   2.521   5.623  11.116 -0.7576  0.2832  0.1931
  102OSM   H11B10290   2.535   5.472  11.019 -1.9918  1.5854  0.3900
  102OSM      P10291   2.658   5.565  10.797  0.2500  0.1492 -0.2370
  102OSM    O1310292   2.756   5.459  10.833 -0.2828 -0.1497 -0.0335
  102OSM    O1410293   2.547   5.529  10.706 -0.2755  0.2446  0.2041
  102OSM    O1110294   2.739   5.668  10.723 -0.2503  0.4725  0.2154
  102OSM    O1210295   2.605   5.650  10.930 -0.2542 -0.2908  0.2223
  102OSM    C1S10296   2.715   5.804  10.696 -0.6249  0.0218  0.2255
  102OSM    H1S10297   2.774   5.864  10.769  1.7905 -0.3384 -1.3593
  102OSM    H1T10298   2.605   5.820  10.689 -0.7099 -1.0435 -1.4127
  102OSM     NF10299   2.793   5.986  10.538  0.3881 -0.5888  0.2302
  102OSM    HNF10300   2.732   6.036  10.477  1.7681 -1.7453 -2.2549
  102OSM    C2S10301   2.768   5.843  10.550  0.3042 -0.4626  0.1224
  102OSM    H2S10302   2.867   5.793  10.537  0.0969 -0.6096 -0.9403
  102OSM    C3S10303   2.684   5.780  10.440  0.3749  0.0915 -0.4394
  102OSM    H3S10304   2.580   5.818  10.451  0.3456 -0.4565  1.3972
  102OSM     O310305   2.673   5.636  10.443  0.7966 -0.1498 -0.4968
  102OSM    HO310306   2.708   5.610  10.528  3.5486  0.8353 -1.2245
  102OSM    C4S10307   2.735   5.808  10.305 -0.2157  0.4365  0.0324
  102OSM    H4S10308   2.836   5.768  10.286 -0.3709  0.2614 -0.4501
  102OSM    C5S10309   2.678   5.876  10.202 -0.2330 -0.8392  0.3699
  102OSM    H5S10310   2.580   5.926  10.202  0.0541 -0.2746  0.1437
  102OSM    C6S10311   2.747   5.891  10.065  0.2955 -0.8811 -0.6637
  102OSM    H6S10312   2.831   5.820  10.053  1.3960  0.1190  0.7819
  102OSM    H6T10313   2.784   5.995  10.053 -2.3524  0.5731  2.1363
  102OSM    C7S10314   2.641   5.864   9.957 -0.5455 -0.0374  0.9438
  102OSM    H7S10315   2.540   5.907   9.974 -0.1475  0.5485  1.9282
  102OSM    H7T10316   2.622   5.755   9.943 -1.1641  0.0246  1.2702
  102OSM    C8S10317   2.683   5.919   9.819  0.3196  0.3955 -0.9230
  102OSM    H8S10318   2.788   5.893   9.795  0.4500 -0.3466  0.3568
  102OSM    H8T10319   2.666   6.028   9.832 -2.6388 -0.1652  1.0405
  102OSM    C9S10320   2.585   5.875   9.710  0.1011 -0.0346  0.2486
  102OSM    H9S10321   2.485   5.892   9.756 -0.5400 -3.0819  0.1419
  102OSM    H9T10322   2.582   5.765   9.699 -0.6147 -0.2284  2.1051
  102OSM   C10S10323   2.606   5.946   9.575  0.3024 -0.4190 -0.3870
  102OSM   H10S10324   2.701   5.904   9.537  0.3811 -1.0200  0.4265
  102OSM   H10T10325   2.626   6.053   9.597  1.3437 -0.5741 -0.5624
  102OSM   C11S10326   2.496   5.920   9.473  0.2737  0.8030  0.2554
  102OSM   H11S10327   2.515   5.997   9.395 -0.9719  0.1400 -0.7368
  102OSM   H11T10328   2.396   5.933   9.519  1.3208  1.1412  2.6083
  102OSM   C12S10329   2.492   5.780   9.402 -0.7128 -0.0313  0.2419
  102OSM   H12S10330   2.485   5.696   9.475 -1.5124  0.8211  1.1682
  102OSM   H12T10331   2.592   5.778   9.353 -0.0608 -2.2141  1.5053
  102OSM   C13S10332   2.383   5.778   9.294  0.2904 -0.0805 -0.0145
  102OSM   H13S10333   2.397   5.877   9.245  0.5854  0.3453  0.8969
  102OSM   H13T10334   2.280   5.790   9.335  0.8103 -0.5226  1.4707
  102OSM   C14S10335   2.401   5.671   9.177  0.5415 -0.0502  0.2104
  102OSM   H14S10336   2.342   5.584   9.212  1.7135 -0.9951 -0.1084
  102OSM   H14T10337   2.503   5.629   9.170  0.4994 -0.0194 -0.7184
  102OSM   C15S10338   2.355   5.716   9.042  0.7371 -0.8336  0.1335
  102OSM   H15S10339   2.398   5.813   9.011  0.9021 -0.5907  1.0914
  102OSM   H15T10340   2.247   5.742   9.052  0.4141 -1.2869 -1.6866
  102OSM   C16S10341   2.362   5.614   8.925 -0.4177  0.0284  0.0437
  102OSM   H16S10342   2.465   5.577   8.904 -1.3239 -1.0753 -3.0954
  102OSM   H16T10343   2.329   5.664   8.832 -1.6771 -0.4047  0.2370
  102OSM   C17S10344   2.277   5.488   8.949 -0.1061 -0.0632  0.9047
  102OSM   H17S10345   2.322   5.421   9.025 -1.1469 -0.3652  1.2825
  102OSM   H17T10346   2.282   5.445   8.846 -1.1491  0.4417  0.6227
  102OSM   C18S10347   2.125   5.516   8.984 -0.9026  0.2205  0.4686
  102OSM   H18S10348   2.106   5.536   9.092  1.7032 -0.2072  1.0809
  102OSM   H18T10349   2.059   5.432   8.955 -0.4918  0.7345 -2.1896
  102OSM   H18U10350   2.092   5.612   8.938  2.8652  1.1757 -0.5993
  102OSM    C1F10351   2.892   6.053  10.596 -0.3907  0.4560 -0.5709
  102OSM     OF10352   2.996   5.998  10.635 -0.6266  0.4144  0.0747
  102OSM    C2F10353   2.883   6.198  10.600  0.2516 -0.7402 -0.1524
  102OSM    H2F10354   2.926   6.237  10.695 -0.6935  0.1145 -0.0516
  102OSM    H2G10355   2.774   6.217  10.598  0.1380 -1.2684  0.6564
  102OSM    C3F10356   2.968   6.276  10.497  0.8484 -0.0416  0.1263
  102OSM    H3F10357   3.072   6.248  10.525  1.0404 -0.2333 -0.7549
  102OSM    H3G10358   2.983   6.384  10.518  0.6076 -0.1886  1.1368
  102OSM    C4F10359   2.924   6.253  10.346  0.0247 -0.0327 -0.1243
  102OSM    H4F10360   2.828   6.309  10.346  0.2440  0.4397  2.3514
  102OSM    H4G10361   2.897   6.145  10.334  2.2714 -0.8238  1.4304
  102OSM    C5F10362   3.026   6.302  10.243  0.0554  0.4360  0.0687
  102OSM    H5F10363   3.116   6.238  10.234  0.9843  1.6444  0.5776
  102OSM    H5G10364   3.075   6.387  10.294  0.4462 -0.4790  1.2444
  102OSM    C6F10365   2.971   6.346  10.108 -0.0914  0.0677 -0.0790
  102OSM    H6F10366   3.036   6.428  10.072 -1.5861  1.4296  0.2090
  102OSM    H6G10367   2.881   6.406  10.132  0.6476  0.9622  0.5724
  102OSM    C7F10368   2.954   6.237  10.011  0.2602  0.5542 -0.2617
  102OSM    H7F10369   2.924   6.147  10.068 -2.6837  0.5447 -1.6181
  102OSM    H7G10370   3.049   6.198   9.967 -0.5549 -0.0223 -1.5809
  102OSM    C8F10371   2.856   6.276   9.904  0.4775 -0.2374  0.2235
  102OSM    H8F10372   2.779   6.333   9.960 -1.9823 -3.0617 -0.0556
  102OSM    H8G10373   2.795   6.198   9.854 -2.1039  1.0461  1.1923
  102OSM    C9F10374   2.918   6.359   9.795  0.2364 -0.1803  0.4245
  102OSM    H9F10375   2.944   6.462   9.823  1.1306 -0.7282  1.6898
  102OSM   C10F10376   2.938   6.330   9.666  0.3830 -0.1034  0.1405
  102OSM   H10F10377   2.963   6.409   9.594 -0.0761  0.0014  0.0918
  102OSM   C11F10378   2.907   6.195   9.608  0.0328  0.6843 -0.4409
  102OSM   H11F10379   2.805   6.159   9.630  0.4976  0.1326  0.8787
  102OSM   H11G10380   2.977   6.129   9.663 -1.3907  0.3003  0.9771
  102OSM   C12F10381   2.928   6.160   9.463 -0.2976 -0.1284 -0.2046
  102OSM   H12F10382   2.951   6.052   9.453  0.6848  0.0119  0.4071
  102OSM   H12G10383   3.016   6.221   9.431  0.7383 -1.6284 -0.3377
  102OSM   C13F10384   2.811   6.201   9.375  0.2633 -0.3503 -0.4562
  102OSM   H13F10385   2.795   6.310   9.388  1.8248  0.0967 -1.8736
  102OSM   H13G10386   2.716   6.161   9.416 -0.9312  1.5199 -1.2986
  102OSM   C14F10387   2.839   6.159   9.232 -0.2155 -0.4779  0.8722
  102OSM   H14F10388   2.947   6.171   9.206 -0.1081 -2.2666  0.3542
  102OSM   H14G10389   2.774   6.213   9.160  1.6165  0.1485 -0.3892
  102OSM   C15F10390   2.803   6.016   9.202 -0.1419  0.4024  0.5163
  102OSM   H15F10391   2.717   5.980   9.261  0.2665 -1.6599 -0.0550
  102OSM   H15G10392   2.886   5.948   9.232  0.5399  0.9114 -0.1597
  102OSM   C16F10393   2.776   5.994   9.047 -0.3420 -0.4591  0.1049
  102OSM   H16F10394   2.867   6.021   8.989  1.3433 -2.7781  1.5072
  102OSM   H16G10395   2.687   6.051   9.014 -1.2379 -0.8451  1.7490
  102OSM   C17F10396   2.747   5.844   9.014  0.8763 -0.3560 -0.4396
  102OSM   H17F10397   2.659   5.796   9.063  1.0355 -2.9909 -2.4852
  102OSM   H17G10398   2.832   5.786   9.056 -0.4538  0.5239  4.0406
  102OSM   C18F10399   2.756   5.820   8.866  1.1003 -0.6539 -0.1605
  102OSM   H18F10400   2.854   5.861   8.833  1.5842 -0.4760  1.4039
  102OSM   H18G10401   2.675   5.864   8.803  0.3608 -2.3247 -0.4367
  102OSM   H18H10402   2.749   5.712   8.841  0.0859 -0.3813 -1.1318
  103OSM      N10403   4.321   1.531  10.849 -0.1173 -0.4312  0.4834
  103OSM    C1510404   4.379   1.474  10.722 -0.5167  0.4525  0.2065
  103OSM   H15A10405   4.420   1.377  10.747 -3.6283 -0.6374  1.5960
  103OSM   H15B10406   4.456   1.541  10.687 -0.7674  3.1895  4.1928
  103OSM   H15C10407   4.305   1.462  10.645 -0.1577  0.8022 -0.1984
  103OSM    C1410408   4.197   1.452  10.882 -0.3710  0.1528 -0.3416
  103OSM   H14A10409   4.112   1.479  10.821 -1.2928 -0.4797  0.6228
  103OSM   H14B10410   4.168   1.464  10.986 -0.9819 -0.4769 -0.4253
  103OSM   H14C10411   4.220   1.346  10.876  2.3204  0.5949  0.8159
  103OSM    C1310412   4.430   1.499  10.945  0.5700  0.1427 -0.2938
  103OSM   H13A10413   4.506   1.572  10.967 -0.5764  1.1719  0.3812
  103OSM   H13B10414   4.476   1.407  10.911 -1.1730  0.3171 -3.4391
  103OSM   H13C10415   4.383   1.485  11.041 -1.9745  1.6581 -1.2347
  103OSM    C1210416   4.289   1.681  10.845  0.2481 -0.0493  0.2906
  103OSM   H12A10417   4.200   1.692  10.784  0.5684  0.3310 -0.1134
  103OSM   H12B10418   4.364   1.728  10.784  0.3984  1.1685  1.3773
  103OSM    C1110419   4.261   1.755  10.978 -0.8033  0.2058 -0.4867
  103OSM   H11A10420   4.252   1.864  10.960 -1.5070  0.3379  0.6036
  103OSM   H11B10421   4.347   1.744  11.047  0.1695  0.8834 -1.5435
  103OSM      P10422   3.998   1.754  11.030 -0.1994  0.3403  0.0730
  103OSM    O1310423   3.895   1.706  11.129  0.7345 -0.5883  0.2078
  103OSM    O1410424   4.005   1.901  11.021 -0.0154  0.3712  0.1424
  103OSM    O1110425   3.971   1.690  10.892  0.6316  0.0870  0.8888
  103OSM    O1210426   4.147   1.702  11.050  0.2294  0.1407 -0.3667
  103OSM    C1S10427   3.947   1.758  10.770 -0.0900 -0.0465 -0.2211
  103OSM    H1S10428   4.029   1.829  10.744 -0.7170  0.9795  0.5281
  103OSM    H1T10429   3.854   1.818  10.782 -0.2439 -0.8182  3.9317
  103OSM     NF10430   3.946   1.747  10.524  0.1132  0.1324  0.3304
  103OSM    HNF10431   3.862   1.771  10.475  0.0144  1.0654  0.9412
  103OSM    C2S10432   3.934   1.668  10.643 -0.0462 -0.2684 -0.3552
  103OSM    H2S10433   4.016   1.593  10.640 -0.7389 -1.0380 -0.3398
  103OSM    C3S10434   3.797   1.587  10.657  0.0650 -0.1733  0.2109
  103OSM    H3S10435   3.720   1.659  10.694  0.0214  0.0063 -0.2210
  103OSM     O310436   3.802   1.500  10.768 -0.0484 -0.1152 -0.2506
  103OSM    HO310437   3.858   1.545  10.832 -1.8116  4.2575 -1.4420
  103OSM    C4S10438   3.761   1.501  10.543 -0.0446  0.5646  0.2963
  103OSM    H4S10439   3.835   1.428  10.508 -1.1352  0.0240 -0.9354
  103OSM    C5S10440   3.645   1.504  10.482  0.6590 -0.0126 -0.4112
  103OSM    H5S10441   3.569   1.580  10.504  1.1565  0.4006 -0.0769
  103OSM    C6S10442   3.598   1.420  10.370  0.1162 -0.0247 -0.2282
  103OSM    H6S10443   3.499   1.378  10.398 -0.4974  0.3012 -1.8399
  103OSM    H6T10444   3.668   1.335  10.358  1.4769  0.4518  3.2590
  103OSM    C7S10445   3.596   1.499  10.235  0.2580 -0.3458  0.0285
  103OSM    H7S10446   3.678   1.574  10.225 -0.9186  0.9079 -0.4297
  103OSM    H7T10447   3.506   1.564  10.234  1.8658  2.0171  0.1754
  103OSM    C8S10448   3.591   1.389  10.120 -0.1066 -0.1003  0.9701
  103OSM    H8S10449   3.513   1.313  10.141  0.2940 -0.7873  0.0402
  103OSM    H8T10450   3.693   1.345  10.116  0.4844  1.1830  1.2419
  103OSM    C9S10451   3.567   1.450   9.978 -0.2180 -0.1416  0.6119
  103OSM    H9S10452   3.633   1.539   9.984  0.3455 -0.5313  0.3349
  103OSM    H9T10453   3.461   1.482   9.973 -0.3402 -0.7339 -2.0138
  103OSM   C10S10454   3.588   1.354   9.854 -0.4471  0.2953  0.7722
  103OSM   H10S10455   3.507   1.279   9.839 -1.7058  1.9172 -0.9774
  103OSM   H10T10456   3.682   1.297   9.871 -1.8775 -2.4234  0.2081
  103OSM   C11S10457   3.607   1.437   9.729 -0.3275  0.5345 -0.0734
  103OSM   H11S10458   3.699   1.499   9.736  2.8298 -3.5527 -1.5963
  103OSM   H11T10459   3.526   1.511   9.713 -0.7873  0.3325  1.2305
  103OSM   C12S10460   3.635   1.342   9.605 -0.3966 -0.2653 -0.9623
  103OSM   H12S10461   3.556   1.265   9.598 -3.0448  2.2664 -0.8264
  103OSM   H12T10462   3.733   1.291   9.620 -1.1965 -2.2165 -1.9976
  103OSM   C13S10463   3.625   1.421   9.469 -0.4092  0.5524 -0.9590
  103OSM   H13S10464   3.691   1.355   9.408  0.4798 -0.2312  0.7823
  103OSM   H13T10465   3.679   1.518   9.477 -0.0569  0.2280  1.1055
  103OSM   C14S10466   3.487   1.443   9.423 -0.1729 -0.8725 -0.1236
  103OSM   H14S10467   3.442   1.513   9.497  0.9862  0.2064 -0.3987
  103OSM   H14T10468   3.432   1.348   9.412  1.6676 -1.8861 -1.1170
  103OSM   C15S10469   3.466   1.523   9.288  0.0343 -0.0293 -0.3719
  103OSM   H15S10470   3.503   1.628   9.292  2.4599 -0.8190 -0.5930
  103OSM   H15T10471   3.360   1.529   9.256  0.0997  1.3069 -0.3940
  103OSM   C16S10472   3.534   1.461   9.168  0.1946 -0.1108  0.7810
  103OSM   H16S10473   3.492   1.359   9.157 -0.1717  0.1864 -0.8775
  103OSM   H16T10474   3.643   1.450   9.182  0.4519  0.4603 -0.5820
  103OSM   C17S10475   3.511   1.537   9.037 -0.0064 -0.0056  0.5394
  103OSM   H17S10476   3.562   1.635   9.044 -0.5312  0.6537 -3.1182
  103OSM   H17T10477   3.400   1.546   9.030  0.0493 -0.4227 -1.6120
  103OSM   C18S10478   3.550   1.463   8.903 -0.0582 -0.6711  0.4382
  103OSM   H18S10479   3.658   1.436   8.891  0.0973  0.8732 -2.7721
  103OSM   H18T10480   3.511   1.514   8.812  2.3281  1.5155  0.5123
  103OSM   H18U10481   3.511   1.359   8.904  0.1961 -0.7780 -0.2114
  103OSM    C1F10482   4.063   1.802  10.489 -0.3826 -0.4832  0.3405
  103OSM     OF10483   4.171   1.788  10.551  0.0422 -0.4355  0.2004
  103OSM    C2F10484   4.056   1.900  10.370 -0.3247 -0.4588  0.2488
  103OSM    H2F10485   3.970   1.964  10.400 -1.7622 -1.6833 -1.0480
  103OSM    H2G10486   4.022   1.839  10.283  0.8293 -0.2298 -0.3863
  103OSM    C3F10487   4.177   1.992  10.335  0.6374  0.7339  0.0928
  103OSM    H3F10488   4.253   1.932  10.280  1.5635  1.6415  0.3480
  103OSM    H3G10489   4.226   2.041  10.422 -0.2933 -1.4479  1.9712
  103OSM    C4F10490   4.145   2.103  10.236  0.5693  0.3443  0.6357
  103OSM    H4F10491   4.227   2.176  10.221 -2.2749  3.2778 -2.4076
  103OSM    H4G10492   4.065   2.165  10.283 -1.9192 -1.5103 -0.9015
  103OSM    C5F10493   4.102   2.055  10.098 -1.1971  0.0761  0.8705
  103OSM    H5F10494   4.039   1.964  10.094 -0.9041 -0.1056  0.3229
  103OSM    H5G10495   4.192   2.023  10.042 -2.1848 -0.1903 -0.6062
  103OSM    C6F10496   4.061   2.165   9.996  0.3717 -0.0408 -0.5734
  103OSM    H6F10497   4.142   2.240   9.993 -1.1204  1.8960  2.5405
  103OSM    H6G10498   3.968   2.209  10.038  0.2101  0.2909 -1.2662
  103OSM    C7F10499   4.045   2.118   9.847 -0.1045 -0.3138 -0.1559
  103OSM    H7F10500   3.952   2.059   9.831  0.6773 -1.4562 -0.6711
  103OSM    H7G10501   4.128   2.049   9.819  0.2436 -0.4622  1.1631
  103OSM    C8F10502   4.043   2.231   9.740  0.9967 -0.2204 -0.2917
  103OSM    H8F10503   4.024   2.169   9.650  2.7768  1.1559 -1.6964
  103OSM    H8G10504   4.140   2.279   9.716  2.1222 -1.0746  2.1846
  103OSM    C9F10505   3.932   2.326   9.758 -0.4247  0.6875 -0.1291
  103OSM    H9F10506   3.922   2.360   9.862 -0.5750  0.0644  0.0641
  103OSM   C10F10507   3.833   2.352   9.664  0.2562  0.6838  0.0561
  103OSM   H10F10508   3.759   2.429   9.687 -0.3355  0.4821 -1.0820
  103OSM   C11F10509   3.825   2.284   9.529  0.0964  0.0503 -0.5501
  103OSM   H11F10510   3.775   2.185   9.540  2.4053 -1.3115 -1.6726
  103OSM   H11G10511   3.929   2.270   9.493  0.8559  1.2444  1.0674
  103OSM   C12F10512   3.764   2.379   9.419 -0.0074  0.2190  0.9985
  103OSM   H12F10513   3.820   2.474   9.428  2.1915 -1.1426  2.5456
  103OSM   H12G10514   3.657   2.393   9.447  0.2888  1.8723  1.4034
  103OSM   C13F10515   3.788   2.322   9.275  0.2236 -0.0988 -0.2397
  103OSM   H13F10516   3.897   2.302   9.271 -0.1040 -2.0250 -0.8150
  103OSM   H13G10517   3.743   2.220   9.274 -0.2449  0.0970  0.0631
  103OSM   C14F10518   3.733   2.414   9.165  0.5915  0.7233 -0.0528
  103OSM   H14F10519   3.806   2.497   9.150  0.4380  0.7386 -0.7346
  103OSM   H14G10520   3.642   2.462   9.206  1.5875  1.9200  0.8417
  103OSM   C15F10521   3.714   2.341   9.036 -0.0729 -0.2508  0.0139
  103OSM   H15F10522   3.674   2.404   8.954 -1.1707 -0.2345  0.5418
  103OSM   H15G10523   3.635   2.264   9.050 -0.6205 -0.2378 -2.5853
  103OSM   C16F10524   3.837   2.261   8.980 -0.3068  0.4751  0.8045
  103OSM   H16F10525   3.911   2.230   9.057  0.5390 -0.1264 -0.2326
  103OSM   H16G10526   3.890   2.322   8.903 -0.4498  0.4035  0.6478
  103OSM   C17F10527   3.806   2.126   8.914  1.0066 -0.6092 -0.4250
  103OSM   H17F10528   3.747   2.066   8.986  0.1454  1.1266  0.3891
  103OSM   H17G10529   3.903   2.074   8.904  2.0594  0.5495  2.7679
  103OSM   C18F10530   3.722   2.133   8.792  0.2060  0.0738  0.6860
  103OSM   H18F10531   3.625   2.186   8.796 -0.3938 -0.7474 -1.6098
  103OSM   H18G10532   3.699   2.036   8.744 -0.1932 -0.0791  1.1762
  103OSM   H18H10533   3.781   2.188   8.715  0.8461  0.6677  1.5756
  104OSM      N10534   6.030   2.766  10.854 -0.1529 -0.4779  0.1179
  104OSM    C1510535   6.027   2.653  10.946  0.3761  0.2295 -0.2821
  104OSM   H15A10536   5.974   2.570  10.902  0.7399 -1.2866  1.9834
  104OSM   H15B10537   5.963   2.673  11.030 -1.5709 -0.9295 -1.3981
  104OSM   H15C10538   6.127   2.621  10.970  0.6103  1.9339  1.1700
  104OSM    C1410539   6.119   2.883  10.913  0.0141 -0.0432 -0.3080
  104OSM   H14A10540   6.082   2.921  11.007 -1.2541  0.3165 -0.9327
  104OSM   H14B10541   6.125   2.962  10.839  1.9625 -0.1353 -0.3154
  104OSM   H14C10542   6.221   2.851  10.932  0.5732  1.7849 -0.0282
  104OSM    C1310543   6.094   2.721  10.724  0.0945 -0.4111 -0.5507
  104OSM   H13A10544   6.113   2.813  10.671  0.1836  1.4041  2.4014
  104OSM   H13B10545   6.040   2.641  10.676  0.8531 -1.2674 -0.0036
  104OSM   H13C10546   6.195   2.685  10.731  0.0919 -0.6586 -1.6335
  104OSM    C1210547   5.885   2.816  10.834 -0.5147  0.2074  0.6251
  104OSM   H12A10548   5.834   2.825  10.928  0.6115 -1.3597  1.4279
  104OSM   H12B10549   5.824   2.748  10.778  0.2972  0.3950 -0.5209
  104OSM    C1110550   5.860   2.957  10.758 -0.1874 -0.0198 -0.2504
  104OSM   H11A10551   5.750   2.965  10.744 -0.1617  0.8196 -0.0399
  104OSM   H11B10552   5.901   2.953  10.654 -0.2877  0.8273 -0.3341
  104OSM      P10553   5.945   3.208  10.766  0.0791  0.4156 -0.1811
  104OSM    O1310554   5.918   3.315  10.863 -0.0469 -0.1784  0.6320
  104OSM    O1410555   6.082   3.208  10.708  0.0452 -0.3949 -0.2827
  104OSM    O1110556   5.854   3.230  10.636 -0.3594 -0.1120  0.0896
  104OSM    O1210557   5.899   3.067  10.835  0.2033 -0.3132 -0.2494
  104OSM    C1S10558   5.854   3.344  10.556  0.2463  0.3088  0.1695
  104OSM    H1S10559   5.942   3.407  10.577 -0.7427  1.4192  1.1065
  104OSM    H1T10560   5.779   3.419  10.588  2.1122  2.6070 -0.6027
  104OSM     NF10561   5.834   3.432  10.314  0.1104 -0.3249 -0.2196
  104OSM    HNF10562   5.744   3.461  10.282  0.8997 -1.1513 -3.6809
  104OSM    C2S10563   5.841   3.314  10.400 -0.1022  0.7815  0.5816
  104OSM    H2S10564   5.931   3.263  10.362 -1.3315  0.5132 -2.1930
  104OSM    C3S10565   5.711   3.223  10.389 -0.3375 -0.1137 -0.5227
  104OSM    H3S10566   5.622   3.270  10.436 -0.3449 -0.4942 -0.1589
  104OSM     O310567   5.719   3.092  10.448  1.4220 -0.4319  0.1857
  104OSM    HO310568   5.799   3.093  10.500  1.2914 -0.6975  0.3968
  104OSM    C4S10569   5.675   3.203  10.240 -0.2110 -0.4805  0.1587
  104OSM    H4S10570   5.578   3.244  10.208 -0.3585 -0.6868  0.3374
  104OSM    C5S10571   5.743   3.112  10.156  0.8463 -0.2508  0.1833
  104OSM    H5S10572   5.828   3.051  10.191  0.8390 -0.8293 -0.7794
  104OSM    C6S10573   5.693   3.100  10.015  0.9683  0.2326 -0.4629
  104OSM    H6S10574   5.608   3.168   9.993 -1.2808 -1.6982  1.6863
  104OSM    H6T10575   5.661   2.998   9.986  1.1880  0.5514 -1.9336
  104OSM    C7S10576   5.808   3.141   9.926 -0.9265  0.7312  0.2902
  104OSM    H7S10577   5.885   3.064   9.951  0.9023  2.3166 -0.2822
  104OSM    H7T10578   5.847   3.243   9.942 -1.2098  0.7671  0.7714
  104OSM    C8S10579   5.781   3.130   9.775 -0.7485  0.0816 -0.0087
  104OSM    H8S10580   5.736   3.031   9.751 -0.9886 -0.7345  3.3708
  104OSM    H8T10581   5.879   3.156   9.730 -0.2378  3.0176  2.4568
  104OSM    C9S10582   5.676   3.237   9.731  0.2954  0.7036  0.3504
  104OSM    H9S10583   5.708   3.338   9.766  0.6770  0.3574  1.0146
  104OSM    H9T10584   5.591   3.200   9.792  1.4557 -1.1869  0.9336
  104OSM   C10S10585   5.646   3.242   9.580  0.5503 -0.4444 -0.2878
  104OSM   H10S10586   5.551   3.294   9.557  0.3255  0.2539  2.0080
  104OSM   H10T10587   5.619   3.136   9.557  0.7860 -0.5468 -0.0970
  104OSM   C11S10588   5.759   3.278   9.486 -0.1835  0.0196 -0.7892
  104OSM   H11S10589   5.851   3.229   9.524 -0.3770  0.8004  0.7547
  104OSM   H11T10590   5.791   3.384   9.477  0.5648 -0.1448 -0.1964
  104OSM   C12S10591   5.727   3.238   9.339 -0.0255 -0.0076  0.6091
  104OSM   H12S10592   5.697   3.327   9.279 -1.4440 -0.0272  1.2297
  104OSM   H12T10593   5.636   3.174   9.340  0.6296 -0.9476  1.1020
  104OSM   C13S10594   5.845   3.168   9.269 -0.2033 -0.0388  0.3394
  104OSM   H13S10595   5.866   3.069   9.314 -0.4032 -0.7914 -1.1567
  104OSM   H13T10596   5.930   3.238   9.285  0.5374 -0.4252 -1.5945
  104OSM   C14S10597   5.830   3.146   9.116  0.4033  0.3841 -0.4408
  104OSM   H14S10598   5.733   3.102   9.084  0.4336  0.3361 -0.4659
  104OSM   H14T10599   5.905   3.074   9.077 -0.5248  0.7235 -3.0612
  104OSM   C15S10600   5.863   3.275   9.047  0.2328 -0.0153 -0.0070
  104OSM   H15S10601   5.962   3.317   9.075 -0.4861  1.8623 -0.1593
  104OSM   H15T10602   5.796   3.352   9.090 -1.1079 -0.4569 -1.2216
  104OSM   C16S10603   5.838   3.263   8.892  0.2611  0.5358  0.1337
  104OSM   H16S10604   5.856   3.362   8.843 -1.3921  1.3036  0.9825
  104OSM   H16T10605   5.732   3.238   8.872  0.1395  1.2984 -0.2416
  104OSM   C17S10606   5.940   3.181   8.809 -0.0298 -0.0246  0.1479
  104OSM   H17S10607   5.925   3.071   8.824 -0.7336 -0.1867 -1.5514
  104OSM   H17T10608   6.045   3.198   8.843 -0.2275 -2.0948  2.0775
  104OSM   C18S10609   5.926   3.199   8.656 -0.0691  0.3929  0.6062
  104OSM   H18S10610   5.839   3.135   8.627  1.1637 -1.7550  1.4686
  104OSM   H18T10611   6.012   3.168   8.594 -0.7197 -0.3830  0.0681
  104OSM   H18U10612   5.914   3.307   8.630  1.7541  0.0866 -1.8367
  104OSM    C1F10613   5.936   3.518  10.287 -0.5224 -0.5765  0.1471
  104OSM     OF10614   6.051   3.497  10.327  0.4732 -0.9442 -0.1335
  104OSM    C2F10615   5.909   3.633  10.198  0.3681 -0.2067 -0.1247
  104OSM    H2F10616   5.849   3.707  10.256  3.1392  2.0047  0.1639
  104OSM    H2G10617   5.841   3.595  10.118  0.1091  1.4735 -0.7548
  104OSM    C3F10618   6.029   3.710  10.140  0.0350  0.3995  0.6905
  104OSM    H3F10619   6.101   3.631  10.110 -1.4395 -0.7562  0.0700
  104OSM    H3G10620   6.081   3.770  10.218  1.5858 -1.6808  1.3603
  104OSM    C4F10621   5.990   3.800  10.020 -0.2854  0.5112 -0.1598
  104OSM    H4F10622   6.084   3.853   9.992  1.9989 -2.0363  2.0510
  104OSM    H4G10623   5.908   3.873  10.036 -0.4251  0.6380 -1.3514
  104OSM    C5F10624   5.971   3.719   9.890  0.6710  0.4036  0.3705
  104OSM    H5F10625   5.886   3.648   9.889  0.4060  0.7218  0.1159
  104OSM    H5G10626   6.054   3.646   9.884 -0.7234 -1.1393 -1.3220
  104OSM    C6F10627   5.964   3.806   9.764 -0.1869  0.1325 -0.3839
  104OSM    H6F10628   6.035   3.891   9.768 -0.4945  0.3726 -0.0202
  104OSM    H6G10629   5.866   3.856   9.745  0.1088  0.7683 -0.2688
  104OSM    C7F10630   5.993   3.729   9.635 -0.5293 -0.3307 -0.2591
  104OSM    H7F10631   5.922   3.645   9.630 -1.3820  0.4365 -1.5493
  104OSM    H7G10632   6.098   3.692   9.626  0.0543  1.0371  0.5460
  104OSM    C8F10633   5.954   3.803   9.502 -0.4544 -0.4736  0.0068
  104OSM    H8F10634   6.054   3.801   9.454  0.2093  3.0275  0.9968
  104OSM    H8G10635   5.942   3.912   9.519  2.2900  0.2173 -1.8257
  104OSM    C9F10636   5.848   3.749   9.417  0.2282  0.8507  0.3984
  104OSM    H9F10637   5.785   3.677   9.471  0.6377  0.8686  0.9145
  104OSM   C10F10638   5.838   3.756   9.282  0.4147  0.3454 -1.0612
  104OSM   H10F10639   5.749   3.719   9.229 -0.1894  0.7830 -0.3752
  104OSM   C11F10640   5.929   3.840   9.196 -0.4265  0.7398  0.5149
  104OSM   H11F10641   5.980   3.919   9.255 -1.1045  1.9244 -0.4409
  104OSM   H11G10642   5.871   3.896   9.119  1.2847 -0.0359 -1.4250
  104OSM   C12F10643   6.035   3.745   9.131 -0.4596  0.3277  0.4495
  104OSM   H12F10644   6.083   3.682   9.208 -2.4474  0.8811  2.2786
  104OSM   H12G10645   6.113   3.808   9.083  0.3518  1.8241  3.4125
  104OSM   C13F10646   5.986   3.661   9.017  0.0476  0.3935 -1.0808
  104OSM   H13F10647   5.896   3.601   9.041  0.8695 -0.4921 -0.1444
  104OSM   H13G10648   6.068   3.587   8.998 -0.0448 -0.3714  1.2339
  104OSM   C14F10649   5.942   3.745   8.892  0.3143  0.2875 -0.2799
  104OSM   H14F10650   6.028   3.802   8.850 -0.9914  1.7307 -1.0641
  104OSM   H14G10651   5.862   3.811   8.930 -0.5090 -0.7724 -0.1183
  104OSM   C15F10652   5.895   3.644   8.789  0.8648 -0.6961  0.0476
  104OSM   H15F10653   5.807   3.590   8.829 -0.5310  0.6824 -1.0285
  104OSM   H15G10654   5.971   3.563   8.791 -0.9986 -2.5396 -0.6141
  104OSM   C16F10655   5.869   3.709   8.652 -0.5103  0.2181  0.1642
  104OSM   H16F10656   5.834   3.637   8.575  0.6363 -0.3988  0.1899
  104OSM   H16G10657   5.971   3.744   8.625  0.4049 -2.4948 -0.2037
  104OSM   C17F10658   5.763   3.819   8.659 -0.5636 -0.8827  0.3219
  104OSM   H17F10659   5.778   3.892   8.740 -0.4809 -0.8140  0.2444
  104OSM   H17G10660   5.667   3.763   8.667 -2.7630  2.8003  2.2914
  104OSM   C18F10661   5.749   3.897   8.523 -0.9752 -0.4234  0.0261
  104OSM   H18F10662   5.739   3.832   8.434 -1.7850  1.8218 -1.6284
  104OSM   H18G10663   5.836   3.966   8.515 -0.5845 -0.9900 -0.8064
  104OSM   H18H10664   5.661   3.964   8.527 -1.8960 -1.6650  1.1579
  105OSM      N10665   5.565   3.284  11.135  0.0667 -0.3087  0.4355
  105OSM    C1510666   5.509   3.365  11.245  0.0596  0.0947  0.0552
  105OSM   H15A10667   5.504   3.470  11.219 -2.3465  0.3072  1.1078
  105OSM   H15B10668   5.570   3.358  11.333 -1.6116 -2.5040  1.1253
  105OSM   H15C10669   5.413   3.333  11.281  0.9867 -0.0930  2.5883
  105OSM    C1410670   5.712   3.322  11.126 -0.6739  0.7426  0.1223
  105OSM   H14A10671   5.767   3.283  11.210  1.1373  0.5004 -1.1219
  105OSM   H14B10672   5.725   3.430  11.124 -2.2374  0.9712 -2.2779
  105OSM   H14C10673   5.753   3.268  11.042 -2.1555 -1.0604  0.4876
  105OSM    C1310674   5.543   3.141  11.180  1.3936 -0.6434  0.5500
  105OSM   H13A10675   5.539   3.078  11.092 -0.3143 -1.2116  1.0010
  105OSM   H13B10676   5.448   3.133  11.230  0.5976  1.7723 -0.4789
  105OSM   H13C10677   5.614   3.108  11.255  0.1066 -0.4179  1.9005
  105OSM    C1210678   5.485   3.307  11.002 -0.0054 -0.1873 -0.0856
  105OSM   H12A10679   5.489   3.410  10.970 -1.5869  0.5051  1.7241
  105OSM   H12B10680   5.378   3.294  11.011  0.0217 -0.3718 -0.0190
  105OSM    C1110681   5.535   3.215  10.887 -0.4888 -0.1809 -0.0288
  105OSM   H11A10682   5.646   3.214  10.884 -0.4047  2.5993 -2.8325
  105OSM   H11B10683   5.511   3.248  10.784  2.1184  0.9579 -0.3420
  105OSM      P10684   5.334   3.042  10.882  0.4658 -0.3676 -0.0918
  105OSM    O1310685   5.312   2.919  10.962  0.0645  0.8546  0.0778
  105OSM    O1410686   5.253   3.163  10.917 -0.3222  0.3904  0.2130
  105OSM    O1110687   5.310   3.010  10.731  0.1692  0.6897 -0.0304
  105OSM    O1210688   5.486   3.082  10.892  0.4862  0.2552 -0.2785
  105OSM    C1S10689   5.421   2.967  10.649 -0.4304  0.0659 -0.2920
  105OSM    H1S10690   5.459   2.871  10.688  0.2017  0.9894  1.4958
  105OSM    H1T10691   5.497   3.046  10.630 -0.1037 -0.1156  0.2407
  105OSM     NF10692   5.481   2.875  10.435  0.6263 -0.1018  0.6664
  105OSM    HNF10693   5.546   2.943  10.401  1.1436  0.9940  3.5060
  105OSM    C2S10694   5.365   2.934  10.503 -0.5808 -0.5523 -0.8114
  105OSM    H2S10695   5.287   2.857  10.519  0.4959 -1.2829  1.2758
  105OSM    C3S10696   5.306   3.064  10.443 -0.9670 -0.2304  0.1357
  105OSM    H3S10697   5.389   3.137  10.439 -1.5559  0.4240 -3.4572
  105OSM     O310698   5.202   3.136  10.508  0.3902  0.3738  0.4735
  105OSM    HO310699   5.186   3.082  10.585 -0.4240 -0.3102 -0.1456
  105OSM    C4S10700   5.268   3.041  10.298 -0.5700 -0.5211 -0.1061
  105OSM    H4S10701   5.202   2.957  10.271 -1.1871  0.4375 -1.7842
  105OSM    C5S10702   5.319   3.111  10.197 -0.1851  0.0057 -0.1320
  105OSM    H5S10703   5.396   3.187  10.215 -0.0140 -0.4627  1.1955
  105OSM    C6S10704   5.269   3.087  10.058  0.0327  0.5563 -0.3271
  105OSM    H6S10705   5.170   3.037  10.070  0.4328 -0.1737 -0.0142
  105OSM    H6T10706   5.333   3.016  10.002  1.1948  1.4897 -0.2159
  105OSM    C7S10707   5.267   3.213   9.982  0.4044 -0.0558  0.6730
  105OSM    H7S10708   5.372   3.249   9.977  0.6341 -0.8373 -1.2951
  105OSM    H7T10709   5.197   3.281  10.034 -1.1592 -1.0238 -0.0832
  105OSM    C8S10710   5.218   3.198   9.843  0.6416 -0.6372  0.3370
  105OSM    H8S10711   5.223   3.298   9.795  0.3823 -1.9436 -2.6948
  105OSM    H8T10712   5.113   3.161   9.846 -0.2003  1.6372  0.7485
  105OSM    C9S10713   5.296   3.105   9.747 -0.1360  0.0935 -0.6411
  105OSM    H9S10714   5.310   3.003   9.788  0.2749  0.0819 -0.8084
  105OSM    H9T10715   5.397   3.145   9.724  0.4696  0.2860  2.0609
  105OSM   C10S10716   5.219   3.072   9.616 -0.1000  0.8570  0.0696
  105OSM   H10S10717   5.195   3.176   9.583  0.8677  0.9634 -0.3180
  105OSM   H10T10718   5.126   3.016   9.641  1.6487 -1.7621  1.1290
  105OSM   C11S10719   5.301   2.987   9.520  0.1442 -0.1474 -0.6294
  105OSM   H11S10720   5.291   2.883   9.559 -0.6141  0.2820  0.3436
  105OSM   H11T10721   5.405   3.026   9.507 -0.2056  0.3312 -2.3068
  105OSM   C12S10722   5.241   2.995   9.375 -0.1691 -0.7159 -0.1822
  105OSM   H12S10723   5.250   3.103   9.351 -0.9315 -0.6238 -0.0614
  105OSM   H12T10724   5.135   2.969   9.394 -0.3787  0.7843  0.8427
  105OSM   C13S10725   5.305   2.899   9.274  0.4059 -0.2511  0.5638
  105OSM   H13S10726   5.414   2.922   9.276  0.3106  0.2041  0.7694
  105OSM   H13T10727   5.275   2.930   9.172  0.5788 -0.4009  0.4670
  105OSM   C14S10728   5.270   2.758   9.294  0.4650 -0.0477  0.3834
  105OSM   H14S10729   5.162   2.733   9.283  1.2987 -2.9348 -3.3406
  105OSM   H14T10730   5.290   2.729   9.400 -1.3333 -0.5492  0.6297
  105OSM   C15S10731   5.346   2.670   9.194  0.1040 -0.2407 -0.8579
  105OSM   H15S10732   5.345   2.569   9.240  0.2036  0.5153  0.8574
  105OSM   H15T10733   5.453   2.693   9.171  0.3603  1.1269  1.4432
  105OSM   C16S10734   5.268   2.654   9.063  0.7141 -0.5318  0.4052
  105OSM   H16S10735   5.244   2.757   9.028 -0.3095 -0.0470  2.3667
  105OSM   H16T10736   5.175   2.600   9.091 -0.9928  0.9890 -1.9288
  105OSM   C17S10737   5.340   2.574   8.955  0.2491 -0.1703 -0.2082
  105OSM   H17S10738   5.349   2.468   8.987 -0.0236  0.0879  0.7664
  105OSM   H17T10739   5.441   2.617   8.942  0.5591 -0.6050  0.7076
  105OSM   C18S10740   5.286   2.573   8.811  0.0871 -1.0521 -0.2090
  105OSM   H18S10741   5.273   2.677   8.774  0.0371 -0.9298  0.1469
  105OSM   H18T10742   5.192   2.515   8.794  0.7092 -2.0049 -0.4858
  105OSM   H18U10743   5.368   2.524   8.755  1.6775  0.4828  0.6837
  105OSM    C1F10744   5.518   2.751  10.447  0.0838 -0.3804  0.3070
  105OSM     OF10745   5.450   2.661  10.493  0.3315 -0.0907  0.0613
  105OSM    C2F10746   5.654   2.735  10.412 -0.0914 -0.3396  0.9876
  105OSM    H2F10747   5.714   2.692  10.495 -2.7035 -2.2997  1.9748
  105OSM    H2G10748   5.702   2.831  10.383 -1.0422  0.1440  0.9801
  105OSM    C3F10749   5.680   2.638  10.287  0.0489 -0.4413  0.2633
  105OSM    H3F10750   5.600   2.561  10.294 -1.8248  1.5658  2.8978
  105OSM    H3G10751   5.776   2.583  10.299 -0.6910 -1.7709  0.2350
  105OSM    C4F10752   5.663   2.705  10.149 -0.0348 -0.7064  0.4612
  105OSM    H4F10753   5.743   2.782  10.148 -1.4078  0.8093 -2.1442
  105OSM    H4G10754   5.566   2.759  10.158  0.8347  1.1397 -0.7105
  105OSM    C5F10755   5.653   2.613  10.030 -0.4469 -0.3515  0.4109
  105OSM    H5F10756   5.574   2.540  10.056 -0.4223 -1.0012 -1.2590
  105OSM    H5G10757   5.755   2.569  10.025 -1.6849 -3.5172  1.1114
  105OSM    C6F10758   5.611   2.685   9.899 -0.4393 -0.5768  0.1623
  105OSM    H6F10759   5.688   2.755   9.859 -1.1312 -1.1442 -2.3774
  105OSM    H6G10760   5.530   2.754   9.932 -0.9527 -1.7791  1.5068
  105OSM    C7F10761   5.567   2.588   9.789  0.4326  0.5512  0.9708
  105OSM    H7F10762   5.477   2.537   9.831 -1.5573  2.6163 -0.5650
  105OSM    H7G10763   5.652   2.516   9.792 -0.7575 -0.9542  0.1265
  105OSM    C8F10764   5.551   2.660   9.656  0.4341 -0.1784 -0.4496
  105OSM    H8F10765   5.645   2.716   9.641 -0.4595  1.8457  1.1433
  105OSM    H8G10766   5.462   2.725   9.669 -1.0094 -1.8384 -1.5162
  105OSM    C9F10767   5.508   2.554   9.558  0.3153 -0.6209 -0.2966
  105OSM    H9F10768   5.410   2.504   9.572  0.7647 -1.4350  0.0176
  105OSM   C10F10769   5.573   2.523   9.449 -0.1531  0.1538  0.8583
  105OSM   H10F10770   5.543   2.434   9.393  0.3780  0.2181  0.4640
  105OSM   C11F10771   5.706   2.585   9.418 -0.1111 -0.1793 -0.1015
  105OSM   H11F10772   5.769   2.597   9.508 -2.4891 -0.4293  1.6665
  105OSM   H11G10773   5.690   2.693   9.394 -1.8479 -0.1890  0.8282
  105OSM   C12F10774   5.800   2.510   9.316 -0.8857  0.1036 -0.5237
  105OSM   H12F10775   5.794   2.402   9.340  1.5981  0.2580  1.1319
  105OSM   H12G10776   5.902   2.542   9.346 -1.7153  0.5739  2.0480
  105OSM   C13F10777   5.768   2.547   9.168 -0.3458  0.2119 -0.4127
  105OSM   H13F10778   5.678   2.489   9.137  0.1578  0.0759 -1.7104
  105OSM   H13G10779   5.853   2.514   9.104  1.6000  0.1492  2.0799
  105OSM   C14F10780   5.741   2.693   9.141  0.0555 -0.9368 -0.2330
  105OSM   H14F10781   5.831   2.752   9.169 -0.5483  0.2896 -0.8301
  105OSM   H14G10782   5.654   2.741   9.189  0.9569  1.8921 -1.2470
  105OSM   C15F10783   5.736   2.707   8.988  0.0863  0.1584 -0.1405
  105OSM   H15F10784   5.669   2.633   8.938 -0.3969  2.0068 -2.3997
  105OSM   H15G10785   5.840   2.695   8.952  0.2880 -1.3519  0.8706
  105OSM   C16F10786   5.697   2.850   8.959  0.4180  0.1522  0.0872
  105OSM   H16F10787   5.790   2.908   8.946  0.1018  0.1524 -3.2217
  105OSM   H16G10788   5.647   2.882   9.053  2.3426  0.9288  0.8855
  105OSM   C17F10789   5.624   2.858   8.824  0.0870  0.0635  0.0099
  105OSM   H17F10790   5.551   2.775   8.813 -1.8086  1.4406  1.6758
  105OSM   H17G10791   5.695   2.847   8.739 -1.5714  1.3733 -1.6166
  105OSM   C18F10792   5.543   2.988   8.794  0.0084  0.6722 -0.2779
  105OSM   H18F10793   5.541   3.013   8.686  0.2628  0.1410 -0.4084
  105OSM   H18G10794   5.596   3.071   8.844 -0.2668  0.5235  0.2741
  105OSM   H18H10795   5.444   2.987   8.845 -0.0259  2.6187 -0.2604
  106OSM      N10796   1.558   6.537  10.759 -0.1595  0.2593  0.1279
  106OSM    C1510797   1.489   6.652  10.694 -0.1543  0.8186 -0.2614
  106OSM   H15A10798   1.551   6.739  10.712  2.8787 -1.2353 -0.0102
  106OSM   H15B10799   1.394   6.681  10.737 -0.7279 -2.0086  0.6134
  106OSM   H15C10800   1.496   6.635  10.588  0.2821 -4.8064  0.3724
  106OSM    C1410801   1.536   6.530  10.909 -0.2851  0.0108 -0.4915
  106OSM   H14A10802   1.559   6.625  10.955 -1.9081  0.5474 -0.7310
  106OSM   H14B10803   1.598   6.451  10.948 -2.8836 -1.3634  1.0823
  106OSM   H14C10804   1.433   6.509  10.933  0.3497 -2.6267  0.1793
  106OSM    C1310805   1.516   6.407  10.692 -0.0741 -0.1534  0.3721
  106OSM   H13A10806   1.412   6.394  10.719 -0.5260  0.0086 -1.2062
  106OSM   H13B10807   1.575   6.330  10.738  0.0344 -1.0495 -1.1964
  106OSM   H13C10808   1.537   6.411  10.586 -1.4278  1.1651  0.1110
  106OSM    C1210809   1.711   6.555  10.744 -0.5439  0.1640 -0.0210
  106OSM   H12A10810   1.734   6.551  10.639  0.7585  1.1661  0.1910
  106OSM   H12B10811   1.765   6.470  10.784 -0.2376  0.6803  0.6908
  106OSM    C1110812   1.783   6.683  10.803 -0.1785 -0.1941 -0.3519
  106OSM   H11A10813   1.891   6.661  10.790 -0.2649  0.1511 -1.7520
  106OSM   H11B10814   1.768   6.685  10.914 -1.1394  3.2153 -0.4302
  106OSM      P10815   1.831   6.912  10.675 -0.0301  0.0337  0.1024
  106OSM    O1310816   1.751   6.985  10.575  0.0674  0.2116 -0.4744
  106OSM    O1410817   1.919   6.984  10.765 -0.2952  0.0136 -0.2193
  106OSM    O1110818   1.920   6.814  10.595  0.1681  0.2736  0.0823
  106OSM    O1210819   1.735   6.809  10.752 -0.0720  0.6979  0.2772
  106OSM    C1S10820   1.885   6.723  10.489 -0.7640 -0.2415  0.0335
  106OSM    H1S10821   1.774   6.725  10.484 -0.8634 -1.2463  1.1872
  106OSM    H1T10822   1.906   6.620  10.524 -1.4596 -0.8789 -1.3600
  106OSM     NF10823   1.894   6.677  10.246  0.1178 -0.2987  0.0621
  106OSM    HNF10824   1.929   6.588  10.219 -0.9612 -1.3555  1.9836
  106OSM    C2S10825   1.961   6.749  10.362  0.2425  0.1797 -0.1460
  106OSM    H2S10826   1.964   6.856  10.332  2.0620  0.4980  0.9772
  106OSM    C3S10827   2.107   6.705  10.387  0.4435 -0.1505  0.0568
  106OSM    H3S10828   2.119   6.594  10.386 -0.5437 -0.4580 -4.9785
  106OSM     O310829   2.165   6.755  10.506 -0.1803  0.0321 -0.2911
  106OSM    HO310830   2.091   6.774  10.564 -0.3748 -0.8856 -0.2366
  106OSM    C4S10831   2.191   6.729  10.254  0.0546 -0.3194  0.0039
  106OSM    H4S10832   2.154   6.659  10.177  0.9110 -1.6897  0.7838
  106OSM    C5S10833   2.283   6.829  10.235 -0.2492  0.6036  0.7614
  106OSM    H5S10834   2.303   6.884  10.328 -0.0927  0.6588  0.6956
  106OSM    C6S10835   2.362   6.863  10.113  0.6961  0.3874  0.5695
  106OSM    H6S10836   2.468   6.857  10.144  0.4013 -1.4645  1.3550
  106OSM    H6T10837   2.331   6.968  10.093  0.0556  0.3746  1.4215
  106OSM    C7S10838   2.343   6.777   9.993 -0.1303  0.2210 -0.0675
  106OSM    H7S10839   2.234   6.769   9.976 -1.3175  2.5550  4.8526
  106OSM    H7T10840   2.390   6.679  10.016  0.1258  0.5779  0.9877
  106OSM    C8S10841   2.398   6.838   9.868 -0.4257 -0.4599  0.3604
  106OSM    H8S10842   2.506   6.860   9.884  0.1020 -0.6444 -2.4449
  106OSM    H8T10843   2.346   6.935   9.850  1.2006  0.1701 -1.2583
  106OSM    C9S10844   2.391   6.752   9.743 -0.3121 -0.1245 -0.1508
  106OSM    H9S10845   2.294   6.701   9.728 -0.7445 -0.0980  2.1752
  106OSM    H9T10846   2.472   6.675   9.742 -0.3502 -0.1628 -0.2865
  106OSM   C10S10847   2.420   6.831   9.621  0.9032 -0.2396  0.7906
  106OSM   H10S10848   2.519   6.881   9.634  1.3815 -1.0809  0.4767
  106OSM   H10T10849   2.338   6.906   9.631 -0.5303 -1.7299  0.5297
  106OSM   C11S10850   2.429   6.767   9.476  0.9661 -1.0113 -0.1425
  106OSM   H11S10851   2.325   6.737   9.451  0.6139 -0.0453  0.0792
  106OSM   H11T10852   2.506   6.689   9.490  2.2472  0.3223  0.4340
  106OSM   C12S10853   2.478   6.868   9.368 -0.6394 -0.3013 -0.5738
  106OSM   H12S10854   2.585   6.888   9.391 -0.9327  0.0232  0.5854
  106OSM   H12T10855   2.416   6.960   9.379 -0.3123 -0.1992  0.4958
  106OSM   C13S10856   2.462   6.811   9.232  0.3440 -0.5283  0.0165
  106OSM   H13S10857   2.360   6.768   9.220 -0.6372  1.2655  1.3965
  106OSM   H13T10858   2.518   6.716   9.216 -0.1286 -0.7084 -0.5937
  106OSM   C14S10859   2.491   6.907   9.119 -0.3333  0.2473 -0.2225
  106OSM   H14S10860   2.586   6.962   9.139 -1.9423  2.5578  1.5206
  106OSM   H14T10861   2.406   6.977   9.127  0.8091  1.4604  2.5373
  106OSM   C15S10862   2.487   6.843   8.979 -0.1341  0.2701  0.0984
  106OSM   H15S10863   2.388   6.792   8.972  0.4770 -1.3246  1.9972
  106OSM   H15T10864   2.555   6.755   8.972 -2.0027 -1.1295 -2.0956
  106OSM   C16S10865   2.514   6.946   8.864 -0.2819 -0.0238 -0.3185
  106OSM   H16S10866   2.425   7.011   8.853  0.2606  0.5845 -1.2784
  106OSM   H16T10867   2.526   6.894   8.766  1.1278 -1.0278  0.3483
  106OSM   C17S10868   2.650   7.030   8.877 -0.4335  0.4774 -0.3482
  106OSM   H17S10869   2.726   6.950   8.886  0.2226  1.2937  1.8848
  106OSM   H17T10870   2.641   7.090   8.970 -4.9471 -0.4967  0.0637
  106OSM   C18S10871   2.664   7.119   8.757  0.0446 -0.5402  0.4667
  106OSM   H18S10872   2.574   7.184   8.751  0.2164 -0.3292  0.1132
  106OSM   H18T10873   2.671   7.062   8.662  0.6707 -1.6177  1.1463
  106OSM   H18U10874   2.746   7.195   8.762 -1.1058  1.0509 -2.1952
  106OSM    C1F10875   1.774   6.706  10.205 -0.1147 -0.2977 -0.4245
  106OSM     OF10876   1.714   6.803  10.249 -0.5201 -0.1502  0.1547
  106OSM    C2F10877   1.701   6.607  10.113 -0.2937 -0.6787  0.2435
  106OSM    H2F10878   1.606   6.576  10.161 -1.1924 -0.9660 -1.6126
  106OSM    H2G10879   1.771   6.525  10.089  1.2243  0.4126  0.7994
  106OSM    C3F10880   1.676   6.681   9.977 -0.0696  0.1818  0.4846
  106OSM    H3F10881   1.630   6.779  10.004 -1.2790 -0.4140  0.6059
  106OSM    H3G10882   1.609   6.615   9.919 -0.1593  2.0407 -1.6434
  106OSM    C4F10883   1.805   6.704   9.902 -0.6655 -0.1893  1.1041
  106OSM    H4F10884   1.886   6.729   9.974  1.2492 -1.3742 -0.5113
  106OSM    H4G10885   1.795   6.799   9.847  0.0122 -0.5002  0.4254
  106OSM    C5F10886   1.855   6.597   9.807  0.0349  0.0498  0.0737
  106OSM    H5F10887   1.781   6.580   9.726  0.0258  0.6287 -0.0441
  106OSM    H5G10888   1.856   6.496   9.853 -0.0662 -1.1165 -2.3087
  106OSM    C6F10889   2.004   6.614   9.767 -0.1456 -0.1437  0.2560
  106OSM    H6F10890   2.092   6.622   9.835  0.7663  1.6660 -1.0482
  106OSM    H6G10891   2.016   6.718   9.729 -1.8165 -0.3083 -0.7960
  106OSM    C7F10892   2.059   6.506   9.660  0.4591  0.2229 -0.4034
  106OSM    H7F10893   2.010   6.410   9.689 -0.1479  0.4079 -0.7957
  106OSM    H7G10894   2.168   6.483   9.666 -0.1886 -3.2723  0.1688
  106OSM    C8F10895   2.040   6.529   9.513 -0.0916  0.8196  0.7411
  106OSM    H8F10896   2.065   6.439   9.454  0.5292  1.0212  0.6886
  106OSM    H8G10897   2.112   6.611   9.491  0.1218  0.3319 -0.4129
  106OSM    C9F10898   1.900   6.575   9.472 -0.2625 -0.0942 -1.2371
  106OSM    H9F10899   1.860   6.645   9.547  0.0682  0.9270 -1.9966
  106OSM   C10F10900   1.840   6.565   9.355  0.1466 -0.3637 -0.3758
  106OSM   H10F10901   1.740   6.609   9.339  0.2654 -0.0197 -0.1672
  106OSM   C11F10902   1.898   6.502   9.227 -0.6428  0.0993 -0.5035
  106OSM   H11F10903   1.813   6.467   9.165 -3.7384  1.0946  2.7919
  106OSM   H11G10904   1.953   6.410   9.255  0.9296  1.6653  2.0019
  106OSM   C12F10905   1.996   6.596   9.164  0.7684 -0.2643  1.0560
  106OSM   H12F10906   2.094   6.591   9.216  0.1225 -0.6134  2.2952
  106OSM   H12G10907   1.960   6.701   9.157  3.5991  0.6619 -1.5937
  106OSM   C13F10908   2.030   6.537   9.022 -0.4460 -0.0079  0.2276
  106OSM   H13F10909   1.938   6.537   8.960 -1.3960  1.6524  1.5406
  106OSM   H13G10910   2.062   6.432   9.036 -2.3051 -0.5492  0.6907
  106OSM   C14F10911   2.156   6.613   8.964 -0.1494  0.4689 -0.0860
  106OSM   H14F10912   2.243   6.599   9.032 -1.3451  0.3846  1.4915
  106OSM   H14G10913   2.135   6.721   8.952  0.2094  0.4029 -1.3995
  106OSM   C15F10914   2.184   6.557   8.822 -1.2112  0.1558  0.3407
  106OSM   H15F10915   2.091   6.537   8.766 -0.6597  0.6889 -0.8038
  106OSM   H15G10916   2.236   6.460   8.835  1.5804  1.4576 -0.3037
  106OSM   C16F10917   2.268   6.648   8.738  0.8960 -0.4734 -0.0100
  106OSM   H16F10918   2.365   6.677   8.785 -0.6909  0.7794  2.7529
  106OSM   H16G10919   2.215   6.741   8.712  2.1736 -0.1251 -1.5147
  106OSM   C17F10920   2.304   6.574   8.606  0.3694  0.7384  0.3503
  106OSM   H17F10921   2.210   6.558   8.549  0.5688 -0.7135  0.3850
  106OSM   H17G10922   2.351   6.474   8.618  0.4705  0.3069 -2.7648
  106OSM   C18F10923   2.392   6.646   8.509  0.8956 -0.2028  0.0165
  106OSM   H18F10924   2.413   6.589   8.416 -1.2535  0.0659 -0.6997
  106OSM   H18G10925   2.488   6.665   8.561 -0.1519  1.2516  1.5130
  106OSM   H18H10926   2.338   6.738   8.480 -2.4172 -1.1385  2.4985
  107OSM      N10927   2.821   2.240  11.107 -0.0327  0.9900  0.0923
  107OSM    C1510928   2.886   2.370  11.109  0.1739 -0.0325 -0.1376
  107OSM   H15A10929   2.933   2.387  11.205  1.2202  2.2567 -0.9772
  107OSM   H15B10930   2.827   2.460  11.095  0.9791  1.2374  3.5810
  107OSM   H15C10931   2.965   2.373  11.036 -0.0679  0.8224 -0.3805
  107OSM    C1410932   2.741   2.232  11.231 -0.2638  0.2675  0.7259
  107OSM   H14A10933   2.657   2.299  11.230 -0.5794 -0.0906 -1.1787
  107OSM   H14B10934   2.801   2.256  11.317  0.3146 -0.0889  0.4286
  107OSM   H14C10935   2.716   2.127  11.241 -0.1335  0.1289 -0.2591
  107OSM    C1310936   2.723   2.233  10.995 -0.2448 -0.4257  0.2785
  107OSM   H13A10937   2.650   2.311  11.012  0.6559  1.1069 -2.3648
  107OSM   H13B10938   2.663   2.143  10.998  0.3939 -0.8686 -0.0817
  107OSM   H13C10939   2.768   2.226  10.897 -0.9009 -0.2105 -0.0452
  107OSM    C1210940   2.930   2.132  11.113  0.1905  0.1573 -0.1653
  107OSM   H12A10941   2.889   2.045  11.163 -1.1212  1.0596  0.3979
  107OSM   H12B10942   2.996   2.176  11.185  0.0576  0.5041 -0.2561
  107OSM    C1110943   2.992   2.103  10.985  0.9057  0.1856  0.0493
  107OSM   H11A10944   3.086   2.045  10.995  0.8396 -0.1366 -1.0176
  107OSM   H11B10945   3.025   2.199  10.938  1.4675 -0.0844 -0.1159
  107OSM      P10946   2.897   1.884  10.914  0.2172  0.3189  0.1030
  107OSM    O1310947   3.017   1.819  10.864  0.5098 -0.1960 -0.1985
  107OSM    O1410948   2.854   1.860  11.053  0.2455  0.4166 -0.1838
  107OSM    O1110949   2.780   1.844  10.820  0.0111  0.3473  0.2531
  107OSM    O1210950   2.906   2.037  10.887 -0.1453  0.5629  0.0594
  107OSM    C1S10951   2.771   1.899  10.688  0.2086 -0.0314  0.1780
  107OSM    H1S10952   2.831   1.846  10.611  1.9809 -0.5000  1.7986
  107OSM    H1T10953   2.799   2.006  10.677 -1.5681  0.4375 -0.1421
  107OSM     NF10954   2.612   1.946  10.494 -0.0313 -0.0670 -0.3460
  107OSM    HNF10955   2.598   2.042  10.472 -2.6493  0.2886  2.1869
  107OSM    C2S10956   2.620   1.917  10.636 -0.6521 -0.0159  0.0399
  107OSM    H2S10957   2.564   1.822  10.652 -1.1680 -0.0643 -1.7702
  107OSM    C3S10958   2.553   2.024  10.725 -0.0786 -0.1010  0.0597
  107OSM    H3S10959   2.625   2.105  10.751  0.3170 -0.6945  0.8817
  107OSM     O310960   2.517   1.981  10.859 -0.5462  0.2396 -0.1083
  107OSM    HO310961   2.569   1.903  10.878  2.1284  2.1233  0.8430
  107OSM    C4S10962   2.431   2.081  10.654 -0.0334 -0.1152 -0.6311
  107OSM    H4S10963   2.347   2.010  10.645  1.4924 -2.4878  2.1218
  107OSM    C5S10964   2.428   2.205  10.605 -0.2389 -0.3503  0.5992
  107OSM    H5S10965   2.518   2.267  10.621  0.7863 -1.0960 -1.8223
  107OSM    C6S10966   2.314   2.267  10.529 -0.1544 -0.5268 -0.6416
  107OSM    H6S10967   2.279   2.360  10.579 -1.8012 -0.3782 -1.9729
  107OSM    H6T10968   2.223   2.204  10.524  0.1594 -0.9192 -1.5239
  107OSM    C7S10969   2.360   2.302  10.388  0.3579 -0.2699 -0.6247
  107OSM    H7S10970   2.447   2.370  10.378  0.6557  0.1783  3.2744
  107OSM    H7T10971   2.273   2.358  10.346  0.0732  0.1298  0.4627
  107OSM    C8S10972   2.363   2.184  10.295 -0.5085 -0.0691 -0.7397
  107OSM    H8S10973   2.284   2.108  10.310 -1.6033  1.3949  1.4865
  107OSM    H8T10974   2.464   2.139  10.304 -1.1189 -1.1587  1.0417
  107OSM    C9S10975   2.350   2.241  10.157 -0.4386 -0.3513  0.2148
  107OSM    H9S10976   2.422   2.324  10.142  0.5388 -0.7584  2.2839
  107OSM    H9T10977   2.244   2.275  10.149 -0.3261  0.0636  0.4811
  107OSM   C10S10978   2.353   2.131  10.048 -0.6956 -0.6461  0.2699
  107OSM   H10S10979   2.276   2.053  10.066  0.2049 -1.9348 -1.1818
  107OSM   H10T10980   2.448   2.073  10.047 -0.3668 -0.2125 -2.9386
  107OSM   C11S10981   2.320   2.191   9.911 -0.7221  0.1295 -0.1598
  107OSM   H11S10982   2.376   2.285   9.896 -1.5894  0.5462 -0.8371
  107OSM   H11T10983   2.210   2.206   9.907 -1.0591 -2.1048 -0.8587
  107OSM   C12S10984   2.361   2.086   9.798 -0.3477 -0.8868 -0.1704
  107OSM   H12S10985   2.316   1.986   9.817 -1.3133 -0.3441  0.4413
  107OSM   H12T10986   2.471   2.086   9.787 -0.1007  0.3804  1.8850
  107OSM   C13S10987   2.307   2.140   9.658  0.6334  0.2353 -0.0153
  107OSM   H13S10988   2.371   2.227   9.633  1.0672  0.1333  0.6927
  107OSM   H13T10989   2.202   2.174   9.667 -0.1182 -1.8701 -0.3551
  107OSM   C14S10990   2.307   2.029   9.551 -0.0125  0.2100 -0.3909
  107OSM   H14S10991   2.206   1.983   9.554 -0.6464  1.3967 -2.2590
  107OSM   H14T10992   2.384   1.952   9.574  0.7362  0.8492 -0.7081
  107OSM   C15S10993   2.341   2.086   9.413  0.2033 -0.7736 -0.6820
  107OSM   H15S10994   2.433   2.148   9.415  0.3655 -1.0251  0.2268
  107OSM   H15T10995   2.260   2.156   9.382  0.6760  0.5143  0.8328
  107OSM   C16S10996   2.362   1.981   9.308  0.0343  0.6134 -0.2324
  107OSM   H16S10997   2.271   1.919   9.296  0.2600  0.5751 -1.9226
  107OSM   H16T10998   2.443   1.918   9.351 -2.6657 -1.4863  2.1334
  107OSM   C17S10999   2.395   2.042   9.174  0.1267  0.6296 -0.8468
  107OSM   H17S11000   2.492   2.095   9.182 -1.0670  2.6132  3.0401
  107OSM   H17T11001   2.321   2.120   9.145 -0.0259 -0.0378 -2.3556
  107OSM   C18S11002   2.396   1.939   9.065  0.0681  0.3002  0.2471
  107OSM   H18S11003   2.433   1.978   8.968 -0.5563 -1.1750 -0.6130
  107OSM   H18T11004   2.293   1.900   9.055  0.2681  0.2177 -1.7828
  107OSM   H18U11005   2.468   1.859   9.095  2.6294  1.5287 -2.1353
  107OSM    C1F11006   2.665   1.857  10.415 -0.4156  0.4356 -0.3069
  107OSM     OF11007   2.680   1.736  10.455  0.0666 -0.3616 -0.2941
  107OSM    C2F11008   2.699   1.910  10.282  0.0629 -0.0414 -0.7147
  107OSM    H2F11009   2.776   1.989  10.294 -0.6608  0.5262  0.3862
  107OSM    H2G11010   2.607   1.961  10.245 -0.3782 -0.6692 -0.4870
  107OSM    C3F11011   2.749   1.798  10.191 -0.3275 -0.2310  0.5995
  107OSM    H3F11012   2.684   1.709  10.182 -2.1432  1.2347 -1.7026
  107OSM    H3G11013   2.846   1.759  10.228 -0.9962 -1.3313  1.2683
  107OSM    C4F11014   2.770   1.856  10.047  1.0668 -0.4078 -0.4112
  107OSM    H4F11015   2.849   1.804   9.988 -0.3683 -2.1233 -0.9384
  107OSM    H4G11016   2.801   1.962  10.051 -0.0198 -0.0344 -1.2538
  107OSM    C5F11017   2.639   1.841   9.968  0.1869  0.9257 -0.8603
  107OSM    H5F11018   2.571   1.923   9.999  0.6357  0.9605  0.0579
  107OSM    H5G11019   2.597   1.742   9.994  0.6441  0.6977 -0.9809
  107OSM    C6F11020   2.664   1.838   9.813  0.0447  0.2605  0.2793
  107OSM    H6F11021   2.567   1.855   9.762 -0.0626 -0.0937  0.3659
  107OSM    H6G11022   2.707   1.740   9.783 -0.5530 -0.2996  1.1853
  107OSM    C7F11023   2.756   1.954   9.769  0.3542 -0.0563  0.5643
  107OSM    H7F11024   2.861   1.934   9.796  1.3158  1.9438 -1.3428
  107OSM    H7G11025   2.719   2.048   9.817  0.3749  0.1889  0.1012
  107OSM    C8F11026   2.747   1.977   9.618  0.3156 -0.2198  1.0924
  107OSM    H8F11027   2.648   2.018   9.589 -0.3445 -1.5146  1.4183
  107OSM    H8G11028   2.760   1.873   9.581 -1.6059 -0.9138  2.2277
  107OSM    C9F11029   2.865   2.062   9.568 -0.4905 -0.7972 -0.1211
  107OSM    H9F11030   2.911   2.109   9.656 -0.5389 -2.0370  0.5932
  107OSM   C10F11031   2.892   2.078   9.442 -0.6661 -0.4674  0.4739
  107OSM   H10F11032   2.983   2.134   9.418  0.8020 -1.5548  3.1016
  107OSM   C11F11033   2.816   2.019   9.322 -0.5513 -0.1393 -0.3247
  107OSM   H11F11034   2.706   2.033   9.332 -1.1792 -3.1155 -2.0340
  107OSM   H11G11035   2.818   1.908   9.326 -1.5715 -0.2225 -1.5282
  107OSM   C12F11036   2.860   2.068   9.186  0.4672 -0.5724 -0.9202
  107OSM   H12F11037   2.970   2.056   9.180  0.4902 -0.7980 -0.1675
  107OSM   H12G11038   2.836   2.175   9.172 -1.2070 -0.9323 -0.9707
  107OSM   C13F11039   2.784   2.004   9.071  0.1207 -0.1750  0.4692
  107OSM   H13F11040   2.679   2.039   9.058 -0.7989 -1.9921  2.4527
  107OSM   H13G11041   2.769   1.901   9.111 -2.2208 -0.5489 -1.1469
  107OSM   C14F11042   2.862   1.990   8.938  0.7566 -0.7628  0.6359
  107OSM   H14F11043   2.823   1.924   8.859  1.4232  0.8298 -1.0936
  107OSM   H14G11044   2.965   1.954   8.960  0.2372 -1.7222  1.5675
  107OSM   C15F11045   2.875   2.128   8.871  0.4718  0.2556 -0.2053
  107OSM   H15F11046   2.915   2.200   8.944 -1.1854  1.9844 -0.9069
  107OSM   H15G11047   2.778   2.175   8.843  0.7269  0.7637 -0.2446
  107OSM   C16F11048   2.977   2.125   8.759  0.5752 -1.0343  0.8453
  107OSM   H16F11049   2.940   2.049   8.686  0.0495  2.2575 -2.6671
  107OSM   H16G11050   3.078   2.095   8.793  0.1235 -3.4758  0.2426
  107OSM   C17F11051   3.000   2.261   8.676  0.6476  0.5693 -0.1863
  107OSM   H17F11052   3.021   2.337   8.753  1.8274  1.9946 -1.8162
  107OSM   H17G11053   2.914   2.301   8.618  0.2985  1.0385  0.6398
  107OSM   C18F11054   3.114   2.247   8.581 -0.0895 -0.1941  0.1491
  107OSM   H18F11055   3.128   2.344   8.528  0.8527 -0.4338 -0.0598
  107OSM   H18G11056   3.110   2.169   8.502 -3.4961  0.9442 -1.0050
  107OSM   H18H11057   3.209   2.240   8.638 -0.4265  1.1038  0.9233
  108OSM      N11058   5.942   1.315  11.129  0.2230  0.1411  0.3958
  108OSM    C1511059   6.004   1.452  11.140  0.7853 -0.7389 -0.3101
  108OSM   H15A11060   5.943   1.528  11.093  0.7941  0.6275  1.7656
  108OSM   H15B11061   6.101   1.464  11.094  0.9338  3.3881  0.6885
  108OSM   H15C11062   6.003   1.483  11.243 -0.9068  1.0165 -0.8095
  108OSM    C1411063   6.048   1.222  11.163  0.6046 -0.0611 -0.6223
  108OSM   H14A11064   6.093   1.243  11.259  2.1189  0.6643 -1.4629
  108OSM   H14B11065   6.117   1.228  11.081 -0.2011 -0.3198 -1.3411
  108OSM   H14C11066   6.012   1.122  11.186  1.7247  0.0744  2.0557
  108OSM    C1311067   5.839   1.312  11.228  0.0538 -0.5077  0.0169
  108OSM   H13A11068   5.795   1.214  11.228 -0.9257 -0.1764 -3.0765
  108OSM   H13B11069   5.760   1.377  11.194 -0.1735 -1.0702 -0.5453
  108OSM   H13C11070   5.879   1.343  11.324  1.3356 -1.6754 -0.1162
  108OSM    C1211071   5.904   1.292  10.993 -0.0980 -0.5557  1.2777
  108OSM   H12A11072   5.992   1.289  10.930 -0.9281 -2.2626  0.1399
  108OSM   H12B11073   5.848   1.381  10.967  0.8805 -0.3852 -0.3820
  108OSM    C1111074   5.826   1.163  10.958  0.6135  0.3144 -0.0796
  108OSM   H11A11075   5.866   1.082  11.023 -0.7992  0.4245  0.9753
  108OSM   H11B11076   5.842   1.127  10.854 -1.4799 -0.2356 -0.2532
  108OSM      P11077   5.589   1.249  10.913 -0.5410 -0.3035  0.0610
  108OSM    O1311078   5.456   1.179  10.907  0.9329 -0.0066 -0.2480
  108OSM    O1411079   5.593   1.392  10.937 -0.4136 -0.2978  0.2069
  108OSM    O1111080   5.644   1.219  10.766 -0.3260  0.0111 -0.7105
  108OSM    O1211081   5.693   1.176  11.005  0.0931  0.3043 -0.4050
  108OSM    C1S11082   5.597   1.314  10.669 -0.2618 -0.4120  0.3595
  108OSM    H1S11083   5.659   1.406  10.674 -0.6600 -0.1495  0.5160
  108OSM    H1T11084   5.494   1.353  10.681 -0.2999 -0.2928 -0.3098
  108OSM     NF11085   5.592   1.373  10.439 -0.4914  0.2758 -0.2379
  108OSM    HNF11086   5.505   1.419  10.422 -0.2433  0.1637 -2.0228
  108OSM    C2S11087   5.604   1.257  10.529 -0.0731  0.0548 -0.1312
  108OSM    H2S11088   5.701   1.206  10.516  0.7197  1.2701  0.7662
  108OSM    C3S11089   5.491   1.153  10.515 -0.2562  0.2115 -0.7415
  108OSM    H3S11090   5.389   1.194  10.529 -0.8380 -1.1717 -0.7701
  108OSM     O311091   5.500   1.053  10.608  0.0592 -0.1315 -0.1620
  108OSM    HO311092   5.557   1.094  10.674  1.6259  0.4468 -1.7955
  108OSM    C4S11093   5.498   1.096  10.375  0.2144  0.0727 -0.0163
  108OSM    H4S11094   5.471   1.168  10.296  0.4880 -0.8325 -0.9616
  108OSM    C5S11095   5.562   0.984  10.335  0.4356  0.1747  0.5711
  108OSM    H5S11096   5.622   0.936  10.414  0.7719 -0.1230  0.1373
  108OSM    C6S11097   5.582   0.924  10.197 -0.2245  0.5124 -0.9738
  108OSM    H6S11098   5.503   0.848  10.179  1.3042 -0.9108 -1.9840
  108OSM    H6T11099   5.678   0.868  10.194  2.0348  4.0008  0.1518
  108OSM    C7S11100   5.575   1.024  10.086  0.4491 -0.4545  0.0951
  108OSM    H7S11101   5.652   1.103  10.091 -1.9499  2.0737 -0.3482
  108OSM    H7T11102   5.475   1.072  10.089 -0.4248 -1.9779 -2.0039
  108OSM    C8S11103   5.598   0.965   9.945 -0.0566  0.1672  0.1775
  108OSM    H8S11104   5.538   0.873   9.928  2.7240 -2.3675  2.8882
  108OSM    H8T11105   5.701   0.924   9.945  0.1539  0.2981  4.1569
  108OSM    C9S11106   5.571   1.072   9.833 -0.4306  0.2667  0.3348
  108OSM    H9S11107   5.644   1.155   9.834 -0.5258  0.4068 -1.2371
  108OSM    H9T11108   5.477   1.127   9.855  0.3512  1.4673  0.7415
  108OSM   C10S11109   5.596   1.011   9.696  0.3129 -0.3831 -0.4167
  108OSM   H10S11110   5.517   0.941   9.661 -0.2156  0.0743 -0.1535
  108OSM   H10T11111   5.686   0.947   9.709 -0.4813 -1.0970  2.3473
  108OSM   C11S11112   5.587   1.126   9.593  0.5786 -0.0430  0.1264
  108OSM   H11S11113   5.670   1.198   9.606 -1.1471  1.8227  1.5126
  108OSM   H11T11114   5.488   1.176   9.601  1.8731  2.7617 -0.0099
  108OSM   C12S11115   5.595   1.064   9.446  0.2986  0.1056 -0.4707
  108OSM   H12S11116   5.529   0.974   9.451  1.8046 -0.9672  1.1193
  108OSM   H12T11117   5.703   1.039   9.441  0.4250  0.7423 -1.0748
  108OSM   C13S11118   5.548   1.156   9.340 -0.1068 -0.5209  0.0526
  108OSM   H13S11119   5.617   1.242   9.327  3.2080 -3.3542 -3.4505
  108OSM   H13T11120   5.440   1.176   9.358  0.2732  1.1569  0.5735
  108OSM   C14S11121   5.568   1.086   9.203 -0.3085  0.7985 -0.6983
  108OSM   H14S11122   5.504   0.995   9.212  0.0983  0.6727  1.3997
  108OSM   H14T11123   5.672   1.054   9.179 -0.7150 -0.2203 -1.2036
  108OSM   C15S11124   5.507   1.159   9.090 -0.6822  0.8560 -0.3202
  108OSM   H15S11125   5.533   1.266   9.089  2.2816  0.2162  0.0697
  108OSM   H15T11126   5.396   1.150   9.096 -0.6281  0.6262  0.3340
  108OSM   C16S11127   5.535   1.099   8.954  0.1878  0.5036 -0.3655
  108OSM   H16S11128   5.474   1.007   8.945  0.2698  0.3625  0.4218
  108OSM   H16T11129   5.640   1.064   8.941  0.7941  1.1410  2.1415
  108OSM   C17S11130   5.478   1.179   8.840 -0.2224 -0.2227  0.2343
  108OSM   H17S11131   5.512   1.284   8.837 -0.0404 -0.3054 -1.2910
  108OSM   H17T11132   5.369   1.193   8.856  0.1823  1.6976  1.6778
  108OSM   C18S11133   5.518   1.109   8.710  0.3863 -0.2880  0.4910
  108OSM   H18S11134   5.447   1.028   8.686 -2.1002  1.8423  0.1933
  108OSM   H18T11135   5.613   1.053   8.727 -0.5543 -1.8530  0.7818
  108OSM   H18U11136   5.536   1.183   8.629 -1.1758  0.6013  0.9115
  108OSM    C1F11137   5.691   1.455  10.406  0.3288 -0.1759  0.0369
  108OSM     OF11138   5.803   1.451  10.443  0.2712  0.7642 -0.2988
  108OSM    C2F11139   5.648   1.571  10.324 -0.0381  0.5967  0.5793
  108OSM    H2F11140   5.625   1.662  10.383  2.2570  0.8815  1.1578
  108OSM    H2G11141   5.560   1.537  10.265 -2.8145  4.3268  2.1879
  108OSM    C3F11142   5.757   1.613  10.216 -0.0991  0.1176 -0.6365
  108OSM    H3F11143   5.847   1.655  10.265  0.3594 -2.1723  0.6101
  108OSM    H3G11144   5.716   1.692  10.149 -1.4777  2.3949  2.6185
  108OSM    C4F11145   5.821   1.501  10.130  0.9741 -0.2620 -0.8528
  108OSM    H4F11146   5.803   1.398  10.168  0.3859 -0.8693 -2.6860
  108OSM    H4G11147   5.932   1.510  10.143  0.8214  1.5556 -0.5091
  108OSM    C5F11148   5.776   1.497   9.984  0.1794 -0.1265  0.2416
  108OSM    H5F11149   5.786   1.600   9.941 -1.6402  0.3574  0.8931
  108OSM    H5G11150   5.671   1.468   9.966 -0.0149  1.9258 -2.8735
  108OSM    C6F11151   5.876   1.409   9.902 -0.4760  0.2090 -0.1872
  108OSM    H6F11152   5.859   1.305   9.938 -1.5839  0.8419  1.2656
  108OSM    H6G11153   5.983   1.413   9.930 -0.7206 -2.1591  1.3936
  108OSM    C7F11154   5.849   1.397   9.757  0.0682 -0.1207  0.1613
  108OSM    H7F11155   5.860   1.499   9.715  2.9698  0.4873  2.1455
  108OSM    H7G11156   5.743   1.365   9.743 -0.4982  0.3335  2.7602
  108OSM    C8F11157   5.943   1.295   9.688 -0.8574 -0.0764 -0.1666
  108OSM    H8F11158   5.916   1.297   9.581  0.2108 -1.7402 -0.5098
  108OSM    H8G11159   5.939   1.191   9.728  1.8124 -0.2145 -0.1088
  108OSM    C9F11160   6.083   1.338   9.690 -0.1020 -0.0733  0.5048
  108OSM    H9F11161   6.138   1.303   9.779 -0.0529  0.2535  0.6057
  108OSM   C10F11162   6.165   1.397   9.591  0.8336 -0.2122 -0.3140
  108OSM   H10F11163   6.270   1.410   9.622  1.0424 -0.6746 -0.8130
  108OSM   C11F11164   6.122   1.441   9.451  0.3264  1.2872  0.5047
  108OSM   H11F11165   6.158   1.543   9.427  1.1326  0.7010 -0.8638
  108OSM   H11G11166   6.013   1.461   9.443  0.1669  0.0081 -0.9151
  108OSM   C12F11167   6.163   1.349   9.332  0.3453 -0.1759 -0.0797
  108OSM   H12F11168   6.135   1.408   9.242 -4.1621  1.0105  1.8457
  108OSM   H12G11169   6.116   1.249   9.325  1.0660 -0.5561  0.4294
  108OSM   C13F11170   6.314   1.327   9.333  0.4421 -0.0609  0.6777
  108OSM   H13F11171   6.348   1.276   9.425  2.1263 -0.7676 -0.2715
  108OSM   H13G11172   6.363   1.427   9.335  0.0819  0.1176  0.5542
  108OSM   C14F11173   6.359   1.246   9.215 -0.0023  0.0175  0.3871
  108OSM   H14F11174   6.317   1.290   9.122  0.1287  0.1126  0.3735
  108OSM   H14G11175   6.308   1.147   9.228 -0.0364  0.1143  0.9936
  108OSM   C15F11176   6.514   1.235   9.206 -0.1840 -0.2882  0.6534
  108OSM   H15F11177   6.558   1.183   9.293  1.9978  0.5532  0.1097
  108OSM   H15G11178   6.556   1.337   9.219 -2.6447  1.2197 -1.9904
  108OSM   C16F11179   6.563   1.159   9.085 -0.1694 -0.1581 -0.1582
  108OSM   H16F11180   6.541   1.054   9.115  0.7556  0.3181  2.4185
  108OSM   H16G11181   6.673   1.168   9.073 -0.3360  0.0089 -1.8121
  108OSM   C17F11182   6.497   1.200   8.951  0.6092 -0.2872  0.0284
  108OSM   H17F11183   6.386   1.202   8.955  0.6214  1.5087  0.3247
  108OSM   H17G11184   6.523   1.116   8.883 -0.6851 -1.3313  0.7931
  108OSM   C18F11185   6.549   1.327   8.885  0.1065  0.0248 -0.2044
  108OSM   H18F11186   6.539   1.401   8.966 -0.6758  0.9952 -1.1531
  108OSM   H18G11187   6.489   1.359   8.797  2.3364  1.8748 -1.1549
  108OSM   H18H11188   6.654   1.307   8.856  0.1586  0.5666 -0.3886
  109OSM      N11189   5.989   4.303  10.817  0.4072  0.3974  0.0475
  109OSM    C1511190   6.080   4.194  10.869 -0.5696 -0.0263  0.1978
  109OSM   H15A11191   6.073   4.110  10.802 -1.7689  0.5195 -0.4034
  109OSM   H15B11192   6.052   4.163  10.969 -0.9594 -1.9553 -0.4773
  109OSM   H15C11193   6.181   4.231  10.878  0.0823 -1.4714 -0.7528
  109OSM    C1411194   6.011   4.312  10.666 -0.5282  0.4208  0.5719
  109OSM   H14A11195   5.980   4.228  10.606 -2.8524  1.6045 -0.0042
  109OSM   H14B11196   6.111   4.347  10.645 -0.7123  0.1123 -0.9012
  109OSM   H14C11197   5.945   4.389  10.631  0.4713  0.5085 -1.2490
  109OSM    C1311198   5.847   4.250  10.848 -0.6278  0.0152  0.4771
  109OSM   H13A11199   5.769   4.311  10.806 -1.5201 -1.8573 -0.7379
  109OSM   H13B11200   5.831   4.241  10.955 -0.0391  1.0744  0.6683
  109OSM   H13C11201   5.827   4.157  10.796  2.9403  0.8721 -2.9235
  109OSM    C1211202   6.020   4.432  10.890  0.0646  0.3334  0.3400
  109OSM   H12A11203   6.026   4.411  10.996 -0.9386 -2.0068  0.0076
  109OSM   H12B11204   5.932   4.494  10.882  0.3717  0.7966  0.4923
  109OSM    C1111205   6.137   4.517  10.838 -0.0592  0.2012  0.0984
  109OSM   H11A11206   6.127   4.613  10.893  0.4824  1.3230 -1.6584
  109OSM   H11B11207   6.116   4.537  10.730  0.7417 -1.7372 -0.4494
  109OSM      P11208   6.370   4.435  10.766 -0.6700 -0.1978 -0.0277
  109OSM    O1311209   6.460   4.552  10.772 -0.3922 -0.0639 -0.0671
  109OSM    O1411210   6.434   4.305  10.794  0.0589  0.1507  0.1428
  109OSM    O1111211   6.289   4.440  10.622 -0.7349 -0.2545  0.0632
  109OSM    O1211212   6.255   4.448  10.870  0.3092  0.3649  0.3796
  109OSM    C1S11213   6.322   4.336  10.532  0.0383 -0.0363 -0.1453
  109OSM    H1S11214   6.279   4.238  10.560 -0.4589  0.8398  2.3425
  109OSM    H1T11215   6.432   4.325  10.524  0.2707  0.8897  1.5023
  109OSM     NF11216   6.297   4.255  10.302  0.6386  0.0055 -0.0684
  109OSM    HNF11217   6.361   4.271  10.228  1.1136  2.5678  0.7635
  109OSM    C2S11218   6.252   4.364  10.397  0.1924  0.4343 -0.0784
  109OSM    H2S11219   6.143   4.356  10.418  0.5236 -0.2520  1.5374
  109OSM    C3S11220   6.296   4.502  10.338  0.2143  0.5896  0.4122
  109OSM    H3S11221   6.405   4.490  10.321  0.3317 -0.3309  1.6469
  109OSM     O311222   6.274   4.617  10.420  0.4131  0.0466 -0.2931
  109OSM    HO311223   6.286   4.586  10.510  1.3226  0.2572 -0.3363
  109OSM    C4S11224   6.237   4.518  10.204  0.5718 -0.0392  0.8639
  109OSM    H4S11225   6.128   4.504  10.191 -0.0538  4.5910 -0.5623
  109OSM    C5S11226   6.306   4.551  10.096  0.2569  0.4535  0.2519
  109OSM    H5S11227   6.415   4.562  10.102  0.1048  2.1133  0.4939
  109OSM    C6S11228   6.259   4.581   9.957  0.2811 -0.5383  0.7411
  109OSM    H6S11229   6.266   4.691   9.940 -0.5687 -0.9133 -2.7331
  109OSM    H6T11230   6.151   4.562   9.942  0.6146 -1.5292 -0.5606
  109OSM    C7S11231   6.342   4.515   9.842  0.2375  0.1780 -0.6305
  109OSM    H7S11232   6.356   4.407   9.860 -4.3081 -0.3880  0.7183
  109OSM    H7T11233   6.438   4.572   9.839 -0.7659  2.0608  0.5571
  109OSM    C8S11234   6.300   4.554   9.694 -0.2845 -0.6939 -0.5347
  109OSM    H8S11235   6.275   4.662   9.694 -1.1377 -0.8786  0.1380
  109OSM    H8T11236   6.203   4.508   9.662  0.1511 -1.4231 -0.8355
  109OSM    C9S11237   6.406   4.523   9.593  0.2077 -0.3584  0.2769
  109OSM    H9S11238   6.430   4.415   9.594 -1.6831 -0.8140  1.4048
  109OSM    H9T11239   6.497   4.585   9.611 -0.8095  1.0114  0.8524
  109OSM   C10S11240   6.366   4.550   9.447 -0.3493 -0.0745 -0.7587
  109OSM   H10S11241   6.336   4.655   9.429  1.8226  0.7111 -0.1809
  109OSM   H10T11242   6.281   4.481   9.432  0.9804 -1.1528 -4.3802
  109OSM   C11S11243   6.474   4.528   9.346  0.6761 -0.0450  0.1314
  109OSM   H11S11244   6.530   4.433   9.351  1.1628  0.1571 -1.2157
  109OSM   H11T11245   6.541   4.610   9.381 -1.1109  0.2157  3.2857
  109OSM   C12S11246   6.426   4.554   9.208 -0.0818 -0.2123  0.8506
  109OSM   H12S11247   6.403   4.662   9.196  0.7138 -0.2046 -0.9397
  109OSM   H12T11248   6.329   4.511   9.177  0.4871  0.2688 -1.9340
  109OSM   C13S11249   6.532   4.530   9.095  0.5256  0.3299 -0.5653
  109OSM   H13S11250   6.545   4.420   9.089 -0.6760  0.1078  0.4067
  109OSM   H13T11251   6.624   4.588   9.117  0.2513  0.2855  0.7840
  109OSM   C14S11252   6.491   4.571   8.954  0.5206  0.1721  0.1439
  109OSM   H14S11253   6.425   4.660   8.958  1.3048  0.7100  2.2257
  109OSM   H14T11254   6.437   4.486   8.906 -1.2687  0.7025  1.1194
  109OSM   C15S11255   6.615   4.607   8.873 -0.3185 -1.0023  0.2423
  109OSM   H15S11256   6.663   4.507   8.878 -0.3436 -1.2228 -2.4716
  109OSM   H15T11257   6.673   4.690   8.918 -0.6487 -1.0209  0.7104
  109OSM   C16S11258   6.576   4.629   8.725 -0.1904 -0.0089 -0.1053
  109OSM   H16S11259   6.498   4.708   8.713 -0.1515 -0.2046 -1.9442
  109OSM   H16T11260   6.539   4.532   8.686  1.1298  0.2380 -2.0968
  109OSM   C17S11261   6.688   4.664   8.636 -0.5994  1.0137 -0.5111
  109OSM   H17S11262   6.757   4.577   8.649  0.9905  2.3152  0.0276
  109OSM   H17T11263   6.733   4.757   8.676  0.0948  0.0034  1.1990
  109OSM   C18S11264   6.649   4.678   8.493 -0.1202 -0.3370  0.2687
  109OSM   H18S11265   6.712   4.754   8.443 -0.3970  1.0707  1.9458
  109OSM   H18T11266   6.542   4.706   8.503  0.0307  0.5051 -0.3546
  109OSM   H18U11267   6.648   4.583   8.436 -0.9984  0.7336 -1.5674
  109OSM    C1F11268   6.254   4.131  10.312 -0.3277 -0.0874  0.3971
  109OSM     OF11269   6.188   4.088  10.404 -0.2541  0.1479  0.5734
  109OSM    C2F11270   6.291   4.033  10.200 -0.3355 -0.4172  0.3060
  109OSM    H2F11271   6.229   4.040  10.109  0.2611 -2.8862 -0.3776
  109OSM    H2G11272   6.300   3.929  10.240  0.8663 -1.5889 -2.7182
  109OSM    C3F11273   6.437   4.069  10.148 -0.1091  0.1590 -0.3968
  109OSM    H3F11274   6.503   4.065  10.236 -2.4985 -0.2165  1.4863
  109OSM    H3G11275   6.445   4.175  10.116  3.1205  0.7362  1.8898
  109OSM    C4F11276   6.475   3.970  10.038  0.2409  0.4476  0.5987
  109OSM    H4F11277   6.445   3.868  10.072  0.7238  0.3697  0.8047
  109OSM    H4G11278   6.585   3.955  10.039  0.1988 -0.0654 -0.9740
  109OSM    C5F11279   6.418   4.015   9.905  0.3136 -0.1093 -0.5936
  109OSM    H5F11280   6.415   4.124   9.887 -0.1654 -0.3352 -1.9842
  109OSM    H5G11281   6.311   3.987   9.901 -0.3821  1.9939  1.4056
  109OSM    C6F11282   6.483   3.952   9.783  0.0853 -0.3775  0.3018
  109OSM    H6F11283   6.501   3.843   9.792 -2.1039 -0.9894 -1.7047
  109OSM    H6G11284   6.576   4.011   9.766 -0.2446 -0.1920 -0.9801
  109OSM    C7F11285   6.404   3.960   9.655  0.4746  0.2178 -0.0459
  109OSM    H7F11286   6.368   4.064   9.638 -1.5451 -0.8380 -3.0831
  109OSM    H7G11287   6.310   3.903   9.666  0.8617 -0.3294  0.5198
  109OSM    C8F11288   6.493   3.913   9.536  0.0361 -1.1845 -0.7897
  109OSM    H8F11289   6.536   3.813   9.559  1.8379 -0.2529  0.0996
  109OSM    H8G11290   6.585   3.975   9.532  1.0500 -2.6129 -0.3951
  109OSM    C9F11291   6.409   3.930   9.408 -0.3009 -0.2908 -0.2869
  109OSM    H9F11292   6.325   3.861   9.397  1.7533 -2.8750 -0.8146
  109OSM   C10F11293   6.429   4.028   9.318  0.5109  0.6424 -0.7718
  109OSM   H10F11294   6.362   4.034   9.232 -0.3739 -0.8196 -0.2268
  109OSM   C11F11295   6.530   4.144   9.318  0.2359 -0.1020 -0.0587
  109OSM   H11F11296   6.553   4.193   9.416  4.3697  1.1358 -1.4127
  109OSM   H11G11297   6.484   4.225   9.258 -1.1804 -0.5901  0.3371
  109OSM   C12F11298   6.662   4.100   9.263 -0.3837  0.3912 -0.7860
  109OSM   H12F11299   6.698   4.001   9.299  0.6990  0.1486 -2.3894
  109OSM   H12G11300   6.744   4.166   9.299  1.5550 -1.3337 -1.8250
  109OSM   C13F11301   6.662   4.099   9.112 -0.5235 -0.1042 -0.2889
  109OSM   H13F11302   6.610   4.191   9.077 -0.4481 -0.2312 -0.7426
  109OSM   H13G11303   6.587   4.026   9.073  0.4245 -0.4934 -1.4348
  109OSM   C14F11304   6.801   4.097   9.041  0.3004 -0.4341 -0.4736
  109OSM   H14F11305   6.860   4.014   9.087 -1.1249 -0.4654  1.4079
  109OSM   H14G11306   6.847   4.191   9.079  0.9163 -0.9173  0.0116
  109OSM   C15F11307   6.780   4.085   8.888  0.3173 -0.3696  0.0908
  109OSM   H15F11308   6.724   4.177   8.861  0.6901  0.0599  0.7738
  109OSM   H15G11309   6.725   3.991   8.864  1.7912 -1.3874  0.5222
  109OSM   C16F11310   6.906   4.098   8.808 -0.0600 -0.6828  0.7495
  109OSM   H16F11311   6.983   4.037   8.859 -1.3668 -1.2960  2.0556
  109OSM   H16G11312   6.934   4.205   8.812 -0.9662 -0.4517  1.1942
  109OSM   C17F11313   6.887   4.062   8.658  0.4338  0.1517 -0.1695
  109OSM   H17F11314   6.796   4.112   8.618 -0.7283 -0.5561  1.4854
  109OSM   H17G11315   6.851   3.957   8.651 -1.3130  0.7270 -0.3275
  109OSM   C18F11316   7.005   4.103   8.571 -0.3331  0.2085  0.4020
  109OSM   H18F11317   6.983   4.087   8.463  1.7507  1.6441 -0.2894
  109OSM   H18G11318   7.096   4.044   8.597 -1.2009 -0.8635  1.1138
  109OSM   H18H11319   7.028   4.211   8.573  1.3756 -0.0799 -1.1802
  110OSM      N11320   1.174   1.419  11.150 -0.9524 -0.2697 -0.3883
  110OSM    C1511321   1.285   1.342  11.224  0.3420 -0.0319  0.2722
  110OSM   H15A11322   1.298   1.243  11.181 -0.9640 -0.3847  0.6458
  110OSM   H15B11323   1.258   1.327  11.327 -0.3815 -0.6720  0.0061
  110OSM   H15C11324   1.383   1.384  11.209 -0.4848  2.9647  2.4196
  110OSM    C1411325   1.047   1.348  11.176  0.2806  0.0456  0.1844
  110OSM   H14A11326   1.039   1.336  11.283  0.5017 -1.4352  0.0566
  110OSM   H14B11327   1.061   1.245  11.145 -0.6378 -0.5063  1.5346
  110OSM   H14C11328   0.956   1.386  11.131 -0.3220 -0.3726  1.0362
  110OSM    C1311329   1.168   1.561  11.205  0.2125  0.2451 -0.2926
  110OSM   H13A11330   1.256   1.624  11.197 -0.0618  0.6813  0.0862
  110OSM   H13B11331   1.136   1.556  11.308 -0.7922 -2.6849 -0.6635
  110OSM   H13C11332   1.104   1.626  11.147 -1.9087  0.1247  1.8023
  110OSM    C1211333   1.185   1.424  10.998  0.3984  0.1341 -0.3885
  110OSM   H12A11334   1.173   1.320  10.973 -1.8558 -0.0408  1.0864
  110OSM   H12B11335   1.283   1.454  10.965  0.8200 -0.4725  0.2794
  110OSM    C1111336   1.083   1.509  10.909 -0.5649  0.0303  0.1069
  110OSM   H11A11337   1.112   1.492  10.803 -0.1206 -0.1702  0.2618
  110OSM   H11B11338   1.102   1.616  10.933 -1.3358  0.7274 -2.0845
  110OSM      P11339   0.868   1.376  10.849 -0.0357  0.0962 -0.0723
  110OSM    O1311340   0.838   1.265  10.942  0.3929 -0.4821  0.1356
  110OSM    O1411341   0.764   1.451  10.780 -0.5662 -0.1888  0.0494
  110OSM    O1111342   0.972   1.322  10.745  0.2038 -0.2303 -0.1169
  110OSM    O1211343   0.944   1.484  10.941  0.2098 -0.1018 -0.2402
  110OSM    C1S11344   0.924   1.227  10.648 -0.0356 -0.5687 -0.0170
  110OSM    H1S11345   0.823   1.249  10.607  0.2408  1.9351  0.4442
  110OSM    H1T11346   0.913   1.126  10.693 -0.7842  0.0951  1.3744
  110OSM     NF11347   0.953   1.143  10.418  1.1474 -0.4918 -0.0576
  110OSM    HNF11348   0.981   1.048  10.410 -0.6788 -1.3712  2.6017
  110OSM    C2S11349   1.019   1.222  10.520 -0.0526  0.3437  0.4887
  110OSM    H2S11350   1.033   1.326  10.485  1.8909  0.7620  2.2896
  110OSM    C3S11351   1.164   1.181  10.554  0.3182 -0.6614  0.0066
  110OSM    H3S11352   1.172   1.079  10.596 -2.0222 -0.6125  0.7063
  110OSM     O311353   1.212   1.274  10.646  0.4320 -0.4124 -0.0763
  110OSM    HO311354   1.132   1.305  10.689  0.4280 -0.7504  0.1618
  110OSM    C4S11355   1.252   1.193  10.430  0.2908  0.5616 -0.7052
  110OSM    H4S11356   1.265   1.294  10.390  0.2419  0.6461 -0.5053
  110OSM    C5S11357   1.325   1.100  10.365  0.1399  0.5336 -0.0869
  110OSM    H5S11358   1.343   1.002  10.414  0.4424  0.7478  0.2351
  110OSM    C6S11359   1.411   1.128  10.248 -0.1422 -0.4855  0.6197
  110OSM    H6S11360   1.457   1.033  10.211 -0.2040 -0.3882  0.2889
  110OSM    H6T11361   1.498   1.190  10.277  0.9938 -0.1711 -3.0048
  110OSM    C7S11362   1.335   1.202  10.136 -0.0030  0.7262  0.7009
  110OSM    H7S11363   1.400   1.235  10.052 -2.7658  3.9450 -0.3723
  110OSM    H7T11364   1.266   1.279  10.176 -1.3994  0.8097 -1.6618
  110OSM    C8S11365   1.228   1.100  10.076 -0.3232 -0.1840  0.0730
  110OSM    H8S11366   1.151   1.085  10.155  0.5121  2.0507  1.4139
  110OSM    H8T11367   1.276   1.007  10.040 -0.0285 -0.7268  1.7665
  110OSM    C9S11368   1.148   1.169   9.959 -0.3242  0.1585 -0.2063
  110OSM    H9S11369   1.106   1.267   9.988 -1.8766 -1.0219  1.7718
  110OSM    H9T11370   1.064   1.103   9.927  0.6323 -0.0918 -2.3690
  110OSM   C10S11371   1.240   1.186   9.838 -0.5443  0.5212  0.5506
  110OSM   H10S11372   1.313   1.102   9.839 -0.0725  0.9145 -0.1200
  110OSM   H10T11373   1.295   1.283   9.836  1.2093 -0.4137  1.5483
  110OSM   C11S11374   1.180   1.176   9.703  0.6035 -0.5409  0.5522
  110OSM   H11S11375   1.102   1.254   9.686  0.1660 -1.0058  0.3821
  110OSM   H11T11376   1.118   1.085   9.686 -0.9877  0.9893 -2.9676
  110OSM   C12S11377   1.285   1.172   9.592  0.2259 -0.0689 -0.1777
  110OSM   H12S11378   1.362   1.097   9.620 -1.1817 -1.6855 -0.4286
  110OSM   H12T11379   1.331   1.272   9.580  1.3711 -0.5357  0.1835
  110OSM   C13S11380   1.233   1.121   9.459 -0.2092 -0.5164  0.7223
  110OSM   H13S11381   1.188   1.022   9.481  0.8298 -1.3656 -0.7979
  110OSM   H13T11382   1.319   1.100   9.392  1.9670 -1.1103  3.4924
  110OSM   C14S11383   1.121   1.212   9.401  0.3039  0.4776  0.1067
  110OSM   H14S11384   1.135   1.320   9.383  1.5439  0.6892  2.0915
  110OSM   H14T11385   1.048   1.223   9.484 -1.4732 -0.1372 -1.3123
  110OSM   C15S11386   1.069   1.150   9.272  0.9370  0.1900 -0.6323
  110OSM   H15S11387   0.964   1.185   9.263  1.0774  0.5815 -0.7669
  110OSM   H15T11388   1.049   1.043   9.293 -1.6540  1.0009  1.6533
  110OSM   C16S11389   1.153   1.185   9.147 -0.0350 -0.1569  0.6381
  110OSM   H16S11390   1.255   1.167   9.187 -0.9502 -1.8607  2.3939
  110OSM   H16T11391   1.136   1.294   9.134  1.2013 -0.2879 -3.4353
  110OSM   C17S11392   1.123   1.092   9.029 -0.1391  0.0329 -0.4445
  110OSM   H17S11393   1.014   1.068   9.026  0.0703 -1.6273  1.9206
  110OSM   H17T11394   1.180   0.997   9.038 -0.6508 -0.1181  1.9323
  110OSM   C18S11395   1.178   1.145   8.894  0.3979  0.0036  0.3988
  110OSM   H18S11396   1.284   1.179   8.891  0.2043  0.8899  2.2524
  110OSM   H18T11397   1.115   1.225   8.850 -1.5226 -2.0135 -0.7275
  110OSM   H18U11398   1.169   1.060   8.824  0.6687  0.5702 -0.3315
  110OSM    C1F11399   0.842   1.194  10.363  0.1464 -0.1321 -0.4530
  110OSM     OF11400   0.804   1.313  10.375 -0.3510 -0.8586  0.3329
  110OSM    C2F11401   0.755   1.102  10.284  0.5459 -0.5282 -1.2423
  110OSM    H2F11402   0.666   1.086  10.349  0.6073 -0.8128 -1.2296
  110OSM    H2G11403   0.810   1.008  10.267 -0.6810 -1.9431  1.9044
  110OSM    C3F11404   0.704   1.148  10.147 -0.1662  0.7026  0.4523
  110OSM    H3F11405   0.796   1.166  10.087  0.5102 -0.8341  0.9793
  110OSM    H3G11406   0.660   1.250  10.158  0.1192  0.6604  2.4176
  110OSM    C4F11407   0.604   1.053  10.083  0.2237 -0.3813 -0.5823
  110OSM    H4F11408   0.507   1.080  10.130  1.0385  0.7878  0.5132
  110OSM    H4G11409   0.624   0.948  10.112  2.7618 -0.3056 -1.8310
  110OSM    C5F11410   0.574   1.071   9.929 -0.1443  0.1850 -1.1594
  110OSM    H5F11411   0.546   1.177   9.915 -1.0874  0.0341 -0.5277
  110OSM    H5G11412   0.479   1.015   9.910 -0.4989  0.5957 -0.6156
  110OSM    C6F11413   0.688   1.027   9.842  0.1676  0.1142  0.3681
  110OSM    H6F11414   0.734   0.944   9.899 -2.0221 -0.5917  1.1992
  110OSM    H6G11415   0.747   1.121   9.835 -1.9199  1.5565  1.1725
  110OSM    C7F11416   0.647   0.991   9.698 -0.0904  0.4886 -0.0185
  110OSM    H7F11417   0.584   1.074   9.658 -0.7239 -0.0749 -0.2127
  110OSM    H7G11418   0.575   0.907   9.698 -0.4268  0.7654 -0.8147
  110OSM    C8F11419   0.773   0.974   9.599  0.4401  0.1598 -1.3409
  110OSM    H8F11420   0.824   1.072   9.585 -1.2448  1.1060 -1.1337
  110OSM    H8G11421   0.729   0.940   9.503 -1.2922 -3.0988  0.4228
  110OSM    C9F11422   0.877   0.881   9.650 -0.3034  1.0055 -0.2265
  110OSM    H9F11423   0.922   0.898   9.748 -0.1829 -2.3995  0.4388
  110OSM   C10F11424   0.940   0.796   9.570  0.5330 -0.3082 -0.4454
  110OSM   H10F11425   1.028   0.748   9.615  1.2293  2.2814  1.1326
  110OSM   C11F11426   0.936   0.769   9.424 -0.2893  0.7438  0.6928
  110OSM   H11F11427   1.034   0.813   9.396  0.9171 -2.1495 -0.0084
  110OSM   H11G11428   0.851   0.811   9.365 -0.8693  0.9631  1.6569
  110OSM   C12F11429   0.960   0.622   9.381  0.4545  0.3403 -0.0111
  110OSM   H12F11430   0.884   0.557   9.430  0.4821  0.8187  0.6740
  110OSM   H12G11431   1.058   0.603   9.428  0.0957 -0.6224  0.3830
  110OSM   C13F11432   0.944   0.608   9.227  0.1520  0.1699 -0.2710
  110OSM   H13F11433   1.018   0.533   9.191  3.4148  2.6692  0.6694
  110OSM   H13G11434   0.972   0.700   9.171 -1.2474 -0.1105 -1.4640
  110OSM   C14F11435   0.800   0.582   9.179  0.0905  0.6252 -0.0470
  110OSM   H14F11436   0.717   0.643   9.220  1.1233  0.8440  1.8560
  110OSM   H14G11437   0.771   0.485   9.225  2.6015 -0.2863 -0.2333
  110OSM   C15F11438   0.791   0.585   9.021  0.2907  0.2869 -0.1831
  110OSM   H15F11439   0.874   0.521   8.986 -0.3993  0.1149 -1.5496
  110OSM   H15G11440   0.804   0.688   8.981 -0.0158  0.7200  0.7864
  110OSM   C16F11441   0.665   0.526   8.972 -0.2768 -0.4486  0.3743
  110OSM   H16F11442   0.681   0.512   8.862  0.1533 -0.7226  0.4651
  110OSM   H16G11443   0.580   0.594   8.991  1.0172  2.2828 -2.6660
  110OSM   C17F11444   0.630   0.389   9.032 -0.8495 -0.2920  0.2572
  110OSM   H17F11445   0.577   0.408   9.128 -0.7894 -1.6882  0.5854
  110OSM   H17G11446   0.723   0.331   9.050 -0.1551  1.4653  3.1875
  110OSM   C18F11447   0.540   0.314   8.941  0.6673 -0.1843 -0.5183
  110OSM   H18F11448   0.458   0.385   8.921  0.6591 -0.1529 -0.3669
  110OSM   H18G11449   0.503   0.220   8.986 -0.2256 -0.9777 -2.7716
  110OSM   H18H11450   0.587   0.298   8.841 -0.8112  0.4121 -1.3311
  111OSM      N11451   1.598   3.962  10.868 -0.2650 -0.7136  0.2282
  111OSM    C1511452   1.668   3.861  10.954  0.8475 -0.7964  0.5638
  111OSM   H15A11453   1.639   3.763  10.920  0.2072  0.4130 -2.7153
  111OSM   H15B11454   1.630   3.862  11.055 -0.5577 -0.7394  0.0578
  111OSM   H15C11455   1.775   3.873  10.959  0.9022 -1.2828  0.5749
  111OSM    C1411456   1.449   3.918  10.866 -0.3239 -0.2372  0.2110
  111OSM   H14A11457   1.433   3.822  10.820  3.2874 -2.0742  2.3049
  111OSM   H14B11458   1.397   3.999  10.817  0.6781  1.3591  1.6424
  111OSM   H14C11459   1.414   3.898  10.966  0.2069 -3.1784 -0.1086
  111OSM    C1311460   1.596   4.095  10.936  0.2246  0.5367 -0.3463
  111OSM   H13A11461   1.574   4.086  11.042 -0.7429  0.7073 -0.5310
  111OSM   H13B11462   1.522   4.160  10.892 -1.3691 -0.7315  0.3788
  111OSM   H13C11463   1.693   4.142  10.928  0.9374 -1.0312 -1.3565
  111OSM    C1211464   1.639   3.986  10.725 -0.3100  0.4855 -0.2942
  111OSM   H12A11465   1.646   3.889  10.677  0.4362 -0.0554  0.8632
  111OSM   H12B11466   1.737   4.031  10.732  0.5663 -0.7589 -3.1578
  111OSM    C1111467   1.553   4.087  10.636  0.0039 -0.1261  0.1155
  111OSM   H11A11468   1.449   4.052  10.619  0.2614 -1.1454  0.5966
  111OSM   H11B11469   1.587   4.082  10.530 -2.6042  2.7883 -1.0383
  111OSM      P11470   1.703   4.307  10.638 -0.1871  0.1861 -0.2663
  111OSM    O1311471   1.697   4.433  10.712  0.2893 -0.1372 -0.2672
  111OSM    O1411472   1.819   4.218  10.647  0.4334 -0.3205 -0.5113
  111OSM    O1111473   1.693   4.344  10.476 -0.5977  1.0103 -0.1270
  111OSM    O1211474   1.567   4.220  10.677 -0.1588 -0.7751  0.0818
  111OSM    C1S11475   1.560   4.381  10.437  0.2080 -0.1486 -0.6675
  111OSM    H1S11476   1.538   4.479  10.483  0.7888 -0.2845 -0.0806
  111OSM    H1T11477   1.490   4.298  10.460 -0.9120  1.1482  0.7123
  111OSM     NF11478   1.409   4.480  10.260 -0.4385  0.3230  0.4114
  111OSM    HNF11479   1.339   4.414  10.233  0.7239 -0.3924 -0.9894
  111OSM    C2S11480   1.542   4.416  10.283 -0.3307 -0.2599  0.1301
  111OSM    H2S11481   1.623   4.487  10.258 -0.9847  1.1669  1.8479
  111OSM    C3S11482   1.563   4.285  10.198 -0.4477  0.6989  0.1965
  111OSM    H3S11483   1.473   4.221  10.206 -0.3201  0.2846 -1.3958
  111OSM     O311484   1.679   4.210  10.230 -0.0300 -0.3314  0.3605
  111OSM    HO311485   1.707   4.256  10.309  4.0140 -0.8636 -0.5429
  111OSM    C4S11486   1.577   4.319  10.053 -0.0621  0.2275  0.6284
  111OSM    H4S11487   1.679   4.349  10.026 -0.6192  1.9956  0.3265
  111OSM    C5S11488   1.482   4.302   9.952  0.3235  0.4692 -0.2757
  111OSM    H5S11489   1.389   4.253   9.986  0.6155  1.1185  1.5719
  111OSM    C6S11490   1.498   4.341   9.805 -0.6777  0.6635 -0.2959
  111OSM    H6S11491   1.603   4.363   9.776 -0.6211  1.1496  0.2537
  111OSM    H6T11492   1.464   4.447   9.802  1.4853  1.3890 -0.2883
  111OSM    C7S11493   1.419   4.256   9.706 -0.2975 -0.4672 -0.4781
  111OSM    H7S11494   1.312   4.278   9.730 -0.0377 -0.1559  0.4553
  111OSM    H7T11495   1.435   4.147   9.723 -0.3734 -0.2872  0.8552
  111OSM    C8S11496   1.450   4.291   9.562 -0.0582 -0.4872  0.1412
  111OSM    H8S11497   1.558   4.303   9.541  0.1700 -0.3595  1.3527
  111OSM    H8T11498   1.404   4.392   9.548  0.4219 -0.1211  1.1791
  111OSM    C9S11499   1.382   4.199   9.460 -0.7718 -0.0706 -0.0814
  111OSM    H9S11500   1.274   4.203   9.484 -0.1800  0.9576  2.9603
  111OSM    H9T11501   1.413   4.097   9.489  1.5894  0.6740  0.2801
  111OSM   C10S11502   1.431   4.229   9.320 -0.1430 -1.6455 -1.0537
  111OSM   H10S11503   1.540   4.210   9.313  0.1396 -1.6735  2.1066
  111OSM   H10T11504   1.421   4.337   9.296  1.2408 -0.8624  1.5646
  111OSM   C11S11505   1.354   4.148   9.218 -0.0297  0.4434  0.0953
  111OSM   H11S11506   1.257   4.202   9.214  0.3126  1.1942  1.4489
  111OSM   H11T11507   1.344   4.048   9.265 -1.1978  1.3597  1.9168
  111OSM   C12S11508   1.417   4.154   9.077 -0.6795  0.9616 -0.5248
  111OSM   H12S11509   1.520   4.115   9.084 -0.7224  1.1002  2.0256
  111OSM   H12T11510   1.406   4.259   9.042 -1.2156  0.6990 -1.1675
  111OSM   C13S11511   1.333   4.061   8.983 -0.3230 -0.6766 -0.0815
  111OSM   H13S11512   1.226   4.088   8.988  0.2945  1.7897  1.7821
  111OSM   H13T11513   1.331   3.960   9.028  1.5633 -0.0146  1.6260
  111OSM   C14S11514   1.396   4.059   8.843 -0.4638  0.3005 -0.3530
  111OSM   H14S11515   1.493   4.007   8.854  0.2027  1.1843 -1.6887
  111OSM   H14T11516   1.424   4.162   8.809  0.3111 -0.0381 -0.7650
  111OSM   C15S11517   1.298   4.004   8.745 -0.2755  0.0206 -0.2977
  111OSM   H15S11518   1.210   4.071   8.752  0.1912  0.5754  0.4289
  111OSM   H15T11519   1.260   3.901   8.761  1.0923 -0.7130 -1.5377
  111OSM   C16S11520   1.340   4.004   8.591  0.2786 -0.2300  0.3957
  111OSM   H16S11521   1.436   3.948   8.582  0.5984  0.3320  0.2269
  111OSM   H16T11522   1.361   4.107   8.554 -2.4304  0.4576  0.5647
  111OSM   C17S11523   1.232   3.934   8.502  0.6461 -0.3924  0.4418
  111OSM   H17S11524   1.232   3.972   8.397 -0.6799 -1.4698  0.0189
  111OSM   H17T11525   1.128   3.955   8.534 -0.5252 -0.0540 -3.1047
  111OSM   C18S11526   1.255   3.782   8.503  0.3712 -0.6309 -0.2991
  111OSM   H18S11527   1.170   3.726   8.459 -1.6506  1.8737  0.2167
  111OSM   H18T11528   1.281   3.744   8.604  0.2812  0.0406 -0.0223
  111OSM   H18U11529   1.349   3.766   8.445  2.0797  1.5377  1.6691
  111OSM    C1F11530   1.387   4.609  10.291 -0.9113 -0.8415 -0.0586
  111OSM     OF11531   1.476   4.679  10.341  0.2918  0.6418 -0.1795
  111OSM    C2F11532   1.256   4.676  10.259  1.1425  0.1674  0.0112
  111OSM    H2F11533   1.202   4.697  10.354  1.0862 -1.1790  0.2929
  111OSM    H2G11534   1.203   4.607  10.189 -0.0375 -0.4405  1.4456
  111OSM    C3F11535   1.278   4.819  10.193 -0.0507  0.2667  0.3766
  111OSM    H3F11536   1.333   4.894  10.254 -0.7502  0.3872  0.8683
  111OSM    H3G11537   1.179   4.868  10.183 -0.3347 -0.1811  0.9553
  111OSM    C4F11538   1.345   4.811  10.055  0.0795 -0.1104  0.2789
  111OSM    H4F11539   1.446   4.765  10.050  0.2178  0.3028 -3.0339
  111OSM    H4G11540   1.350   4.916  10.019 -2.0425  0.0668  0.3922
  111OSM    C5F11541   1.260   4.729   9.957 -0.6833  0.0558  0.4341
  111OSM    H5F11542   1.153   4.759   9.951 -0.7094 -0.3910 -2.3768
  111OSM    H5G11543   1.280   4.622   9.978  1.9828  0.4082  0.0735
  111OSM    C6F11544   1.314   4.751   9.815 -0.0640 -0.6668  0.6624
  111OSM    H6F11545   1.418   4.713   9.810  0.3431  0.2253  1.8408
  111OSM    H6G11546   1.333   4.861   9.814 -2.5887 -0.1633  0.9139
  111OSM    C7F11547   1.224   4.702   9.700 -0.0746  0.5165  0.3045
  111OSM    H7F11548   1.129   4.761   9.699  1.7649  3.7071  0.6792
  111OSM    H7G11549   1.203   4.595   9.717  1.0524  0.4671  1.5294
  111OSM    C8F11550   1.288   4.713   9.564  0.3486 -0.5161  0.0206
  111OSM    H8F11551   1.205   4.671   9.504  0.1626  0.1573 -0.1905
  111OSM    H8G11552   1.364   4.632   9.550  1.0852  0.5017 -2.2893
  111OSM    C9F11553   1.331   4.849   9.515  0.4070  0.4649 -0.1247
  111OSM    H9F11554   1.434   4.874   9.547 -0.6019  3.6142  0.9901
  111OSM   C10F11555   1.261   4.931   9.439 -0.2121  0.0095 -0.7185
  111OSM   H10F11556   1.304   5.026   9.403 -1.2133 -0.4765 -3.4368
  111OSM   C11F11557   1.123   4.909   9.394  0.1488 -0.8597  0.1461
  111OSM   H11F11558   1.059   4.998   9.411  1.8615  0.3443  0.4344
  111OSM   H11G11559   1.073   4.820   9.440 -0.2938 -0.0808  1.2054
  111OSM   C12F11560   1.115   4.877   9.241 -0.2345  0.3900  0.8942
  111OSM   H12F11561   1.170   4.960   9.191 -0.0048  0.1581  0.7610
  111OSM   H12G11562   1.015   4.881   9.194 -0.2557 -2.9818  0.4573
  111OSM   C13F11563   1.174   4.745   9.209 -0.0111  0.0248 -0.3983
  111OSM   H13F11564   1.147   4.661   9.278 -1.3303  0.8961  0.2053
  111OSM   H13G11565   1.284   4.748   9.195  0.7257 -4.8092  1.9676
  111OSM   C14F11566   1.111   4.699   9.074 -0.4078  0.1478 -0.6188
  111OSM   H14F11567   1.118   4.788   9.008  0.4627  2.0627  1.8929
  111OSM   H14G11568   1.002   4.681   9.090 -0.6782  0.7764 -1.6071
  111OSM   C15F11569   1.180   4.575   9.017 -0.4932 -0.0657 -0.8696
  111OSM   H15F11570   1.170   4.489   9.085  0.5345 -1.2404 -2.1498
  111OSM   H15G11571   1.288   4.601   9.013 -0.0038 -2.0900 -1.9807
  111OSM   C16F11572   1.135   4.543   8.881 -0.6456  0.3917  0.2076
  111OSM   H16F11573   1.157   4.636   8.825 -0.2778  1.0773  1.4469
  111OSM   H16G11574   1.028   4.514   8.882 -0.4256 -0.4370  0.5688
  111OSM   C17F11575   1.217   4.421   8.837 -0.1859  0.4194  0.6173
  111OSM   H17F11576   1.186   4.343   8.908  2.8082  0.4967  2.1680
  111OSM   H17G11577   1.325   4.442   8.854  0.2349 -1.4937  0.5149
  111OSM   C18F11578   1.192   4.375   8.693  0.2679 -0.0817 -0.0796
  111OSM   H18F11579   1.082   4.369   8.679  0.0073  0.5087  1.5378
  111OSM   H18G11580   1.235   4.277   8.664  1.4670  0.3068  0.3224
  111OSM   H18H11581   1.244   4.439   8.618  1.1654 -0.4779  0.1918
  112OSM      N11582   1.793   1.799  11.056  0.4286 -0.3595 -0.4742
  112OSM    C1511583   1.771   1.816  11.208 -0.7425  0.6042  0.8704
  112OSM   H15A11584   1.849   1.763  11.261  0.8760 -0.1935 -2.0813
  112OSM   H15B11585   1.681   1.766  11.237  0.0853 -1.7385 -0.3421
  112OSM   H15C11586   1.782   1.920  11.238  1.1115  1.4387 -2.1687
  112OSM    C1411587   1.660   1.817  10.998  0.0822  0.6159  0.1509
  112OSM   H14A11588   1.593   1.745  11.044  1.4178 -0.7973 -0.0418
  112OSM   H14B11589   1.654   1.818  10.891 -0.7118  2.8546  0.1677
  112OSM   H14C11590   1.624   1.915  11.023 -2.0197 -0.7670  3.2541
  112OSM    C1311591   1.883   1.900  10.997 -0.0115 -0.1135  0.1421
  112OSM   H13A11592   1.983   1.864  11.015 -0.0367 -0.0095  0.5074
  112OSM   H13B11593   1.876   2.000  11.036 -0.4658  1.0503 -2.7083
  112OSM   H13C11594   1.857   1.898  10.892 -4.5831  1.1406  1.0017
  112OSM    C1211595   1.845   1.658  11.021 -0.2856  0.1732 -0.1373
  112OSM   H12A11596   1.878   1.653  10.918  0.2067  0.2111  0.0172
  112OSM   H12B11597   1.765   1.590  11.046  1.4034 -1.9330 -0.1688
  112OSM    C1111598   1.957   1.605  11.114  0.5001  0.3751 -0.5296
  112OSM   H11A11599   1.990   1.505  11.078  0.9880 -0.6299  2.4636
  112OSM   H11B11600   1.915   1.584  11.215  0.6094  1.3840 -0.2680
  112OSM      P11601   2.203   1.662  11.062  0.2070  0.0480 -0.0878
  112OSM    O1311602   2.292   1.778  11.081  0.2332 -0.0027  0.0688
  112OSM    O1411603   2.235   1.524  11.112  0.7884 -0.5332 -0.0271
  112OSM    O1111604   2.165   1.667  10.909  0.4709  0.7135 -0.0729
  112OSM    O1211605   2.062   1.697  11.120 -0.0573  0.4417 -0.2435
  112OSM    C1S11606   2.217   1.572  10.817 -0.6260  0.8594 -1.0605
  112OSM    H1S11607   2.180   1.469  10.840  0.2574  0.6935 -0.2854
  112OSM    H1T11608   2.328   1.560  10.815 -0.6647  0.4003 -0.8463
  112OSM     NF11609   2.213   1.504  10.577  0.6286  0.3047  0.5204
  112OSM    HNF11610   2.288   1.531  10.516 -0.2232 -2.0969 -1.7806
  112OSM    C2S11611   2.172   1.600  10.676 -0.4998 -0.3587 -0.4947
  112OSM    H2S11612   2.061   1.599  10.673 -0.4866 -0.6231 -1.0699
  112OSM    C3S11613   2.219   1.744  10.634 -0.2410 -0.9720  0.2858
  112OSM    H3S11614   2.329   1.760  10.638 -0.5444  1.3404  0.5700
  112OSM     O311615   2.162   1.850  10.719  0.4036 -0.6155 -0.1982
  112OSM    HO311616   2.105   1.798  10.775  0.5381 -1.3113 -0.6936
  112OSM    C4S11617   2.163   1.776  10.503  0.2692  1.0425  0.8276
  112OSM    H4S11618   2.056   1.751  10.499  0.7123 -1.0639  0.9958
  112OSM    C5S11619   2.232   1.804  10.392  0.1868 -0.5542 -0.0280
  112OSM    H5S11620   2.341   1.788  10.399  0.3994  1.2313  1.4564
  112OSM    C6S11621   2.177   1.828  10.251 -0.3276 -0.1859  0.7156
  112OSM    H6S11622   2.221   1.924  10.214  0.2420 -0.5782  0.3658
  112OSM    H6T11623   2.067   1.816  10.241  0.0047 -3.5604 -0.0828
  112OSM    C7S11624   2.234   1.719  10.150  0.0731  0.1327 -0.5654
  112OSM    H7S11625   2.182   1.622  10.164  0.4341 -0.3760 -2.4869
  112OSM    H7T11626   2.342   1.695  10.141  0.4208  1.4323 -0.0623
  112OSM    C8S11627   2.195   1.758  10.006  0.3051  0.3676 -0.8235
  112OSM    H8S11628   2.245   1.851   9.972 -0.0893  0.2415 -1.7770
  112OSM    H8T11629   2.085   1.776  10.006  0.5518  2.0253  0.3962
  112OSM    C9S11630   2.241   1.655   9.896  0.8609 -0.2956 -0.6169
  112OSM    H9S11631   2.184   1.563   9.916 -0.9575  0.3480 -2.5277
  112OSM    H9T11632   2.351   1.635   9.903  0.7495 -0.4733  1.1706
  112OSM   C10S11633   2.199   1.696   9.756  0.1533  0.5184  0.8607
  112OSM   H10S11634   2.240   1.796   9.732  2.1041 -0.5402 -0.4775
  112OSM   H10T11635   2.089   1.700   9.742  0.3904  1.3967 -0.9368
  112OSM   C11S11636   2.264   1.605   9.647 -0.8923  0.4669 -0.3641
  112OSM   H11S11637   2.233   1.499   9.655 -2.3720  0.7697 -1.7487
  112OSM   H11T11638   2.370   1.596   9.680 -1.5760  0.5185  2.0789
  112OSM   C12S11639   2.248   1.653   9.496 -0.3268  0.0417  0.3661
  112OSM   H12S11640   2.302   1.578   9.434 -1.2890  0.0342 -0.4931
  112OSM   H12T11641   2.291   1.754   9.483 -0.2832  0.1034  0.9641
  112OSM   C13S11642   2.098   1.639   9.452  0.0438 -0.2789  0.0841
  112OSM   H13S11643   2.036   1.711   9.510  1.5135 -0.2978  1.7716
  112OSM   H13T11644   2.071   1.539   9.490  0.2354  0.1377  1.3658
  112OSM   C14S11645   2.077   1.660   9.299  0.2156 -0.6392  0.5910
  112OSM   H14S11646   2.155   1.601   9.247  0.6341 -0.8039  1.3902
  112OSM   H14T11647   2.087   1.768   9.272 -2.6851 -0.3292  0.4178
  112OSM   C15S11648   1.944   1.603   9.260 -0.2760 -0.1848  0.8307
  112OSM   H15S11649   1.858   1.665   9.293 -0.0457 -0.6101  2.3114
  112OSM   H15T11650   1.924   1.506   9.311 -3.7040 -0.3827 -0.6064
  112OSM   C16S11651   1.953   1.584   9.098 -0.1443  0.2265 -0.9607
  112OSM   H16S11652   2.046   1.529   9.071  0.9341  1.6917 -0.4086
  112OSM   H16T11653   1.973   1.688   9.064 -0.6564  1.3999  1.9782
  112OSM   C17S11654   1.814   1.536   9.041 -0.4245 -0.5222 -0.3985
  112OSM   H17S11655   1.733   1.601   9.082 -1.0523 -0.9922 -0.8833
  112OSM   H17T11656   1.813   1.429   9.071  1.0505 -0.7366 -1.0430
  112OSM   C18S11657   1.798   1.549   8.889  0.4147  0.0372  0.7704
  112OSM   H18S11658   1.798   1.656   8.858 -0.3858 -0.5870 -1.6250
  112OSM   H18T11659   1.700   1.508   8.857  1.3794 -2.2273  0.4897
  112OSM   H18U11660   1.880   1.499   8.833 -0.3234  0.4178 -0.7101
  112OSM    C1F11661   2.174   1.376  10.575 -0.0988 -0.5267 -0.1446
  112OSM     OF11662   2.107   1.337  10.664  0.5566 -0.4276 -0.5185
  112OSM    C2F11663   2.220   1.288  10.459  0.3315  0.0703 -0.2162
  112OSM    H2F11664   2.174   1.187  10.464  0.1907  0.1210 -0.4754
  112OSM    H2G11665   2.327   1.258  10.473  0.6450 -0.6650 -3.4461
  112OSM    C3F11666   2.207   1.350  10.321 -0.4105  0.1421  0.0079
  112OSM    H3F11667   2.291   1.419  10.300  0.9296 -1.9387 -1.9867
  112OSM    H3G11668   2.106   1.395  10.327 -0.8445 -0.9438  2.6296
  112OSM    C4F11669   2.212   1.249  10.208  0.4490 -0.2079  0.3716
  112OSM    H4F11670   2.127   1.178  10.203  0.5364 -0.2201 -2.0414
  112OSM    H4G11671   2.305   1.189  10.217  0.3580 -0.2314  1.2914
  112OSM    C5F11672   2.211   1.311  10.070 -0.4426  0.2645  0.1352
  112OSM    H5F11673   2.283   1.396  10.068  1.4318 -1.1797  2.1310
  112OSM    H5G11674   2.111   1.351  10.043 -1.8346 -3.1028 -0.2045
  112OSM    C6F11675   2.250   1.214   9.959 -0.1359  0.3600 -0.7822
  112OSM    H6F11676   2.170   1.142   9.931 -0.2208  0.3124 -0.4125
  112OSM    H6G11677   2.343   1.164   9.995 -0.5071 -0.7290 -1.2941
  112OSM    C7F11678   2.263   1.275   9.821  0.1298 -0.0064  0.0676
  112OSM    H7F11679   2.327   1.364   9.838 -0.2278  0.2029  0.3220
  112OSM    H7G11680   2.167   1.323   9.792 -0.0805  1.3017  2.6344
  112OSM    C8F11681   2.325   1.180   9.725  0.2334  0.4431  0.1982
  112OSM    H8F11682   2.247   1.101   9.714  1.3630 -0.8671  1.2047
  112OSM    H8G11683   2.418   1.142   9.772  0.0667  1.3992  1.3647
  112OSM    C9F11684   2.363   1.241   9.593 -0.2382  0.6038 -0.8839
  112OSM    H9F11685   2.458   1.297   9.593 -0.0384  0.2898  0.2716
  112OSM   C10F11686   2.294   1.257   9.473 -0.3285  0.8322 -0.3595
  112OSM   H10F11687   2.347   1.314   9.395  1.4750  0.5869  0.6328
  112OSM   C11F11688   2.158   1.203   9.448 -0.4976 -0.1068 -0.3856
  112OSM   H11F11689   2.092   1.292   9.448  0.5414  0.7730  2.4250
  112OSM   H11G11690   2.120   1.149   9.538  2.6839  0.9175  1.7437
  112OSM   C12F11691   2.143   1.101   9.336  0.0675  0.2705  0.2143
  112OSM   H12F11692   2.042   1.054   9.340  0.0892 -0.1117 -2.2394
  112OSM   H12G11693   2.220   1.022   9.345  0.6273  0.5557 -1.7215
  112OSM   C13F11694   2.156   1.180   9.203 -0.3707 -0.1002  0.5467
  112OSM   H13F11695   2.256   1.226   9.190 -0.2183 -0.5820  0.0140
  112OSM   H13G11696   2.077   1.259   9.202 -0.1698  0.1253  1.3313
  112OSM   C14F11697   2.143   1.083   9.078 -0.3025  0.1243  0.1663
  112OSM   H14F11698   2.071   1.005   9.110 -1.9005  2.7895  3.7481
  112OSM   H14G11699   2.242   1.035   9.063  0.1539  1.4162 -1.3088
  112OSM   C15F11700   2.070   1.163   8.966  0.4601  0.9595 -0.3489
  112OSM   H15F11701   2.126   1.256   8.945 -1.9335  2.5697 -0.0041
  112OSM   H15G11702   1.971   1.207   8.992  1.8270  2.8989  1.9952
  112OSM   C16F11703   2.063   1.091   8.832  0.1679  0.3234  0.0514
  112OSM   H16F11704   2.000   1.000   8.843  2.3135 -1.3275 -0.4961
  112OSM   H16G11705   2.165   1.057   8.805 -0.2162 -0.5506 -0.3600
  112OSM   C17F11706   2.001   1.171   8.711 -0.3382  0.9223  0.0308
  112OSM   H17F11707   2.064   1.261   8.699 -0.2747  0.5297 -3.7844
  112OSM   H17G11708   1.897   1.184   8.749 -0.2615 -0.6247  0.8490
  112OSM   C18F11709   2.001   1.099   8.571  0.4054 -0.0703  0.4220
  112OSM   H18F11710   1.917   1.028   8.556  0.9917 -0.5754 -0.4935
  112OSM   H18G11711   2.103   1.056   8.564 -0.0115 -1.0155  0.0902
  112OSM   H18H11712   1.997   1.173   8.488 -0.7789  1.0920  1.4557
  113OSM      N11713   0.515   1.296  11.130  0.5842  0.2895  0.2308
  113OSM    C1511714   0.641   1.214  11.156 -0.0143 -0.3650 -0.3003
  113OSM   H15A11715   0.650   1.211  11.264 -3.2006  0.6767  0.0896
  113OSM   H15B11716   0.721   1.267  11.108  1.4051 -0.2435  2.0368
  113OSM   H15C11717   0.636   1.111  11.124  2.7347 -0.6433 -0.1183
  113OSM    C1411718   0.433   1.286  11.260  0.8586 -0.5889 -0.1718
  113OSM   H14A11719   0.429   1.185  11.298 -1.6732 -0.6708 -0.4964
  113OSM   H14B11720   0.329   1.305  11.241 -0.3225 -0.4681  4.9781
  113OSM   H14C11721   0.469   1.352  11.337  2.8111  2.3249 -3.2965
  113OSM    C1311722   0.545   1.438  11.109  0.1945 -0.4068  0.5075
  113OSM   H13A11723   0.603   1.454  11.019 -3.0412 -1.0023 -1.8421
  113OSM   H13B11724   0.611   1.479  11.184 -0.0740  1.4700 -0.2245
  113OSM   H13C11725   0.454   1.494  11.092  1.0060  0.7572 -0.1750
  113OSM    C1211726   0.451   1.240  10.999  0.1824 -0.2226 -0.0928
  113OSM   H12A11727   0.429   1.134  11.007 -3.9663  0.4811 -0.1198
  113OSM   H12B11728   0.519   1.261  10.918 -0.4452  2.5699  0.0192
  113OSM    C1111729   0.319   1.309  10.954 -0.6114  0.2137  0.5265
  113OSM   H11A11730   0.307   1.279  10.848 -0.0267 -1.0701  0.8120
  113OSM   H11B11731   0.333   1.419  10.963 -0.4167  0.2536 -0.2204
  113OSM      P11732   0.131   1.129  10.993  0.0110 -0.4771 -0.2533
  113OSM    O1311733   0.220   1.039  10.922 -0.1450  0.2386 -0.3851
  113OSM    O1411734   0.063   1.071  11.106 -0.1568  0.8422  0.1586
  113OSM    O1111735   0.023   1.173  10.891 -0.5381 -0.0640  0.0897
  113OSM    O1211736   0.213   1.264  11.034  0.4438  0.0179  0.0273
  113OSM    C1S11737   0.032   1.239  10.764  0.6587 -0.8946  0.3374
  113OSM    H1S11738   0.136   1.234  10.724  0.6366  2.0780 -0.3497
  113OSM    H1T11739  -0.003   1.343  10.782  0.3519 -0.9964  0.3254
  113OSM     NF11740  -0.056   1.261  10.530 -0.1339  0.0515  0.4203
  113OSM    HNF11741  -0.127   1.323  10.499  0.7858  1.3826  0.8818
  113OSM    C2S11742  -0.070   1.188  10.653  0.3695 -0.1901 -0.2788
  113OSM    H2S11743  -0.043   1.082  10.637 -3.9059 -1.6538  0.8172
  113OSM    C3S11744  -0.216   1.179  10.711  0.1333 -0.0850  0.2975
  113OSM    H3S11745  -0.253   1.281  10.737  1.2267  0.0880  1.1963
  113OSM     O311746  -0.221   1.091  10.828  0.3333  0.3395 -0.3560
  113OSM    HO311747  -0.131   1.062  10.846 -0.1752 -0.8275  0.4589
  113OSM    C4S11748  -0.315   1.128  10.600 -0.6549 -0.1571 -0.1392
  113OSM    H4S11749  -0.376   1.204  10.550 -0.7321 -0.6400 -0.7998
  113OSM    C5S11750  -0.325   1.000  10.562  0.9601  0.1512  0.0787
  113OSM    H5S11751  -0.256   0.924  10.600  0.0861 -0.1250  1.1686
  113OSM    C6S11752  -0.415   0.962  10.451  0.5329  0.1320 -0.1305
  113OSM    H6S11753  -0.445   1.047  10.386  1.4931  1.9299  1.6778
  113OSM    H6T11754  -0.502   0.907  10.494  1.8416 -1.1739  0.9654
  113OSM    C7S11755  -0.345   0.865  10.352 -0.4990  0.2091  0.4235
  113OSM    H7S11756  -0.304   0.787  10.420  0.0525  1.2214  1.2940
  113OSM    H7T11757  -0.261   0.928  10.317 -1.0638  1.3309  1.0429
  113OSM    C8S11758  -0.433   0.816  10.238  0.3884 -0.3829 -0.2873
  113OSM    H8S11759  -0.470   0.907  10.186  1.7696  2.7318  3.7347
  113OSM    H8T11760  -0.514   0.766  10.295 -0.1923  0.2565 -0.5369
  113OSM    C9S11761  -0.375   0.711  10.146 -0.1920 -0.4313  0.7379
  113OSM    H9S11762  -0.324   0.636  10.210 -0.2790  1.0867  2.6662
  113OSM    H9T11763  -0.299   0.755  10.078 -0.8149 -3.6037 -2.3216
  113OSM   C10S11764  -0.476   0.652  10.054  0.5821 -0.5099 -0.1978
  113OSM   H10S11765  -0.565   0.716  10.034  0.7093 -0.2776 -0.0161
  113OSM   H10T11766  -0.521   0.570  10.114 -0.9606  2.2918  2.8025
  113OSM   C11S11767  -0.414   0.598   9.925 -0.2642  0.9073  0.4596
  113OSM   H11S11768  -0.347   0.512   9.948  0.7197  1.5347  0.0084
  113OSM   H11T11769  -0.348   0.668   9.870  1.6983 -0.3545  1.1013
  113OSM   C12S11770  -0.526   0.546   9.829  0.2201  0.8627 -0.1696
  113OSM   H12S11771  -0.591   0.631   9.799 -0.8524  0.1006 -0.0631
  113OSM   H12T11772  -0.587   0.465   9.875 -0.4991 -0.0565 -2.5588
  113OSM   C13S11773  -0.468   0.491   9.695  0.1755 -0.5617 -0.0637
  113OSM   H13S11774  -0.387   0.417   9.711 -0.7491 -1.7710 -0.6924
  113OSM   H13T11775  -0.431   0.582   9.644 -0.0767 -1.3370 -1.7136
  113OSM   C14S11776  -0.578   0.441   9.605  0.5354  0.3615 -0.2931
  113OSM   H14S11777  -0.665   0.508   9.613  0.3259  0.0369  0.2100
  113OSM   H14T11778  -0.617   0.344   9.644 -1.7563  1.2424 -0.2485
  113OSM   C15S11779  -0.555   0.416   9.458 -0.3162  0.2057  0.5500
  113OSM   H15S11780  -0.509   0.315   9.455  2.4519  1.3607 -2.3796
  113OSM   H15T11781  -0.478   0.492   9.430  2.5316 -0.9989  4.2542
  113OSM   C16S11782  -0.680   0.421   9.373 -0.3598 -0.1491 -0.1692
  113OSM   H16S11783  -0.746   0.508   9.390 -0.6475 -0.2648 -0.6713
  113OSM   H16T11784  -0.743   0.335   9.406  0.1891  0.8181  3.9116
  113OSM   C17S11785  -0.652   0.404   9.224  0.0835 -0.7239  0.2305
  113OSM   H17S11786  -0.575   0.328   9.200 -0.2737 -0.7806 -0.7670
  113OSM   H17T11787  -0.625   0.504   9.186 -0.9239 -1.5246 -2.8682
  113OSM   C18S11788  -0.775   0.354   9.144 -0.6304  0.8981 -0.1557
  113OSM   H18S11789  -0.866   0.405   9.183 -1.2925 -0.9935  0.8927
  113OSM   H18T11790  -0.793   0.244   9.143  0.6720  0.6565 -2.0810
  113OSM   H18U11791  -0.768   0.385   9.037 -1.0393  1.6021  0.0142
  113OSM    C1F11792   0.050   1.246  10.446 -0.0450 -0.7279  0.5404
  113OSM     OF11793   0.146   1.179  10.468  0.6507  0.2578  0.2139
  113OSM    C2F11794   0.053   1.332  10.323  0.5458 -0.7241 -0.4485
  113OSM    H2F11795   0.118   1.414  10.359 -0.3851  0.4598 -1.3736
  113OSM    H2G11796  -0.047   1.377  10.304 -0.3998 -2.4453  0.1909
  113OSM    C3F11797   0.091   1.266  10.197 -0.6282 -0.0935 -0.1414
  113OSM    H3F11798   0.013   1.191  10.172  0.8244 -1.6704 -0.0639
  113OSM    H3G11799   0.178   1.198  10.201 -0.6890 -0.2883 -1.6460
  113OSM    C4F11800   0.103   1.360  10.077 -0.1645  0.0486 -0.5825
  113OSM    H4F11801   0.183   1.436  10.091  0.5586 -1.0259  1.5182
  113OSM    H4G11802   0.003   1.409  10.081  0.0087  0.4930 -1.4193
  113OSM    C5F11803   0.129   1.278   9.948 -0.5152  0.4601 -0.1543
  113OSM    H5F11804   0.085   1.176   9.949  0.9387 -0.2486 -1.7848
  113OSM    H5G11805   0.239   1.266   9.956 -0.7229 -0.5891  1.7221
  113OSM    C6F11806   0.084   1.365   9.828 -0.7023  0.3748 -0.1310
  113OSM    H6F11807   0.149   1.455   9.828 -0.8285  0.4659 -0.2480
  113OSM    H6G11808  -0.021   1.394   9.847 -0.5176  1.2063 -0.3434
  113OSM    C7F11809   0.089   1.283   9.693 -0.6355 -0.4340  0.0970
  113OSM    H7F11810  -0.000   1.216   9.689  0.0038 -1.2462 -1.2421
  113OSM    H7G11811   0.180   1.221   9.688  0.5971  1.3215 -0.1719
  113OSM    C8F11812   0.079   1.386   9.575  0.1273 -0.1175 -0.5015
  113OSM    H8F11813   0.173   1.444   9.563  0.7994 -0.7481  1.4027
  113OSM    H8G11814   0.006   1.464   9.604  0.8609  0.5701 -0.4405
  113OSM    C9F11815   0.048   1.313   9.445 -0.2884 -0.3111  0.0504
  113OSM    H9F11816   0.038   1.203   9.444  2.3288 -0.6390  1.0929
  113OSM   C10F11817   0.053   1.380   9.327  0.0416  0.4006  0.1796
  113OSM   H10F11818   0.031   1.328   9.233  1.2252  1.8382 -0.9460
  113OSM   C11F11819   0.077   1.525   9.308 -0.8327  0.7743 -0.7387
  113OSM   H11F11820   0.182   1.548   9.337 -0.3117 -2.1796  0.0655
  113OSM   H11G11821   0.027   1.585   9.387 -0.6459  1.3051 -1.0189
  113OSM   C12F11822   0.053   1.576   9.166 -0.2677 -0.3946 -0.4471
  113OSM   H12F11823   0.041   1.686   9.161  1.1077  0.1227  3.7587
  113OSM   H12G11824  -0.044   1.534   9.132 -0.6270 -0.7860  0.9877
  113OSM   C13F11825   0.160   1.524   9.069 -0.2397 -0.3776 -0.1126
  113OSM   H13F11826   0.167   1.413   9.079 -0.3431 -0.3681  0.0822
  113OSM   H13G11827   0.256   1.568   9.104 -0.0334  0.5026 -1.6772
  113OSM   C14F11828   0.141   1.560   8.925 -0.2551 -0.1297  0.0848
  113OSM   H14F11829   0.137   1.671   8.923 -0.2423 -0.1246 -2.4147
  113OSM   H14G11830   0.044   1.524   8.886 -0.1584 -0.9771  0.6088
  113OSM   C15F11831   0.250   1.513   8.824 -0.6432  0.0306  0.2874
  113OSM   H15F11832   0.314   1.430   8.862 -0.4354  0.0123 -0.0939
  113OSM   H15G11833   0.328   1.589   8.804 -0.4614 -0.7447 -2.4417
  113OSM   C16F11834   0.199   1.491   8.682 -0.4110 -0.2063 -0.4075
  113OSM   H16F11835   0.118   1.415   8.680 -2.1769  1.5689 -2.4516
  113OSM   H16G11836   0.272   1.453   8.607 -0.5939  1.9423 -1.7715
  113OSM   C17F11837   0.161   1.622   8.618 -0.0559  0.1400  0.7062
  113OSM   H17F11838   0.254   1.671   8.582 -0.8615  1.1559 -0.0433
  113OSM   H17G11839   0.128   1.693   8.696 -3.0299 -0.4211  0.0864
  113OSM   C18F11840   0.060   1.619   8.501  0.7053  0.2121  0.3750
  113OSM   H18F11841   0.103   1.552   8.424 -0.6499  2.6026 -2.6537
  113OSM   H18G11842   0.041   1.718   8.457  2.1203  0.5402  0.4479
  113OSM   H18H11843  -0.037   1.576   8.535  0.8701 -0.5231 -0.0574
  114OSM      N11844   1.887   0.590  11.282  0.5663 -0.2529 -0.0435
  114OSM    C1511845   1.865   0.727  11.223  0.0728  0.0067  0.8343
  114OSM   H15A11846   1.934   0.742  11.141 -0.3214 -0.0287  0.4888
  114OSM   H15B11847   1.876   0.804  11.297  0.6489  0.4588  0.2910
  114OSM   H15C11848   1.761   0.731  11.193  0.3805  0.0182 -0.2897
  114OSM    C1411849   2.028   0.580  11.315  0.4279  0.6419 -0.3914
  114OSM   H14A11850   2.057   0.499  11.380  2.9797  2.6317  1.1110
  114OSM   H14B11851   2.065   0.673  11.354 -1.8736  0.8088  1.7013
  114OSM   H14C11852   2.084   0.565  11.224 -0.9705 -0.0686 -1.1732
  114OSM    C1311853   1.810   0.581  11.406  1.0829  0.3574 -0.2509
  114OSM   H13A11854   1.826   0.488  11.458 -0.0080  1.6135  2.5117
  114OSM   H13B11855   1.704   0.597  11.394  1.4068  1.6412 -1.8808
  114OSM   H13C11856   1.850   0.660  11.468  1.6756  1.4905 -2.0034
  114OSM    C1211857   1.843   0.482  11.180 -0.3047  0.1280 -1.1409
  114OSM   H12A11858   1.738   0.460  11.185 -0.0933 -0.7201 -0.1104
  114OSM   H12B11859   1.877   0.385  11.215 -1.2616  1.0052  2.5583
  114OSM    C1111860   1.887   0.498  11.031 -0.2374 -0.1641 -0.2863
  114OSM   H11A11861   1.838   0.591  10.995 -0.5876 -0.6115 -0.9843
  114OSM   H11B11862   1.856   0.406  10.977 -1.7504  1.0187 -1.5246
  114OSM      P11863   2.099   0.613  10.932  0.1330 -0.3959  0.1687
  114OSM    O1311864   2.038   0.746  10.954  0.4782 -0.5042  0.0097
  114OSM    O1411865   2.245   0.611  10.961 -0.1565 -0.1607  0.1478
  114OSM    O1111866   2.094   0.572  10.777 -0.1584  0.1357  0.2637
  114OSM    O1211867   2.030   0.499  11.009 -0.1834  0.2845 -0.2384
  114OSM    C1S11868   1.959   0.558  10.721 -0.6005  0.1380  0.3421
  114OSM    H1S11869   1.894   0.648  10.734 -1.5983 -0.3690 -0.8912
  114OSM    H1T11870   1.915   0.466  10.765  0.4105  0.6898  2.6551
  114OSM     NF11871   1.856   0.539  10.491  0.2531  0.9821 -0.3705
  114OSM    HNF11872   1.852   0.457  10.433  3.3741  0.6618 -0.3141
  114OSM    C2S11873   1.980   0.538  10.561 -0.1966  0.3332 -0.0705
  114OSM    H2S11874   2.032   0.627  10.521  1.4822 -1.0561 -1.1298
  114OSM    C3S11875   2.063   0.412  10.532 -0.4784  0.1955  0.1571
  114OSM    H3S11876   1.996   0.326  10.554 -1.0894  0.5917 -0.1361
  114OSM     O311877   2.185   0.397  10.609 -0.5630  0.3843  0.5976
  114OSM    HO311878   2.171   0.460  10.680 -0.7261  0.4676  0.4921
  114OSM    C4S11879   2.103   0.405  10.387 -0.0215  0.1850 -0.6921
  114OSM    H4S11880   2.036   0.340  10.329 -0.3309 -0.8090  0.7558
  114OSM    C5S11881   2.198   0.476  10.322  0.4346  0.3011  0.4457
  114OSM    H5S11882   2.265   0.544  10.376 -1.9483  0.5348  3.3946
  114OSM    C6S11883   2.225   0.462  10.168  0.4691  0.8619  0.7847
  114OSM    H6S11884   2.330   0.435  10.144 -0.2413 -0.8284 -0.5738
  114OSM    H6T11885   2.211   0.568  10.137 -2.2874  0.1073 -0.9850
  114OSM    C7S11886   2.141   0.370  10.079 -0.1833  0.7328 -0.4828
  114OSM    H7S11887   2.037   0.408  10.087 -0.1663  0.5163  1.1406
  114OSM    H7T11888   2.140   0.262  10.107  1.9282  0.9577  0.7077
  114OSM    C8S11889   2.190   0.387   9.931 -0.8780  0.2261 -0.0306
  114OSM    H8S11890   2.290   0.338   9.920 -0.1926  1.9518 -2.0667
  114OSM    H8T11891   2.192   0.496   9.915 -2.0626  0.3363  0.4721
  114OSM    C9S11892   2.091   0.326   9.822 -0.2126 -1.0097 -0.3549
  114OSM    H9S11893   1.988   0.369   9.830  0.0489  0.1851 -2.5125
  114OSM    H9T11894   2.096   0.218   9.845 -0.9730 -1.0373 -0.2785
  114OSM   C10S11895   2.148   0.358   9.679  0.4502 -0.1990  0.0535
  114OSM   H10S11896   2.258   0.342   9.677  0.4997 -0.0732  1.0220
  114OSM   H10T11897   2.136   0.465   9.652  0.6612 -0.4904 -1.2484
  114OSM   C11S11898   2.094   0.254   9.594  0.1995  0.0224  0.3257
  114OSM   H11S11899   1.985   0.257   9.612  0.4820 -1.0667  2.6009
  114OSM   H11T11900   2.120   0.154   9.637 -1.0628  0.6756  2.7864
  114OSM   C12S11901   2.124   0.279   9.445  0.2247  0.2518 -0.0909
  114OSM   H12S11902   2.225   0.238   9.421 -0.2853 -1.1224  0.0414
  114OSM   H12T11903   2.132   0.384   9.408 -0.2844 -0.0678 -1.1350
  114OSM   C13S11904   2.041   0.197   9.342  0.5950 -0.2964  0.3430
  114OSM   H13S11905   1.936   0.233   9.352  0.4455 -0.2396 -1.2297
  114OSM   H13T11906   2.032   0.096   9.388  0.4994  1.0591  3.5624
  114OSM   C14S11907   2.094   0.190   9.194 -0.4416 -0.1313 -1.2856
  114OSM   H14S11908   2.044   0.107   9.138  1.5782 -1.7367 -0.8330
  114OSM   H14T11909   2.202   0.165   9.196  0.1408  2.0224 -2.4943
  114OSM   C15S11910   2.079   0.327   9.131 -0.2593  0.3195 -0.0088
  114OSM   H15S11911   2.115   0.407   9.200  1.2670  1.5791 -2.1566
  114OSM   H15T11912   1.969   0.338   9.126 -0.3935 -0.2853  1.1054
  114OSM   C16S11913   2.141   0.332   8.994 -0.4349  0.5291 -0.1899
  114OSM   H16S11914   2.243   0.289   8.990 -0.4024  0.6907 -1.5938
  114OSM   H16T11915   2.143   0.439   8.964 -0.3473  0.0399 -2.0994
  114OSM   C17S11916   2.068   0.252   8.881  0.2091 -0.1185  0.0388
  114OSM   H17S11917   1.972   0.305   8.862  1.0404  1.8520  0.9866
  114OSM   H17T11918   2.036   0.150   8.909 -0.2117 -0.0128 -0.0436
  114OSM   C18S11919   2.143   0.258   8.750 -0.5673  0.4871 -0.0031
  114OSM   H18S11920   2.087   0.209   8.667  3.0200  0.4039 -2.6597
  114OSM   H18T11921   2.242   0.208   8.751  0.0115  1.6040  0.8436
  114OSM   H18U11922   2.160   0.360   8.709 -1.5173  0.5823 -0.1733
  114OSM    C1F11923   1.763   0.630  10.490 -0.5372 -0.8334 -0.1037
  114OSM     OF11924   1.776   0.729  10.558  0.0282  0.3394 -0.1472
  114OSM    C2F11925   1.665   0.620  10.381  0.4769 -0.0221  0.6153
  114OSM    H2F11926   1.597   0.534  10.402  1.9934 -1.3421  0.3450
  114OSM    H2G11927   1.707   0.604  10.280  0.8054  4.3471 -0.1313
  114OSM    C3F11928   1.586   0.752  10.360  0.5603 -0.7379  0.1159
  114OSM    H3F11929   1.646   0.843  10.340 -0.7119 -0.1881 -1.4820
  114OSM    H3G11930   1.538   0.766  10.460 -0.5361 -0.4818 -0.4229
  114OSM    C4F11931   1.482   0.735  10.244  0.1189 -0.3005  0.0804
  114OSM    H4F11932   1.394   0.801  10.260  0.3103 -0.0022 -0.0771
  114OSM    H4G11933   1.446   0.630  10.238 -1.1004  0.1306 -0.7093
  114OSM    C5F11934   1.541   0.767  10.112 -0.3717 -0.4497  0.0990
  114OSM    H5F11935   1.619   0.691  10.092  0.4704  0.4460 -0.0867
  114OSM    H5G11936   1.578   0.872  10.107  0.0798 -0.6124  0.0314
  114OSM    C6F11937   1.427   0.756  10.007 -0.6352  0.8918 -0.1980
  114OSM    H6F11938   1.338   0.816  10.038 -1.4032  0.3416 -1.2871
  114OSM    H6G11939   1.402   0.649   9.992 -0.2648  0.5116  1.5897
  114OSM    C7F11940   1.478   0.809   9.874 -0.1836 -0.7594 -0.3553
  114OSM    H7F11941   1.561   0.748   9.834  1.0220 -0.3122  1.3387
  114OSM    H7G11942   1.526   0.905   9.904  0.3051 -1.9566  3.1323
  114OSM    C8F11943   1.366   0.834   9.766 -0.2217 -0.5526 -0.0401
  114OSM    H8F11944   1.414   0.905   9.695 -0.2024 -0.0206  0.4918
  114OSM    H8G11945   1.288   0.895   9.817  0.4195  0.1225  0.1404
  114OSM    C9F11946   1.307   0.714   9.698  0.0045 -0.2594 -0.1023
  114OSM    H9F11947   1.232   0.662   9.758 -0.0781 -1.2256 -1.0226
  114OSM   C10F11948   1.340   0.671   9.578 -0.1479 -0.2441  0.2224
  114OSM   H10F11949   1.288   0.581   9.540 -0.2076 -0.3171  0.4740
  114OSM   C11F11950   1.443   0.727   9.485 -0.4939 -0.4581 -0.3161
  114OSM   H11F11951   1.524   0.654   9.467  0.9756  1.0772 -0.1867
  114OSM   H11G11952   1.496   0.819   9.517  4.3549 -1.4751 -4.1738
  114OSM   C12F11953   1.374   0.778   9.360  0.0357  0.2304 -0.1471
  114OSM   H12F11954   1.439   0.838   9.292 -0.5609  0.2267 -0.7226
  114OSM   H12G11955   1.282   0.833   9.389 -0.3797 -2.3893  4.4485
  114OSM   C13F11956   1.333   0.656   9.270  0.1561  0.6091  0.9075
  114OSM   H13F11957   1.252   0.605   9.327 -0.2940  3.0717  2.6375
  114OSM   H13G11958   1.427   0.598   9.256 -0.4033  0.1168 -1.0325
  114OSM   C14F11959   1.291   0.701   9.130 -0.4643 -0.1358  0.3723
  114OSM   H14F11960   1.364   0.772   9.086  0.2905 -1.1955 -0.1280
  114OSM   H14G11961   1.199   0.762   9.143 -2.0198 -2.7159  2.6565
  114OSM   C15F11962   1.259   0.579   9.037 -0.1503 -0.6995 -0.2689
  114OSM   H15F11963   1.196   0.504   9.090  1.1495 -1.4318  0.2933
  114OSM   H15G11964   1.344   0.524   8.990 -1.7625 -1.0084 -3.0461
  114OSM   C16F11965   1.166   0.614   8.913 -0.5205 -0.8136  0.2047
  114OSM   H16F11966   1.067   0.646   8.951 -0.1393 -0.7974  1.2471
  114OSM   H16G11967   1.160   0.521   8.852 -2.4176 -1.4282  1.2393
  114OSM   C17F11968   1.229   0.718   8.825 -0.9644  0.0599 -0.3437
  114OSM   H17F11969   1.325   0.674   8.793 -0.9185 -0.5859  0.6327
  114OSM   H17G11970   1.243   0.818   8.871  1.2293  0.0091 -0.7963
  114OSM   C18F11971   1.146   0.742   8.696  0.0657  0.6190 -0.2799
  114OSM   H18F11972   1.044   0.777   8.723  0.4748  1.8625 -0.3043
  114OSM   H18G11973   1.123   0.651   8.636  0.9016  1.3955 -1.8255
  114OSM   H18H11974   1.202   0.812   8.631 -0.2259 -1.0036 -2.3925
  115OSM      N11975   5.054   1.287  10.786  0.2462 -0.2617 -0.5456
  115OSM    C1511976   5.190   1.265  10.730 -0.4370 -0.3907  0.1588
  115OSM   H15A11977   5.256   1.235  10.810  1.4635 -2.2081 -1.9464
  115OSM   H15B11978   5.227   1.358  10.690  3.5504 -1.4468  0.9436
  115OSM   H15C11979   5.196   1.190  10.652 -0.3588  0.3039 -0.5219
  115OSM    C1411980   4.988   1.165  10.831 -0.7422 -0.1421  0.5263
  115OSM   H14A11981   5.040   1.125  10.917  0.2228 -1.4801 -0.6225
  115OSM   H14B11982   4.988   1.089  10.754  0.0460  2.0121 -1.7460
  115OSM   H14C11983   4.886   1.190  10.855 -0.4662  0.6367  0.9260
  115OSM    C1311984   5.064   1.394  10.894  0.0992  0.3659 -0.0990
  115OSM   H13A11985   4.967   1.422  10.935 -0.5183 -1.3233 -0.3259
  115OSM   H13B11986   5.107   1.484  10.854  0.5905  1.1214  1.9733
  115OSM   H13C11987   5.128   1.367  10.977 -0.8426 -0.4186  0.4006
  115OSM    C1211988   4.962   1.345  10.674 -0.2442  0.4321  0.3456
  115OSM   H12A11989   4.866   1.364  10.719 -0.1954 -1.1882  1.2065
  115OSM   H12B11990   4.954   1.264  10.603 -1.9203  0.7487  0.1364
  115OSM    C1111991   5.005   1.471  10.600 -0.3631 -0.4396  0.3802
  115OSM   H11A11992   4.942   1.488  10.510 -0.6944  1.0241  0.8554
  115OSM   H11B11993   5.109   1.478  10.561 -0.4633  2.1005  0.3648
  115OSM      P11994   4.860   1.657  10.714  0.4948  0.0574 -0.1246
  115OSM    O1311995   4.748   1.572  10.670 -0.4735  0.4595 -0.0346
  115OSM    O1411996   4.857   1.716  10.855 -0.1371  0.4249  0.0876
  115OSM    O1111997   4.866   1.786  10.627  0.2008  0.0718  0.4904
  115OSM    O1211998   4.990   1.587  10.679  0.6905 -0.5795 -0.2575
  115OSM    C1S11999   4.960   1.810  10.517 -0.0239 -0.5368  0.2449
  115OSM    H1S12000   5.059   1.768  10.542 -0.1877 -0.1989  1.5265
  115OSM    H1T12001   4.968   1.919  10.501  0.5179  0.1568  4.2984
  115OSM     NF12002   5.014   1.795  10.284  0.2423  0.1991  0.5980
  115OSM    HNF12003   4.986   1.864  10.218  0.2065 -2.0592 -1.9354
  115OSM    C2S12004   4.914   1.757  10.380  0.3019  0.8980 -0.9261
  115OSM    H2S12005   4.902   1.647  10.379  0.5913  0.8528 -0.0790
  115OSM    C3S12006   4.777   1.812  10.343 -0.7677 -0.9111  0.1069
  115OSM    H3S12007   4.783   1.922  10.325  0.7646 -0.5603  2.2199
  115OSM     O312008   4.676   1.801  10.444 -0.6862  0.4975 -0.4058
  115OSM    HO312009   4.729   1.765  10.516 -2.2415  0.8177  0.9630
  115OSM    C4S12010   4.728   1.760  10.210 -0.5606  0.4600  0.4848
  115OSM    H4S12011   4.792   1.792  10.127 -1.2473 -0.4602 -0.4211
  115OSM    C5S12012   4.636   1.667  10.190  0.7154  0.0236  0.0058
  115OSM    H5S12013   4.569   1.624  10.267 -2.1228  0.9157 -1.8098
  115OSM    C6S12014   4.609   1.602  10.059  0.2218 -0.6921 -0.3918
  115OSM    H6S12015   4.499   1.586  10.057  0.1286 -0.1021  0.0994
  115OSM    H6T12016   4.635   1.494  10.074  0.7566 -0.4720  0.3199
  115OSM    C7S12017   4.657   1.666   9.941  0.1545  0.4346  0.1700
  115OSM    H7S12018   4.767   1.671   9.930  0.0202  0.4601 -1.4933
  115OSM    H7T12019   4.605   1.765   9.940 -1.3153 -0.2485  2.0099
  115OSM    C8S12020   4.606   1.595   9.817 -0.4028  0.4054  0.6500
  115OSM    H8S12021   4.496   1.609   9.809 -0.6705 -0.6845  2.0112
  115OSM    H8T12022   4.627   1.486   9.830 -0.7452  0.1209 -0.9415
  115OSM    C9S12023   4.659   1.633   9.673  0.0376 -0.4671 -0.3291
  115OSM    H9S12024   4.746   1.566   9.655  0.3623 -1.2983  3.4755
  115OSM    H9T12025   4.697   1.735   9.696 -0.1995 -0.1051 -1.4863
  115OSM   C10S12026   4.556   1.630   9.567  0.1283  0.3598  0.5569
  115OSM   H10S12027   4.482   1.710   9.590  0.1831  0.6229 -0.1441
  115OSM   H10T12028   4.512   1.529   9.579 -1.5997  0.9911 -0.2337
  115OSM   C11S12029   4.598   1.653   9.417 -0.0839 -0.1479 -0.6360
  115OSM   H11S12030   4.658   1.564   9.387  0.6373 -0.0937  0.5696
  115OSM   H11T12031   4.658   1.745   9.399  0.6271 -0.4654  0.0179
  115OSM   C12S12032   4.472   1.659   9.328 -0.3473  0.1125 -0.1882
  115OSM   H12S12033   4.388   1.727   9.355 -1.0252 -1.4472  1.8935
  115OSM   H12T12034   4.431   1.556   9.328  0.4645 -0.2295  0.8998
  115OSM   C13S12035   4.509   1.692   9.180  0.0338  0.1605 -0.0110
  115OSM   H13S12036   4.592   1.633   9.135  1.6111  2.9003 -0.9305
  115OSM   H13T12037   4.561   1.790   9.176  0.7294 -0.2336 -1.9172
  115OSM   C14S12038   4.387   1.677   9.086 -0.2622 -0.0271  0.0529
  115OSM   H14S12039   4.415   1.726   8.990  2.0258 -4.5592 -1.8968
  115OSM   H14T12040   4.307   1.744   9.123 -1.1095 -1.4054  0.8255
  115OSM   C15S12041   4.327   1.547   9.053 -0.5506 -0.1644  0.1457
  115OSM   H15S12042   4.219   1.559   9.036 -0.2553 -0.1671 -1.9067
  115OSM   H15T12043   4.346   1.493   9.149  2.1774  3.8609  2.2091
  115OSM   C16S12044   4.385   1.473   8.929 -0.0605  0.1120  0.2010
  115OSM   H16S12045   4.404   1.545   8.847 -3.8289  1.3872  0.2934
  115OSM   H16T12046   4.304   1.400   8.911 -2.4771  1.6707  3.6295
  115OSM   C17S12047   4.509   1.384   8.949  0.5288 -0.1087  0.4875
  115OSM   H17S12048   4.499   1.348   9.054  1.2011  0.9966  0.9530
  115OSM   H17T12049   4.596   1.453   8.952  1.5242 -1.1185 -2.1347
  115OSM   C18S12050   4.533   1.273   8.843 -0.5397  0.4309  0.6458
  115OSM   H18S12051   4.558   1.310   8.741 -0.7570 -2.3972 -0.5284
  115OSM   H18T12052   4.445   1.205   8.845  1.9302 -3.0598  1.9399
  115OSM   H18U12053   4.619   1.207   8.866  0.1620 -0.1811 -3.0345
  115OSM    C1F12054   5.138   1.744  10.276 -0.2038  0.4607  0.6601
  115OSM     OF12055   5.180   1.659  10.354  0.7009 -0.2201  0.4932
  115OSM    C2F12056   5.228   1.791  10.169  0.5373  0.1989 -0.2091
  115OSM    H2F12057   5.328   1.810  10.214  1.3113 -1.4590 -1.1279
  115OSM    H2G12058   5.199   1.888  10.123  1.9719  0.9114  0.3019
  115OSM    C3F12059   5.236   1.692  10.051 -0.1130 -0.8330 -0.2826
  115OSM    H3F12060   5.136   1.675  10.006  0.0115  1.3993 -1.5406
  115OSM    H3G12061   5.279   1.592  10.070  2.0307  0.0599 -0.1016
  115OSM    C4F12062   5.339   1.751   9.947  0.6013  0.3472 -0.0747
  115OSM    H4F12063   5.437   1.782   9.989  0.6625 -0.0416  0.0719
  115OSM    H4G12064   5.305   1.835   9.882  0.8695  0.7969  0.3562
  115OSM    C5F12065   5.377   1.636   9.851  0.7164  0.2762 -0.5580
  115OSM    H5F12066   5.285   1.590   9.810  3.4566 -4.1955 -2.3924
  115OSM    H5G12067   5.416   1.543   9.897  2.8073  0.7227 -1.3230
  115OSM    C6F12068   5.475   1.678   9.747 -0.6649 -0.5739  0.2505
  115OSM    H6F12069   5.576   1.671   9.791 -0.8631  1.3165  1.0855
  115OSM    H6G12070   5.455   1.784   9.720  1.1810 -0.3176 -0.2250
  115OSM    C7F12071   5.467   1.600   9.613  0.5796 -0.0891  0.4127
  115OSM    H7F12072   5.361   1.570   9.600  0.8160 -0.2217 -1.5146
  115OSM    H7G12073   5.530   1.510   9.628  1.4235  0.4810  0.3629
  115OSM    C8F12074   5.498   1.689   9.495  0.6124  0.3950  0.2456
  115OSM    H8F12075   5.426   1.774   9.491 -2.3796 -2.0089 -1.2881
  115OSM    H8G12076   5.461   1.636   9.404  1.0249  0.6947 -0.0992
  115OSM    C9F12077   5.648   1.719   9.492  1.4451 -0.4854  0.0117
  115OSM    H9F12078   5.681   1.802   9.556  0.5603  0.4715 -0.7547
  115OSM   C10F12079   5.742   1.655   9.423  0.1678 -0.0084  0.5631
  115OSM   H10F12080   5.845   1.685   9.447 -0.2411  1.2804  0.8037
  115OSM   C11F12081   5.716   1.540   9.328  0.9494  0.4333  0.0606
  115OSM   H11F12082   5.638   1.475   9.374  1.3087  0.2352  0.3910
  115OSM   H11G12083   5.805   1.476   9.313 -0.1190 -0.4287 -3.7611
  115OSM   C12F12084   5.651   1.569   9.193 -0.2734 -0.8443 -0.4815
  115OSM   H12F12085   5.564   1.637   9.191  0.5776  0.2673 -1.1064
  115OSM   H12G12086   5.621   1.471   9.150 -2.2969 -0.4230 -0.1021
  115OSM   C13F12087   5.758   1.642   9.104  0.1310 -0.1067  0.0930
  115OSM   H13F12088   5.853   1.586   9.091  1.1010  1.8374 -1.7037
  115OSM   H13G12089   5.785   1.736   9.155  0.9525  0.0719 -0.6625
  115OSM   C14F12090   5.693   1.692   8.968 -0.0421  0.8673 -0.3153
  115OSM   H14F12091   5.771   1.729   8.898 -0.3474 -0.3448 -1.3298
  115OSM   H14G12092   5.633   1.781   8.996 -2.4764 -0.8314  0.1074
  115OSM   C15F12093   5.603   1.589   8.891 -0.1049 -0.1967 -0.3833
  115OSM   H15F12094   5.535   1.540   8.963 -0.6924  0.5647 -0.4037
  115OSM   H15G12095   5.676   1.512   8.860  1.2936  0.9858 -0.1391
  115OSM   C16F12096   5.517   1.638   8.773 -0.9432 -0.7523  0.3283
  115OSM   H16F12097   5.430   1.701   8.802 -1.2856 -0.7911 -0.5751
  115OSM   H16G12098   5.465   1.547   8.736  0.3843 -0.7741 -1.6098
  115OSM   C17F12099   5.593   1.709   8.664  0.0824  0.1578  0.6101
  115OSM   H17F12100   5.682   1.649   8.633  0.5299  0.2364  1.6791
  115OSM   H17G12101   5.632   1.803   8.707  0.2795 -0.6114  2.1978
  115OSM   C18F12102   5.506   1.742   8.546 -0.0703 -0.5809 -0.4432
  115OSM   H18F12103   5.435   1.827   8.545  0.3492 -0.2267 -0.3173
  115OSM   H18G12104   5.440   1.655   8.527  2.3351 -2.6370  0.0079
  115OSM   H18H12105   5.569   1.759   8.456 -0.0671 -0.9127 -0.5048
  116OSM      N12106   0.706   5.981  11.084  0.8718  0.1927  0.6281
  116OSM    C1512107   0.724   5.851  11.158 -0.1773 -0.2341 -0.3493
  116OSM   H15A12108   0.639   5.806  11.207  0.2036  0.8524  1.4036
  116OSM   H15B12109   0.805   5.851  11.230 -0.0726 -0.1142 -0.4664
  116OSM   H15C12110   0.754   5.783  11.080  0.2328 -0.4218 -0.0326
  116OSM    C1412111   0.594   5.977  10.984 -0.5819  0.1645 -0.0162
  116OSM   H14A12112   0.494   5.968  11.024 -0.5935 -1.1207 -0.2857
  116OSM   H14B12113   0.605   5.888  10.924  0.6176 -1.0392  1.9017
  116OSM   H14C12114   0.607   6.067  10.925  1.5740 -1.7428 -2.7244
  116OSM    C1312115   0.684   6.094  11.179  0.4727  0.5914  0.0797
  116OSM   H13A12116   0.587   6.083  11.226 -0.6660  3.3465 -1.3701
  116OSM   H13B12117   0.691   6.190  11.131  0.0588  0.5754 -0.0156
  116OSM   H13C12118   0.753   6.102  11.261 -0.3414 -0.9213  0.9681
  116OSM    C1212119   0.841   6.010  11.011 -0.4752  0.8230  0.3347
  116OSM   H12A12120   0.921   5.999  11.083 -1.3435 -2.6122  0.9774
  116OSM   H12B12121   0.850   6.112  10.977 -1.1716  0.0198 -2.4542
  116OSM    C1112122   0.873   5.921  10.886 -0.5903 -0.1185  0.4546
  116OSM   H11A12123   0.960   5.961  10.830 -1.6145  1.0981 -0.3366
  116OSM   H11B12124   0.793   5.941  10.811 -1.1300  1.0243  1.2993
  116OSM      P12125   0.855   5.664  10.821 -0.0729 -0.2889 -0.4043
  116OSM    O1312126   0.931   5.539  10.860  0.2906 -0.1307  0.5841
  116OSM    O1412127   0.709   5.659  10.817 -0.1804 -0.0932  0.4533
  116OSM    O1112128   0.919   5.720  10.688  0.5513 -1.0902  0.3451
  116OSM    O1212129   0.890   5.780  10.917  0.2462  0.1814  0.5124
  116OSM    C1S12130   0.976   5.633  10.589  0.0712  0.4766 -0.5923
  116OSM    H1S12131   0.915   5.542  10.576 -1.1904  1.0521  0.9222
  116OSM    H1T12132   1.069   5.587  10.629 -0.2807 -0.4858 -0.8602
  116OSM     NF12133   1.069   5.597  10.375 -0.4037  0.1796 -0.4377
  116OSM    HNF12134   1.168   5.585  10.381 -0.2756  0.3593 -1.8115
  116OSM    C2S12135   1.011   5.698  10.453 -0.4562  0.3226 -0.8351
  116OSM    H2S12136   0.923   5.742  10.402 -0.4331  2.0596  0.5157
  116OSM    C3S12137   1.099   5.828  10.471  0.3663  0.4287 -0.4161
  116OSM    H3S12138   1.201   5.798  10.503  0.7135 -1.1337 -2.7445
  116OSM     O312139   1.050   5.914  10.573  0.2279 -0.2300  0.2849
  116OSM    HO312140   0.985   5.862  10.621 -1.5990  2.2321  0.7051
  116OSM    C4S12141   1.110   5.896  10.334  0.3346 -0.5335 -0.1022
  116OSM    H4S12142   1.212   5.895  10.295  1.0138  0.8849  1.5121
  116OSM    C5S12143   1.010   5.952  10.264  0.3870 -0.3536 -0.5594
  116OSM    H5S12144   0.905   5.952  10.299  0.5325 -2.8388  0.1336
  116OSM    C6S12145   1.033   6.008  10.131 -0.7880 -0.5438  0.9167
  116OSM    H6S12146   0.940   6.034  10.077 -1.2735 -1.0673  1.4848
  116OSM    H6T12147   1.082   5.925  10.075 -1.6345 -1.4272  1.4521
  116OSM    C7S12148   1.139   6.126  10.120  0.2555  0.6569 -0.5178
  116OSM    H7S12149   1.219   6.109  10.195  0.3258 -1.6579 -1.0208
  116OSM    H7T12150   1.078   6.216  10.143 -1.1638 -0.4247  0.1279
  116OSM    C8S12151   1.207   6.148   9.983  0.1302 -0.2633 -0.5532
  116OSM    H8S12152   1.250   6.051   9.951 -2.4751 -1.8433  0.3840
  116OSM    H8T12153   1.281   6.228  10.001 -2.2340  1.8722  0.2836
  116OSM    C9S12154   1.103   6.186   9.870 -1.1514 -0.2238 -0.3249
  116OSM    H9S12155   1.078   6.292   9.893  0.2920 -0.3675  2.2043
  116OSM    H9T12156   1.006   6.132   9.876 -1.7259  0.8947  1.7197
  116OSM   C10S12157   1.160   6.187   9.730  0.5265  0.1634 -0.4741
  116OSM   H10S12158   1.187   6.086   9.693  0.1042 -0.0919 -0.0986
  116OSM   H10T12159   1.246   6.256   9.721  0.6835  0.7793  3.9396
  116OSM   C11S12160   1.054   6.230   9.626  0.3066 -0.5584  0.3558
  116OSM   H11S12161   1.030   6.338   9.636  1.6872 -0.1399 -0.5951
  116OSM   H11T12162   0.966   6.165   9.642 -0.0180 -0.2309 -0.0885
  116OSM   C12S12163   1.117   6.225   9.489 -0.4727  0.1816 -0.2386
  116OSM   H12S12164   1.217   6.271   9.499 -0.4943 -0.2275  2.8328
  116OSM   H12T12165   1.056   6.278   9.413  1.4741  3.4587  0.3122
  116OSM   C13S12166   1.148   6.075   9.443  0.3367 -0.1963  0.3598
  116OSM   H13S12167   1.054   6.017   9.425  0.6495 -0.3828 -0.7771
  116OSM   H13T12168   1.215   6.019   9.511  1.5565 -0.4600 -1.0000
  116OSM   C14S12169   1.199   6.078   9.303  0.0085 -0.1623  0.0029
  116OSM   H14S12170   1.295   6.134   9.302  0.2610 -0.5261  1.8535
  116OSM   H14T12171   1.131   6.134   9.235  0.4123  0.8784  0.4256
  116OSM   C15S12172   1.228   5.937   9.244  0.4500  0.0125  0.0162
  116OSM   H15S12173   1.141   5.872   9.268  1.2819 -0.7214  1.1643
  116OSM   H15T12174   1.311   5.891   9.302  1.3678 -0.1941 -1.4059
  116OSM   C16S12175   1.267   5.932   9.094  0.4159  0.1570 -0.3846
  116OSM   H16S12176   1.374   5.963   9.090  0.6495 -0.3926  0.9437
  116OSM   H16T12177   1.208   6.011   9.042 -0.9186 -0.6929 -0.1876
  116OSM   C17S12178   1.254   5.790   9.046 -0.2839 -0.0988  0.7656
  116OSM   H17S12179   1.306   5.726   9.121 -0.1422  0.5580  1.2329
  116OSM   H17T12180   1.327   5.781   8.962  0.2830  2.0427  0.9768
  116OSM   C18S12181   1.111   5.753   9.012 -0.8738 -0.5375 -0.5724
  116OSM   H18S12182   1.057   5.738   9.108  0.9136  0.5520  0.6643
  116OSM   H18T12183   1.105   5.661   8.950  1.1390 -1.0353 -0.0807
  116OSM   H18U12184   1.060   5.829   8.948 -1.3792  0.7610  1.2779
  116OSM    C1F12185   1.003   5.495  10.323  0.5364  1.0729 -0.6163
  116OSM     OF12186   0.878   5.506  10.320 -0.6084 -0.0503 -0.6034
  116OSM    C2F12187   1.075   5.368  10.297 -0.2276  0.2840 -0.8983
  116OSM    H2F12188   1.021   5.283  10.343  0.4026  2.1309  3.7923
  116OSM    H2G12189   1.175   5.375  10.346 -0.7693 -0.7530  0.4160
  116OSM    C3F12190   1.099   5.348  10.143  0.9841  0.2361  0.0168
  116OSM    H3F12191   1.158   5.428  10.093  0.5957  0.2438 -0.4308
  116OSM    H3G12192   1.000   5.345  10.093  1.2125 -0.3809 -0.4046
  116OSM    C4F12193   1.155   5.206  10.113  0.6740 -0.6774 -0.0093
  116OSM    H4F12194   1.082   5.127  10.141 -1.0191 -0.1505 -2.6279
  116OSM    H4G12195   1.242   5.182  10.179  1.2540 -0.9495 -0.8505
  116OSM    C5F12196   1.203   5.191   9.966  0.5427  0.0094 -0.3453
  116OSM    H5F12197   1.263   5.098   9.968  2.0005  0.9210  0.0994
  116OSM    H5G12198   1.274   5.274   9.947 -1.5739  1.4569 -2.5115
  116OSM    C6F12199   1.096   5.196   9.861  0.1644  0.1660 -0.7421
  116OSM    H6F12200   1.042   5.293   9.861  2.1847  1.3626 -2.7100
  116OSM    H6G12201   1.024   5.113   9.882  0.8225 -0.1176  0.4695
  116OSM    C7F12202   1.156   5.161   9.721 -0.2192  0.4082 -0.1556
  116OSM    H7F12203   1.160   5.050   9.709 -0.9755  0.3161  0.3430
  116OSM    H7G12204   1.258   5.205   9.718  0.1368 -0.2615  1.2410
  116OSM    C8F12205   1.082   5.230   9.604 -0.3377  0.2034  0.6905
  116OSM    H8F12206   1.131   5.192   9.511 -1.1301  0.7627  0.0327
  116OSM    H8G12207   1.097   5.340   9.603 -0.2776  0.2123 -1.1658
  116OSM    C9F12208   0.947   5.163   9.598 -0.8488 -0.1058 -0.2557
  116OSM    H9F12209   0.947   5.053   9.590  2.7736 -0.2639  0.1849
  116OSM   C10F12210   0.833   5.225   9.623  0.2715 -0.7665 -0.1764
  116OSM   H10F12211   0.743   5.163   9.608 -0.1871 -0.3622  0.7542
  116OSM   C11F12212   0.816   5.374   9.643  1.0078 -0.2091 -0.1688
  116OSM   H11F12213   0.874   5.428   9.564 -1.1217  0.2520 -1.4968
  116OSM   H11G12214   0.847   5.400   9.747 -0.4463  3.0061 -0.4257
  116OSM   C12F12215   0.669   5.419   9.627  0.3012  0.5869 -0.7189
  116OSM   H12F12216   0.652   5.528   9.618 -2.0550  0.4022  0.5725
  116OSM   H12G12217   0.617   5.377   9.717  0.9164 -0.3619 -0.7959
  116OSM   C13F12218   0.591   5.373   9.500 -0.6798  0.2799 -0.2446
  116OSM   H13F12219   0.480   5.371   9.513 -0.5997 -0.4641  0.3870
  116OSM   H13G12220   0.624   5.270   9.477  0.6862  0.0114  2.4526
  116OSM   C14F12221   0.619   5.459   9.382  0.6663 -0.5646 -0.9428
  116OSM   H14F12222   0.727   5.461   9.357  0.6525  0.6977 -0.9495
  116OSM   H14G12223   0.585   5.563   9.404  1.6933 -0.8886  2.9468
  116OSM   C15F12224   0.540   5.409   9.262 -0.2376  0.0354 -0.1212
  116OSM   H15F12225   0.432   5.389   9.277 -0.6116  0.3783 -2.0760
  116OSM   H15G12226   0.583   5.310   9.235 -0.7180 -0.1491 -0.2067
  116OSM   C16F12227   0.541   5.498   9.135  0.3995  0.0208  0.3587
  116OSM   H16F12228   0.486   5.592   9.159 -1.7476 -1.0625 -0.0179
  116OSM   H16G12229   0.488   5.440   9.056 -2.8871  1.7899  1.0658
  116OSM   C17F12230   0.671   5.536   9.078  0.9685 -0.4954 -0.4141
  116OSM   H17F12231   0.727   5.445   9.047 -0.0967 -2.4192  2.7690
  116OSM   H17G12232   0.742   5.572   9.156  0.0954 -2.7246  1.5617
  116OSM   C18F12233   0.669   5.632   8.956  0.0033 -0.4024  0.4473
  116OSM   H18F12234   0.630   5.592   8.860 -0.8795  0.6719  0.3304
  116OSM   H18G12235   0.764   5.687   8.939  1.4621 -2.4591  1.4878
  116OSM   H18H12236   0.595   5.712   8.980  0.7682  0.5658 -0.3434
  117OSM      N12237   5.694   6.215  10.834  0.2922  0.7117 -0.1113
  117OSM    C1512238   5.672   6.253  10.694  0.7848  0.8514  0.1680
  117OSM   H15A12239   5.675   6.360  10.684  2.9414  1.1469  2.6527
  117OSM   H15B12240   5.577   6.220  10.654  0.0751  1.5596  1.2285
  117OSM   H15C12241   5.754   6.215  10.635  0.3066 -0.8872  0.5411
  117OSM    C1412242   5.668   6.069  10.847 -0.3594 -0.1177  0.0463
  117OSM   H14A12243   5.571   6.045  10.805 -0.3795 -1.7048  0.9009
  117OSM   H14B12244   5.671   6.036  10.950  0.4619  1.0501  0.4033
  117OSM   H14C12245   5.743   6.006  10.801 -0.1443 -0.2738  0.5947
  117OSM    C1312246   5.834   6.231  10.876 -0.3641  0.7431 -0.1924
  117OSM   H13A12247   5.859   6.197  10.975 -0.1888  0.0270 -0.4790
  117OSM   H13B12248   5.865   6.333  10.858 -0.5883  0.7689 -0.4524
  117OSM   H13C12249   5.895   6.180  10.803 -0.1218  1.6721 -0.6604
  117OSM    C1212250   5.608   6.297  10.928  0.0710 -0.3866  0.3474
  117OSM   H12A12251   5.608   6.248  11.025 -0.8520 -0.2904  0.3974
  117OSM   H12B12252   5.506   6.289  10.895 -0.4855  0.3107  1.7987
  117OSM    C1112253   5.641   6.448  10.951 -0.7612  0.4233  0.1187
  117OSM   H11A12254   5.561   6.479  11.021 -1.7248 -0.5000 -0.5408
  117OSM   H11B12255   5.622   6.497  10.853  0.4692  0.4385 -0.1234
  117OSM      P12256   5.824   6.602  11.038  0.0718  0.3982  0.3705
  117OSM    O1312257   5.755   6.662  11.151  0.2081 -0.2208  0.4854
  117OSM    O1412258   5.973   6.609  11.050  0.7184  0.1390  0.3335
  117OSM    O1112259   5.791   6.688  10.909 -0.3719  0.1630 -0.5777
  117OSM    O1212260   5.772   6.457  11.011 -0.1379 -0.3971  0.0758
  117OSM    C1S12261   5.846   6.655  10.776 -0.3232 -0.2871  0.0541
  117OSM    H1S12262   5.848   6.545  10.763 -0.8153 -0.6145  2.2844
  117OSM    H1T12263   5.951   6.693  10.776 -1.2420  2.6598  1.9508
  117OSM     NF12264   5.817   6.678  10.523  0.0585 -0.4147  0.9712
  117OSM    HNF12265   5.882   6.728  10.465  1.4144  0.6372  3.2470
  117OSM    C2S12266   5.777   6.734  10.656 -0.4009 -0.4762  0.0043
  117OSM    H2S12267   5.668   6.722  10.669 -0.4621  1.6335  2.3088
  117OSM    C3S12268   5.807   6.887  10.681 -0.5391  0.6797 -0.2764
  117OSM    H3S12269   5.916   6.903  10.666 -0.6942  0.5931 -1.5697
  117OSM     O312270   5.771   6.934  10.809 -0.1657 -0.2742  0.1960
  117OSM    HO312271   5.769   6.855  10.863 -3.7362 -1.2599 -1.0990
  117OSM    C4S12272   5.733   6.963  10.578 -0.1152  0.0437 -0.2067
  117OSM    H4S12273   5.788   6.980  10.484 -0.5498  0.5687 -0.3714
  117OSM    C5S12274   5.600   7.005  10.586  0.0215 -1.0588  0.8095
  117OSM    H5S12275   5.539   6.963  10.667 -0.5771 -0.8272  0.4851
  117OSM    C6S12276   5.528   7.087  10.481  0.4327 -0.0715  0.1710
  117OSM    H6S12277   5.507   7.189  10.519 -2.2599 -0.8572  1.0177
  117OSM    H6T12278   5.425   7.048  10.467  0.2635  1.2367 -2.8540
  117OSM    C7S12279   5.600   7.100  10.348 -0.5390  0.1093 -0.5701
  117OSM    H7S12280   5.615   6.997  10.308 -2.4671 -0.9777  1.2993
  117OSM    H7T12281   5.701   7.145  10.359 -0.5194 -0.0134 -0.2462
  117OSM    C8S12282   5.519   7.185  10.245 -0.2078  0.6572  0.1336
  117OSM    H8S12283   5.536   7.292  10.274 -0.7862  0.2822  2.0279
  117OSM    H8T12284   5.412   7.161  10.263 -0.6215  1.4384 -1.1933
  117OSM    C9S12285   5.551   7.141  10.102 -0.0574 -0.1237 -0.5152
  117OSM    H9S12286   5.523   7.033  10.107 -0.9911  0.1665  1.0028
  117OSM    H9T12287   5.659   7.153  10.077  0.2707  0.0006  0.9092
  117OSM   C10S12288   5.464   7.212   9.997  0.5921  0.1587 -0.4689
  117OSM   H10S12289   5.496   7.316   9.973 -1.1762  0.1566 -3.3353
  117OSM   H10T12290   5.361   7.222  10.035  0.9907  0.0045  0.6771
  117OSM   C11S12291   5.481   7.146   9.866 -0.0182 -0.6986  0.0944
  117OSM   H11S12292   5.460   7.037   9.873 -0.8294 -0.5071  0.9672
  117OSM   H11T12293   5.588   7.158   9.838 -0.4066  3.6705 -0.2823
  117OSM   C12S12294   5.395   7.217   9.761 -0.0897 -0.2723 -0.3635
  117OSM   H12S12295   5.422   7.324   9.765 -0.1766  0.0145 -4.0293
  117OSM   H12T12296   5.285   7.213   9.779 -0.6052  0.2826 -3.0309
  117OSM   C13S12297   5.425   7.172   9.620  0.4467  0.0191 -0.5758
  117OSM   H13S12298   5.427   7.061   9.607 -0.7989 -0.1047  0.1117
  117OSM   H13T12299   5.523   7.217   9.592  0.7173  1.2190  2.0751
  117OSM   C14S12300   5.319   7.235   9.519 -0.0591  0.4452  0.2223
  117OSM   H14S12301   5.335   7.345   9.524  2.4395  0.2422 -1.5960
  117OSM   H14T12302   5.218   7.200   9.549  0.8255 -1.6652  0.9453
  117OSM   C15S12303   5.337   7.182   9.377  0.1356  0.0090  0.3000
  117OSM   H15S12304   5.315   7.073   9.374 -1.4567  0.2997  0.7113
  117OSM   H15T12305   5.442   7.195   9.343  1.0932 -1.5686  2.4160
  117OSM   C16S12306   5.257   7.260   9.272  0.3228  0.2871 -0.7114
  117OSM   H16S12307   5.323   7.341   9.233  0.9233 -0.6394 -1.6848
  117OSM   H16T12308   5.173   7.294   9.336 -0.4152  0.1516 -1.5898
  117OSM   C17S12309   5.220   7.167   9.158  0.0877 -0.1817 -0.2428
  117OSM   H17S12310   5.141   7.096   9.194  1.4312 -0.4257  2.5244
  117OSM   H17T12311   5.310   7.106   9.135 -0.8663 -0.9686 -2.0963
  117OSM   C18S12312   5.164   7.241   9.039 -0.1269 -0.0834 -0.3069
  117OSM   H18S12313   5.071   7.296   9.064  0.4486 -0.3298  2.6648
  117OSM   H18T12314   5.148   7.171   8.953  0.3014 -0.5515 -0.0098
  117OSM   H18U12315   5.241   7.310   8.998  0.2309 -0.3521 -0.0897
  117OSM    C1F12316   5.780   6.558  10.481  0.5844  0.3966 -0.8231
  117OSM     OF12317   5.674   6.511  10.512  0.5093 -0.0816 -0.1117
  117OSM    C2F12318   5.880   6.490  10.398 -0.2217 -0.0494 -1.1730
  117OSM    H2F12319   5.964   6.456  10.461 -0.2923  0.7729 -0.6159
  117OSM    H2G12320   5.902   6.564  10.318  0.3937  2.1587  0.9137
  117OSM    C3F12321   5.828   6.358  10.327 -0.2768  0.3811 -0.8997
  117OSM    H3F12322   5.732   6.366  10.273  0.4026  0.2598 -2.1671
  117OSM    H3G12323   5.818   6.278  10.403 -2.9805  0.1118 -1.4393
  117OSM    C4F12324   5.933   6.297  10.227 -0.4929 -0.1958 -0.0580
  117OSM    H4F12325   6.026   6.278  10.285 -0.7034  3.4086  1.7425
  117OSM    H4G12326   5.951   6.374  10.149  0.4055  0.4660  0.7760
  117OSM    C5F12327   5.873   6.173  10.154 -0.0855 -0.2156 -0.2175
  117OSM    H5F12328   5.762   6.180  10.164 -0.0681 -1.9303  2.0627
  117OSM    H5G12329   5.905   6.082  10.208  0.0424 -1.0808 -1.7121
  117OSM    C6F12330   5.917   6.152  10.007  0.4222 -0.3634  0.0591
  117OSM    H6F12331   6.027   6.166  10.003  0.4348 -0.1013  1.1053
  117OSM    H6G12332   5.887   6.233   9.936  3.5080  0.1269 -0.8631
  117OSM    C7F12333   5.874   6.020   9.951  0.0524  0.0353 -0.0015
  117OSM    H7F12334   5.764   6.013   9.936 -0.3913  6.0505 -1.9784
  117OSM    H7G12335   5.916   5.941  10.017  2.0759  1.6131  0.7173
  117OSM    C8F12336   5.934   5.985   9.808 -0.4378  0.6069 -0.0823
  117OSM    H8F12337   5.919   5.880   9.773 -0.2048  0.5722 -0.0811
  117OSM    H8G12338   6.044   6.002   9.820 -0.4303  0.2522  0.3593
  117OSM    C9F12339   5.902   6.087   9.699  0.9491  0.5610 -0.6302
  117OSM    H9F12340   5.916   6.194   9.719  1.2565  0.2386  1.0392
  117OSM   C10F12341   5.861   6.049   9.578  0.1618  0.0442  0.6044
  117OSM   H10F12342   5.825   6.133   9.517 -0.6686 -0.2375  0.6948
  117OSM   C11F12343   5.839   5.912   9.507  0.7155  0.7265 -0.4005
  117OSM   H11F12344   5.742   5.924   9.454  0.5992 -0.5960 -0.5227
  117OSM   H11G12345   5.822   5.839   9.588 -1.6763  0.1534 -1.3342
  117OSM   C12F12346   5.951   5.845   9.423  1.0888 -0.5572  0.0996
  117OSM   H12F12347   5.925   5.744   9.384 -0.6672  0.7200 -2.2594
  117OSM   H12G12348   6.038   5.832   9.491  0.9350 -0.2754  0.3543
  117OSM   C13F12349   6.006   5.918   9.296  0.8706  0.7958 -0.5116
  117OSM   H13F12350   6.095   5.869   9.251  1.3526  0.5678  0.6396
  117OSM   H13G12351   6.032   6.021   9.329  0.1611  1.2571 -1.3639
  117OSM   C14F12352   5.888   5.926   9.200  0.5131  0.4874  0.4087
  117OSM   H14F12353   5.801   5.967   9.255  0.0098  0.3911 -0.3007
  117OSM   H14G12354   5.872   5.830   9.146  0.0335  0.8658 -0.1323
  117OSM   C15F12355   5.898   6.019   9.075  0.0873 -0.0114 -0.2267
  117OSM   H15F12356   5.882   6.120   9.119 -0.5054  0.4481 -1.4623
  117OSM   H15G12357   5.808   6.008   9.011 -1.5938 -1.9773  2.2627
  117OSM   C16F12358   6.029   6.009   9.002  0.1896  1.0133 -0.2157
  117OSM   H16F12359   6.115   6.012   9.073  0.4384  2.2977 -0.5551
  117OSM   H16G12360   6.030   6.092   8.929 -3.9897  0.4298 -1.2095
  117OSM   C17F12361   6.035   5.878   8.915 -0.3576 -0.2325 -0.4781
  117OSM   H17F12362   5.941   5.868   8.856 -0.0750  0.8792 -1.1437
  117OSM   H17G12363   6.039   5.781   8.969 -4.4084 -1.9311 -2.7125
  117OSM   C18F12364   6.143   5.879   8.803 -0.4068  0.6023 -0.3492
  117OSM   H18F12365   6.153   5.786   8.744  4.0300  0.5002  0.2306
  117OSM   H18G12366   6.239   5.887   8.858 -1.7457 -0.1607  2.3121
  117OSM   H18H12367   6.132   5.974   8.746 -2.1446  2.0610  2.1641
  118OSM      N12368   0.123   1.855  10.843  0.7053 -0.5714  0.0562
  118OSM    C1512369   0.145   1.712  10.836 -0.1232  0.6072  0.1717
  118OSM   H15A12370   0.114   1.671  10.741  2.2971  0.8960 -0.8223
  118OSM   H15B12371   0.100   1.666  10.922 -2.4197  1.3984 -0.5356
  118OSM   H15C12372   0.250   1.686  10.834  0.1073  0.9948  2.9609
  118OSM    C1412373   0.187   1.917  10.961  0.2981  0.4051  0.1096
  118OSM   H14A12374   0.294   1.900  10.961  0.3135 -0.0198  3.0110
  118OSM   H14B12375   0.151   1.865  11.049 -2.1454  0.6879 -0.6424
  118OSM   H14C12376   0.170   2.022  10.976 -2.7247 -0.0745  0.8415
  118OSM    C1312377   0.174   1.915  10.715 -1.0684  0.1096  0.8181
  118OSM   H13A12378   0.273   1.886  10.684 -2.4896 -2.8525 -1.4729
  118OSM   H13B12379   0.186   2.021  10.729  0.7228  0.3240 -1.7132
  118OSM   H13C12380   0.110   1.892  10.630  0.4637 -2.2548  0.1880
  118OSM    C1212381  -0.028   1.889  10.849  0.1558 -0.7301 -0.0752
  118OSM   H12A12382  -0.032   1.996  10.831 -0.8384 -0.4333  1.6638
  118OSM   H12B12383  -0.063   1.904  10.950  0.6653  1.4981 -0.1611
  118OSM    C1112384  -0.124   1.821  10.761  0.0755  1.3238  0.4749
  118OSM   H11A12385  -0.085   1.828  10.657  1.2414  0.0687  0.8016
  118OSM   H11B12386  -0.224   1.869  10.751 -0.7996 -0.7729 -1.6856
  118OSM      P12387  -0.228   1.640  10.914 -0.3385  0.2734  0.0775
  118OSM    O1312388  -0.191   1.506  10.949 -0.2732  0.2102 -0.0401
  118OSM    O1412389  -0.211   1.739  11.022 -0.6019  0.5963  0.0745
  118OSM    O1112390  -0.371   1.636  10.853 -0.1206  0.7567  0.7727
  118OSM    O1212391  -0.134   1.679  10.793  0.1240 -0.0566 -0.4673
  118OSM    C1S12392  -0.393   1.623  10.710  0.0047 -0.0175 -0.2896
  118OSM    H1S12393  -0.300   1.634  10.650 -0.6902  2.5166 -1.0407
  118OSM    H1T12394  -0.452   1.709  10.673  0.1666 -0.2909 -1.2139
  118OSM     NF12395  -0.472   1.493  10.520  0.3947 -0.3648 -0.4145
  118OSM    HNF12396  -0.563   1.488  10.480  0.6502 -1.5567 -0.8966
  118OSM    C2S12397  -0.470   1.490  10.666 -0.7449 -0.7335  1.0218
  118OSM    H2S12398  -0.403   1.403  10.684  0.1387 -0.5184 -0.9687
  118OSM    C3S12399  -0.602   1.479  10.747  1.0006 -0.5088 -0.0932
  118OSM    H3S12400  -0.667   1.561  10.711  1.6993 -0.0285 -0.2746
  118OSM     O312401  -0.585   1.486  10.893  0.3525  0.1856  0.5493
  118OSM    HO312402  -0.507   1.539  10.909  0.5358 -0.7614  3.3585
  118OSM    C4S12403  -0.673   1.345  10.717 -0.7267 -0.2775  0.3191
  118OSM    H4S12404  -0.769   1.370  10.669  1.6296  1.2308 -4.2031
  118OSM    C5S12405  -0.626   1.221  10.735 -0.6222  0.5590  0.2357
  118OSM    H5S12406  -0.521   1.203  10.762 -0.4762 -0.4565 -0.9389
  118OSM    C6S12407  -0.700   1.092  10.706  1.3532  0.4074  0.4830
  118OSM    H6S12408  -0.748   1.043  10.794 -1.0472  3.2891  0.9624
  118OSM    H6T12409  -0.623   1.018  10.678 -0.5773 -0.9416 -1.5532
  118OSM    C7S12410  -0.807   1.099  10.594  0.8081  0.8569  0.0523
  118OSM    H7S12411  -0.892   1.159  10.635 -0.9732 -2.2423  1.2392
  118OSM    H7T12412  -0.851   0.998  10.583  0.9063  0.7289  0.7808
  118OSM    C8S12413  -0.754   1.141  10.453  0.1486 -0.2398  0.1071
  118OSM    H8S12414  -0.645   1.117  10.446  0.2759  0.5126 -0.5153
  118OSM    H8T12415  -0.769   1.251  10.448 -1.9245 -0.5138 -0.4341
  118OSM    C9S12416  -0.837   1.075  10.337 -0.1159  0.1183 -0.1101
  118OSM    H9S12417  -0.934   1.120  10.308  0.8340  1.0327 -2.0551
  118OSM    H9T12418  -0.849   0.969  10.369 -3.0216  0.3308 -0.2378
  118OSM   C10S12419  -0.753   1.071  10.202  1.6059 -0.6792 -0.4215
  118OSM   H10S12420  -0.657   1.019  10.221  1.7027 -0.7429 -1.0423
  118OSM   H10T12421  -0.734   1.176  10.170  0.7103  0.0194  1.2249
  118OSM   C11S12422  -0.825   0.989  10.088 -0.2645 -0.6150 -0.3833
  118OSM   H11S12423  -0.926   1.032  10.071 -0.3922 -0.4774  0.6820
  118OSM   H11T12424  -0.852   0.889  10.130 -0.3792 -0.4363 -0.0280
  118OSM   C12S12425  -0.735   0.986   9.965  0.0974 -0.0322  0.3765
  118OSM   H12S12426  -0.637   0.939   9.986  0.0658 -1.1592 -1.6638
  118OSM   H12T12427  -0.732   1.092   9.935 -0.8321 -0.0855  0.0680
  118OSM   C13S12428  -0.795   0.909   9.846  0.2897  0.3201 -0.1804
  118OSM   H13S12429  -0.884   0.961   9.807 -1.0870 -2.0933 -0.4865
  118OSM   H13T12430  -0.826   0.805   9.870  0.6810 -1.3602 -5.7065
  118OSM   C14S12431  -0.694   0.903   9.733  0.0054  0.8082 -0.0063
  118OSM   H14S12432  -0.616   0.837   9.777 -1.1105 -0.0333  0.7596
  118OSM   H14T12433  -0.650   1.004   9.720  2.0528  0.2808  2.0858
  118OSM   C15S12434  -0.750   0.850   9.603 -0.5032 -0.2754 -0.0565
  118OSM   H15S12435  -0.824   0.913   9.550  0.0652  1.0240  0.6278
  118OSM   H15T12436  -0.777   0.743   9.617  0.4577 -0.5361 -0.1294
  118OSM   C16S12437  -0.634   0.819   9.501 -0.0333  0.4341  0.0627
  118OSM   H16S12438  -0.568   0.732   9.521 -0.5737 -0.0731 -0.2992
  118OSM   H16T12439  -0.576   0.911   9.521 -0.3350  0.0286  3.4480
  118OSM   C17S12440  -0.674   0.825   9.353 -0.3747 -0.2819 -0.2864
  118OSM   H17S12441  -0.768   0.883   9.344  0.2269  0.7040 -0.3742
  118OSM   H17T12442  -0.700   0.722   9.319  0.2217 -0.4805 -0.1616
  118OSM   C18S12443  -0.562   0.881   9.269  0.8354  0.3101  0.0090
  118OSM   H18S12444  -0.601   0.899   9.167  1.1671  0.0907 -0.1602
  118OSM   H18T12445  -0.471   0.817   9.270  1.3132  0.9015 -1.9797
  118OSM   H18U12446  -0.534   0.982   9.307 -3.2205  1.1714  1.1297
  118OSM    C1F12447  -0.360   1.487  10.447  0.1552  0.2478  0.3763
  118OSM     OF12448  -0.248   1.460  10.492  0.7760  0.2452 -0.4201
  118OSM    C2F12449  -0.386   1.486  10.295 -0.2619 -0.0035  0.0200
  118OSM    H2F12450  -0.486   1.531  10.278 -0.5917 -0.8266 -0.2481
  118OSM    H2G12451  -0.389   1.378  10.267  2.4063  0.1482 -1.1398
  118OSM    C3F12452  -0.293   1.562  10.197  0.0371 -0.9421 -0.3420
  118OSM    H3F12453  -0.190   1.523  10.210 -0.5479 -2.1902  0.8555
  118OSM    H3G12454  -0.295   1.670  10.224  2.0847 -0.8208 -0.5132
  118OSM    C4F12455  -0.330   1.540  10.043 -0.3779 -0.3158 -1.0302
  118OSM    H4F12456  -0.426   1.590  10.018 -1.2027 -0.7174  1.1584
  118OSM    H4G12457  -0.336   1.430  10.026  0.5244 -0.8383  1.5694
  118OSM    C5F12458  -0.236   1.616   9.939  0.8104  0.1886 -0.7302
  118OSM    H5F12459  -0.129   1.585   9.948  0.4394 -0.6212  1.3509
  118OSM    H5G12460  -0.254   1.725   9.952  1.0369  0.6581 -3.7191
  118OSM    C6F12461  -0.288   1.602   9.795  0.2981 -0.0722  0.5955
  118OSM    H6F12462  -0.396   1.629   9.787  0.0698 -1.0785  0.1783
  118OSM    H6G12463  -0.264   1.501   9.757  0.4991 -0.2380  1.1488
  118OSM    C7F12464  -0.211   1.689   9.696 -0.1034  0.2172 -0.0386
  118OSM    H7F12465  -0.101   1.684   9.707  0.0136  2.0906 -0.0776
  118OSM    H7G12466  -0.225   1.796   9.720 -0.2015  0.8235 -2.5442
  118OSM    C8F12467  -0.248   1.665   9.544  0.1357  0.5342 -0.1391
  118OSM    H8F12468  -0.271   1.558   9.526 -1.2893  0.3669  2.2235
  118OSM    H8G12469  -0.177   1.707   9.470 -0.7581 -0.4258 -1.5917
  118OSM    C9F12470  -0.374   1.743   9.515 -0.4188  0.0840 -0.3965
  118OSM    H9F12471  -0.419   1.787   9.605  1.9855  0.4478  0.7347
  118OSM   C10F12472  -0.430   1.745   9.396  0.3499 -0.2786  0.4689
  118OSM   H10F12473  -0.523   1.803   9.384  0.4365 -0.4020 -0.9335
  118OSM   C11F12474  -0.376   1.680   9.269 -0.2985  0.2472 -0.2509
  118OSM   H11F12475  -0.458   1.614   9.231 -0.6580  0.6336 -0.1552
  118OSM   H11G12476  -0.286   1.616   9.281  0.4689  1.8239  4.8692
  118OSM   C12F12477  -0.340   1.789   9.164 -0.1474 -0.4491  0.6434
  118OSM   H12F12478  -0.271   1.862   9.211 -0.1862 -0.7193  1.1306
  118OSM   H12G12479  -0.430   1.850   9.139  0.7030 -0.8466 -4.4881
  118OSM   C13F12480  -0.292   1.739   9.024  0.4913 -0.2497  0.7357
  118OSM   H13F12481  -0.378   1.684   8.981  0.6439  0.7550 -0.9330
  118OSM   H13G12482  -0.208   1.671   9.046  3.2560  2.1461 -1.5836
  118OSM   C14F12483  -0.250   1.851   8.930  0.8312  0.0278 -0.2125
  118OSM   H14F12484  -0.174   1.915   8.980  0.8855 -0.8034  0.8049
  118OSM   H14G12485  -0.340   1.913   8.914  1.7933  1.8083  0.9001
  118OSM   C15F12486  -0.189   1.800   8.796  0.5202 -0.3120  0.3444
  118OSM   H15F12487  -0.259   1.727   8.752 -0.7463  1.7136 -1.1765
  118OSM   H15G12488  -0.096   1.741   8.815  1.2013 -0.1349 -2.1252
  118OSM   C16F12489  -0.159   1.904   8.689 -0.3494  0.5673 -0.2192
  118OSM   H16F12490  -0.256   1.952   8.661  0.5219  2.4763 -0.1173
  118OSM   H16G12491  -0.130   1.844   8.600 -1.2634 -1.7032  0.9364
  118OSM   C17F12492  -0.074   2.018   8.736 -0.2203  0.4589 -0.0127
  118OSM   H17F12493  -0.128   2.056   8.825  1.1264  0.0326  1.0035
  118OSM   H17G12494  -0.070   2.099   8.660  1.3467 -0.2438 -0.7126
  118OSM   C18F12495   0.067   1.974   8.779 -0.5990 -0.0795  1.3594
  118OSM   H18F12496   0.121   2.051   8.839  1.5803  0.4133 -1.0637
  118OSM   H18G12497   0.131   1.931   8.699 -1.2361 -1.4974  1.5840
  118OSM   H18H12498   0.055   1.894   8.855  0.6496 -0.0646  1.5998
  119OSM      N12499   5.929   0.215  11.145 -0.1323  0.2994 -0.5116
  119OSM    C1512500   5.988   0.178  11.276  0.2666  0.8983  0.1203
  119OSM   H15A12501   5.939   0.089  11.312  0.5891 -0.2571 -2.1233
  119OSM   H15B12502   5.982   0.260  11.346 -0.1108  0.2963  0.8190
  119OSM   H15C12503   6.094   0.157  11.266  0.3932  2.2029 -1.7687
  119OSM    C1412504   5.774   0.193  11.148  0.0321  0.1320 -0.3586
  119OSM   H14A12505   5.726   0.224  11.056 -0.8267 -1.4048 -0.4476
  119OSM   H14B12506   5.725   0.260  11.217  1.6162  0.9789 -0.0037
  119OSM   H14C12507   5.747   0.092  11.173  1.9831  0.1961  2.4895
  119OSM    C1312508   5.957   0.356  11.117 -0.7069  0.1981 -0.0633
  119OSM   H13A12509   5.900   0.400  11.036 -1.5466  2.3554  1.5887
  119OSM   H13B12510   6.057   0.368  11.080 -0.6499 -0.8298 -0.2853
  119OSM   H13C12511   5.944   0.409  11.211 -0.5719 -2.1329  1.3729
  119OSM    C1212512   5.988   0.121  11.038  0.2542  0.0986 -0.4774
  119OSM   H12A12513   5.951   0.161  10.945 -1.2940 -0.7016 -0.2399
  119OSM   H12B12514   5.933   0.029  11.055 -0.8585  0.9783  0.9061
  119OSM    C1112515   6.138   0.112  11.026 -0.5733  0.3873  0.0349
  119OSM   H11A12516   6.161   0.036  10.948 -0.4288  0.9582 -0.4845
  119OSM   H11B12517   6.184   0.078  11.122  0.1472  1.7858  0.2092
  119OSM      P12518   6.287   0.279  10.891 -0.2623  0.1039 -0.0625
  119OSM    O1312519   6.293   0.424  10.895  0.2250 -0.3817  0.2334
  119OSM    O1412520   6.419   0.212  10.903 -0.1293 -0.7169 -0.4022
  119OSM    O1112521   6.213   0.240  10.754 -0.1297 -0.4644  0.1704
  119OSM    O1212522   6.188   0.239  11.001 -0.3037 -0.3094  0.4028
  119OSM    C1S12523   6.261   0.261  10.619  0.3575 -0.0389 -0.7774
  119OSM    H1S12524   6.285   0.161  10.577  1.9458  0.5232 -1.2789
  119OSM    H1T12525   6.358   0.314  10.619  1.3504 -1.7612  0.2007
  119OSM     NF12526   6.248   0.340  10.401 -0.2570  0.0461  0.2731
  119OSM    HNF12527   6.317   0.412  10.401  1.3094 -1.3598 -1.9297
  119OSM    C2S12528   6.168   0.323  10.520  0.7765 -0.6742  0.0600
  119OSM    H2S12529   6.089   0.245  10.511  1.2665 -1.2262  0.5592
  119OSM    C3S12530   6.101   0.456  10.573  0.3595 -0.2716 -0.8708
  119OSM    H3S12531   6.169   0.542  10.593  1.1554 -1.3714  1.4279
  119OSM     O312532   6.022   0.438  10.695  0.0064 -0.0710 -0.2031
  119OSM    HO312533   6.057   0.358  10.734  0.5036  0.0499 -0.3946
  119OSM    C4S12534   6.000   0.504  10.477  0.2525  0.4608  0.0819
  119OSM    H4S12535   5.910   0.440  10.474  0.8024 -0.3180 -2.0408
  119OSM    C5S12536   6.007   0.611  10.398  0.1058 -0.3813  0.0963
  119OSM    H5S12537   6.103   0.665  10.399  0.1004 -0.3329 -1.0646
  119OSM    C6S12538   5.903   0.652  10.299 -0.0471  0.1193 -0.0675
  119OSM    H6S12539   5.934   0.755  10.270  2.0578 -0.2588  0.6338
  119OSM    H6T12540   5.800   0.642  10.340  0.3100  0.9641  1.0938
  119OSM    C7S12541   5.917   0.588  10.161  0.8204 -0.4415 -0.0169
  119OSM    H7S12542   5.908   0.477  10.164  2.5109 -0.6047 -0.2592
  119OSM    H7T12543   6.016   0.615  10.118  1.2832  0.2063  1.4134
  119OSM    C8S12544   5.814   0.643  10.057 -0.4513  0.6014 -0.2898
  119OSM    H8S12545   5.825   0.753  10.048 -1.5591  1.2817  4.0668
  119OSM    H8T12546   5.714   0.611  10.092 -0.1438  0.5556  0.5860
  119OSM    C9S12547   5.827   0.574   9.923 -0.4056 -0.0763 -0.9898
  119OSM    H9S12548   5.817   0.465   9.943  0.9433 -0.4527 -2.1633
  119OSM    H9T12549   5.930   0.587   9.883 -0.5805  2.7499 -0.6773
  119OSM   C10S12550   5.748   0.640   9.817 -0.6509 -0.0277 -0.3424
  119OSM   H10S12551   5.763   0.749   9.809  1.6973 -0.3768 -1.5426
  119OSM   H10T12552   5.642   0.642   9.851 -1.3666 -2.8421 -1.9723
  119OSM   C11S12553   5.757   0.585   9.671  1.3618  0.5613 -0.0681
  119OSM   H11S12554   5.746   0.476   9.685  1.9909  0.4040 -0.7309
  119OSM   H11T12555   5.862   0.603   9.639  0.6443  0.0888 -3.0189
  119OSM   C12S12556   5.659   0.658   9.576  0.4064 -0.8449  0.3108
  119OSM   H12S12557   5.671   0.768   9.587  1.5756 -1.0588  1.4935
  119OSM   H12T12558   5.553   0.632   9.597  0.0641 -0.3154 -0.7254
  119OSM   C13S12559   5.682   0.607   9.435  0.2316 -0.4081 -0.1895
  119OSM   H13S12560   5.657   0.500   9.419  1.3715 -0.6332 -0.5156
  119OSM   H13T12561   5.792   0.606   9.422  0.5407 -1.5317  2.0026
  119OSM   C14S12562   5.596   0.682   9.328  0.2337 -1.0670  0.0828
  119OSM   H14S12563   5.637   0.785   9.320  1.3552 -1.5161 -0.1126
  119OSM   H14T12564   5.491   0.696   9.361 -0.6731  1.9496 -3.4527
  119OSM   C15S12565   5.598   0.617   9.190 -0.0154  0.7807  0.4944
  119OSM   H15S12566   5.521   0.663   9.124  0.6209  1.5503  0.2771
  119OSM   H15T12567   5.567   0.510   9.199  0.5329  0.2127 -2.9225
  119OSM   C16S12568   5.731   0.607   9.129 -1.2995 -0.7012  1.1022
  119OSM   H16S12569   5.732   0.556   9.031 -2.1142  1.0242  0.1585
  119OSM   H16T12570   5.811   0.556   9.188 -0.0883 -2.7258 -2.0589
  119OSM   C17S12571   5.793   0.745   9.093 -0.4844  0.1249 -0.2115
  119OSM   H17S12572   5.807   0.797   9.191  1.8116 -3.3429  1.5141
  119OSM   H17T12573   5.718   0.804   9.036  0.2775  1.0284 -0.3189
  119OSM   C18S12574   5.932   0.733   9.032 -0.6642 -0.1825 -0.5868
  119OSM   H18S12575   5.992   0.666   9.098  0.3076 -0.3924 -1.6546
  119OSM   H18T12576   5.984   0.832   9.032 -0.4498 -0.2969 -0.6891
  119OSM   H18U12577   5.929   0.680   8.935 -2.6892  0.4114 -0.8882
  119OSM    C1F12578   6.282   0.237  10.327 -0.1538  0.2675 -0.8420
  119OSM     OF12579   6.222   0.136  10.343  0.6296  0.5177  1.0294
  119OSM    C2F12580   6.398   0.258  10.234  0.2156  0.4391  0.2458
  119OSM    H2F12581   6.489   0.289  10.289  0.4217 -0.3449  0.3613
  119OSM    H2G12582   6.370   0.344  10.169  1.2456 -1.4000 -2.8831
  119OSM    C3F12583   6.429   0.138  10.132  0.2901 -0.4809 -0.4096
  119OSM    H3F12584   6.336   0.107  10.079 -0.8535  0.4504  0.9659
  119OSM    H3G12585   6.459   0.057  10.202  0.7132  1.0501  1.2737
  119OSM    C4F12586   6.546   0.167  10.034 -0.3819  0.2073  0.0464
  119OSM    H4F12587   6.620   0.227  10.090 -0.9303 -0.4425  1.5360
  119OSM    H4G12588   6.500   0.228   9.954  0.9984  0.5536 -0.4992
  119OSM    C5F12589   6.589   0.033   9.980  0.1745 -0.0700  0.5142
  119OSM    H5F12590   6.597  -0.039  10.064 -3.1283  1.5870  2.4466
  119OSM    H5G12591   6.692   0.046   9.941  0.6986 -0.2008  1.8073
  119OSM    C6F12592   6.494  -0.023   9.872  0.4424  0.1211  0.5039
  119OSM    H6F12593   6.390  -0.015   9.909  0.3267 -0.5840  0.3548
  119OSM    H6G12594   6.509  -0.133   9.863  0.9397  0.2906 -0.9069
  119OSM    C7F12595   6.515   0.045   9.736 -0.0201 -0.1778 -0.0490
  119OSM    H7F12596   6.621   0.032   9.705  0.5214 -1.1919  2.0410
  119OSM    H7G12597   6.494   0.154   9.750  0.2251 -0.0839 -0.4101
  119OSM    C8F12598   6.408  -0.011   9.636  0.5863 -0.4113 -0.0185
  119OSM    H8F12599   6.308   0.007   9.682  0.0959 -0.8317 -0.9091
  119OSM    H8G12600   6.416  -0.120   9.617  1.5419 -0.5425  0.9847
  119OSM    C9F12601   6.413   0.076   9.511  0.0311 -0.0067 -0.5655
  119OSM    H9F12602   6.419   0.185   9.530 -1.3843 -0.0790  0.4456
  119OSM   C10F12603   6.417   0.027   9.384  0.0897  0.2335  0.1419
  119OSM   H10F12604   6.404   0.108   9.311  1.2563  1.1741  0.9344
  119OSM   C11F12605   6.414  -0.110   9.333  0.1921  0.1339  0.8155
  119OSM   H11F12606   6.347  -0.169   9.400 -1.3590  0.0701 -0.7162
  119OSM   H11G12607   6.506  -0.167   9.358 -0.7743 -1.0313  1.8933
  119OSM   C12F12608   6.371  -0.123   9.183 -0.2125 -0.5100  0.0961
  119OSM   H12F12609   6.350  -0.231   9.163  2.0192 -0.7768 -1.0292
  119OSM   H12G12610   6.457  -0.107   9.115  1.3949 -0.2277  2.0995
  119OSM   C13F12611   6.247  -0.040   9.144  0.3338  0.0183  1.0335
  119OSM   H13F12612   6.257   0.071   9.149 -4.5273  0.7391 -0.0422
  119OSM   H13G12613   6.157  -0.057   9.206 -1.7126 -0.0665 -1.7377
  119OSM   C14F12614   6.213  -0.070   9.000  0.1656 -0.4455  0.1868
  119OSM   H14F12615   6.161  -0.168   8.993  3.1586 -2.3834  2.6850
  119OSM   H14G12616   6.309  -0.068   8.945 -0.1797 -0.0162 -0.4209
  119OSM   C15F12617   6.123   0.039   8.948  0.0814 -0.6412  0.2990
  119OSM   H15F12618   6.182   0.133   8.957 -2.2338  1.0451 -1.1159
  119OSM   H15G12619   6.032   0.046   9.012  1.1657 -0.9964  1.9517
  119OSM   C16F12620   6.066   0.008   8.802 -0.4367  0.0055 -0.5125
  119OSM   H16F12621   6.005  -0.085   8.805  2.5795 -2.2404 -2.4063
  119OSM   H16G12622   6.150  -0.004   8.730 -0.2878 -2.8020  0.0088
  119OSM   C17F12623   5.981   0.117   8.742  0.7436  0.2983  0.1340
  119OSM   H17F12624   6.043   0.205   8.716  2.1072 -0.6274  0.1639
  119OSM   H17G12625   5.896   0.142   8.810 -0.2469 -2.2202 -0.0540
  119OSM   C18F12626   5.915   0.070   8.610 -0.1697 -0.7632  0.0699
  119OSM   H18F12627   5.982   0.073   8.521 -2.2998  2.2607 -1.6489
  119OSM   H18G12628   5.823   0.127   8.582  1.1114  1.5630  0.3402
  119OSM   H18H12629   5.889  -0.037   8.625  1.6791 -1.5410 -1.7839
  120OSM      N12630   0.240   3.710  11.153 -0.1243 -0.2085  0.1589
  120OSM    C1512631   0.136   3.814  11.110 -0.4231 -0.1514 -0.0675
  120OSM   H15A12632   0.158   3.905  11.164 -1.0813 -0.5252  0.8553
  120OSM   H15B12633   0.035   3.776  11.113 -0.8179  0.5896 -2.1991
  120OSM   H15C12634   0.152   3.830  11.004 -1.0992  1.3434  0.0331
  120OSM    C1412635   0.364   3.789  11.188  0.6014 -0.4110  0.2827
  120OSM   H14A12636   0.454   3.733  11.208  1.1501  0.5692  0.6342
  120OSM   H14B12637   0.328   3.856  11.266 -0.5254 -0.6877  0.0059
  120OSM   H14C12638   0.393   3.846  11.101 -0.9441 -1.5842 -1.0484
  120OSM    C1312639   0.189   3.654  11.281 -0.1579 -0.1595 -0.2501
  120OSM   H13A12640   0.092   3.607  11.268  0.1749 -1.0118  0.2770
  120OSM   H13B12641   0.185   3.726  11.361 -0.4939 -0.4550  0.0017
  120OSM   H13C12642   0.259   3.579  11.315 -0.5273  0.7189  2.7219
  120OSM    C1212643   0.263   3.603  11.053 -1.2293  0.4246 -0.1860
  120OSM   H12A12644   0.174   3.568  11.002  0.7539 -2.4126 -2.0070
  120OSM   H12B12645   0.315   3.521  11.100  2.6130  2.1315 -1.0533
  120OSM    C1112646   0.352   3.641  10.924  0.0659  0.2610  0.8274
  120OSM   H11A12647   0.341   3.553  10.857 -0.9306 -0.4790  1.9225
  120OSM   H11B12648   0.458   3.664  10.950  0.2553  0.3748 -0.0142
  120OSM      P12649   0.372   3.865  10.805 -0.3894 -0.1191 -0.0306
  120OSM    O1312650   0.283   3.955  10.728 -0.3530  0.1109  0.4464
  120OSM    O1412651   0.451   3.934  10.912 -0.2196 -0.2187 -0.0608
  120OSM    O1112652   0.464   3.781  10.705  0.1303 -0.2280  0.1407
  120OSM    O1212653   0.290   3.746  10.854  0.2960  0.7772 -0.6360
  120OSM    C1S12654   0.395   3.720  10.596  0.2638  0.3893 -0.3484
  120OSM    H1S12655   0.298   3.768  10.574  1.2871  2.4016 -0.6501
  120OSM    H1T12656   0.379   3.611  10.614  1.1935  0.4980  1.3299
  120OSM     NF12657   0.406   3.665  10.366  0.4124 -0.5913 -0.8153
  120OSM    HNF12658   0.424   3.574  10.330 -1.0970 -0.5396 -1.8038
  120OSM    C2S12659   0.484   3.725  10.474 -0.7316 -0.4172  0.0500
  120OSM    H2S12660   0.514   3.830  10.455 -2.5964 -0.2033 -2.0809
  120OSM    C3S12661   0.624   3.657  10.508 -0.3630 -0.1098 -0.0771
  120OSM    H3S12662   0.616   3.549  10.531 -0.9785  0.2282  1.4285
  120OSM     O312663   0.692   3.719  10.621 -0.4380 -0.2543  0.2589
  120OSM    HO312664   0.618   3.767  10.657 -0.3833 -0.9197  1.3059
  120OSM    C4S12665   0.717   3.668  10.391  0.8486  0.4333  0.1154
  120OSM    H4S12666   0.705   3.579  10.329  3.7440 -0.3620  0.5443
  120OSM    C5S12667   0.806   3.761  10.348  1.3086 -0.7272 -0.1741
  120OSM    H5S12668   0.827   3.840  10.423  1.0321 -0.7136 -0.1105
  120OSM    C6S12669   0.886   3.758  10.222 -0.6656  0.3693 -0.1549
  120OSM    H6S12670   0.994   3.754  10.247 -0.4339  2.9944 -0.4243
  120OSM    H6T12671   0.883   3.860  10.177 -1.5611  1.2688  1.7855
  120OSM    C7S12672   0.851   3.637  10.131 -0.2879 -0.0545 -0.6317
  120OSM    H7S12673   0.745   3.630  10.096 -0.4224  0.2236 -0.2862
  120OSM    H7T12674   0.881   3.543  10.181 -0.9729 -0.5570 -1.1416
  120OSM    C8S12675   0.935   3.637   9.999  0.3628 -0.3251 -0.2120
  120OSM    H8S12676   1.041   3.627  10.028  0.6894  0.8251 -0.9561
  120OSM    H8T12677   0.926   3.728   9.936  1.6079 -0.1044 -0.0827
  120OSM    C9S12678   0.895   3.512   9.920  0.0759  0.1237  0.5883
  120OSM    H9S12679   0.797   3.518   9.868  0.1670  0.0450  0.4069
  120OSM    H9T12680   0.894   3.425   9.989 -0.6090  0.9082  1.5909
  120OSM   C10S12681   0.991   3.471   9.807 -0.1398 -0.6309  0.5344
  120OSM   H10S12682   1.092   3.454   9.851 -0.2011 -2.4451  0.0428
  120OSM   H10T12683   1.011   3.559   9.742  1.8499 -2.0860 -0.9632
  120OSM   C11S12684   0.941   3.364   9.714  0.6415 -0.4746  0.2054
  120OSM   H11S12685   0.838   3.394   9.688  1.2575  0.9867 -0.6560
  120OSM   H11T12686   0.921   3.274   9.778 -2.1291 -1.7220 -2.2095
  120OSM   C12S12687   1.024   3.341   9.591 -0.5658 -0.6313 -0.1255
  120OSM   H12S12688   1.126   3.317   9.629 -1.9127 -1.9200  2.9957
  120OSM   H12T12689   1.010   3.434   9.531  2.4769 -1.1184 -1.8189
  120OSM   C13S12690   0.977   3.218   9.508 -0.4885  0.3122  0.3745
  120OSM   H13S12691   0.873   3.234   9.473 -0.3422 -0.4155 -0.4467
  120OSM   H13T12692   0.970   3.133   9.579 -3.0146  0.7033  0.6815
  120OSM   C14S12693   1.065   3.177   9.388  0.7150 -1.0696 -0.0759
  120OSM   H14S12694   1.042   3.070   9.371 -0.1471 -1.1239  1.2656
  120OSM   H14T12695   1.169   3.177   9.427  0.1721 -1.2166  1.4532
  120OSM   C15S12696   1.036   3.254   9.260  0.4704 -0.0803 -0.6981
  120OSM   H15S12697   0.927   3.273   9.254  0.4278  0.7217  1.7283
  120OSM   H15T12698   1.042   3.184   9.173 -2.4578 -3.3892  1.4885
  120OSM   C16S12699   1.104   3.386   9.239 -0.1129 -0.1091 -0.5190
  120OSM   H16S12700   1.214   3.374   9.224  0.1179  2.7581 -1.6902
  120OSM   H16T12701   1.088   3.468   9.311  0.3566  2.1922 -2.8735
  120OSM   C17S12702   1.064   3.439   9.099 -0.6571 -0.1121  0.8530
  120OSM   H17S12703   1.101   3.543   9.080  0.2260 -0.4828  0.4859
  120OSM   H17T12704   0.955   3.450   9.084 -0.6756  1.8040  1.9946
  120OSM   C18S12705   1.116   3.347   8.991  0.1913  0.7180 -0.1455
  120OSM   H18S12706   1.223   3.326   9.011  0.0087  0.7958  0.9984
  120OSM   H18T12707   1.125   3.399   8.893 -1.1104  0.0683 -0.6307
  120OSM   H18U12708   1.050   3.263   8.961 -1.8468  1.2484  2.4453
  120OSM    C1F12709   0.309   3.732  10.301 -0.1513  0.1177 -0.1004
  120OSM     OF12710   0.290   3.848  10.335  0.0475  0.4629 -0.2840
  120OSM    C2F12711   0.236   3.660  10.194 -0.0794 -0.1089 -0.3212
  120OSM    H2F12712   0.283   3.564  10.161 -1.7516 -0.9366 -0.3960
  120OSM    H2G12713   0.250   3.732  10.111 -0.0663  0.4446  0.1532
  120OSM    C3F12714   0.092   3.655  10.216  0.0582 -0.0126  0.2388
  120OSM    H3F12715   0.042   3.753  10.198 -1.8249 -1.0120 -0.2410
  120OSM    H3G12716   0.071   3.635  10.323 -2.8226 -1.2450 -0.4661
  120OSM    C4F12717   0.030   3.553  10.115 -0.0257  0.6559 -0.1289
  120OSM    H4F12718  -0.016   3.470  10.173 -0.6018  0.8445 -0.3041
  120OSM    H4G12719   0.113   3.512  10.054  0.4355  1.5861 -0.1427
  120OSM    C5F12720  -0.071   3.602  10.014 -0.2623 -0.3201  0.6713
  120OSM    H5F12721  -0.146   3.663  10.069 -0.3888  0.8325 -0.7140
  120OSM    H5G12722  -0.118   3.509   9.974 -2.5610  1.8143 -2.0111
  120OSM    C6F12723  -0.025   3.683   9.892 -0.0429  0.7243 -0.1697
  120OSM    H6F12724   0.032   3.773   9.924 -3.1138  2.2800  1.3657
  120OSM    H6G12725  -0.114   3.728   9.843  0.6697  0.9664 -1.2912
  120OSM    C7F12726   0.029   3.587   9.784 -0.2563  0.2996 -0.1228
  120OSM    H7F12727  -0.051   3.515   9.758  1.0761 -1.8029  1.2728
  120OSM    H7G12728   0.108   3.520   9.826  0.4164  1.2626  0.1980
  120OSM    C8F12729   0.078   3.664   9.660  0.4044  0.4908 -0.1038
  120OSM    H8F12730   0.144   3.745   9.699 -1.2871  0.5781  2.9169
  120OSM    H8G12731  -0.021   3.706   9.629 -1.0077 -1.5208  1.3781
  120OSM    C9F12732   0.144   3.587   9.543 -0.7913 -0.8012  0.9512
  120OSM    H9F12733   0.193   3.491   9.566  0.5114 -0.4694 -0.2817
  120OSM   C10F12734   0.126   3.622   9.414 -0.7975 -0.0398  0.5199
  120OSM   H10F12735   0.164   3.547   9.343 -0.7327 -0.6659  1.2017
  120OSM   C11F12736   0.051   3.747   9.364  0.1286  0.3849 -0.1977
  120OSM   H11F12737   0.118   3.811   9.303 -0.7791 -0.1731 -1.8354
  120OSM   H11G12738   0.016   3.802   9.454  0.0560  0.7001 -0.4185
  120OSM   C12F12739  -0.073   3.713   9.275  0.3595  0.6232  0.6879
  120OSM   H12F12740  -0.135   3.804   9.263  1.8464  1.9712  2.4881
  120OSM   H12G12741  -0.145   3.665   9.344 -2.0784  2.8939 -0.1025
  120OSM   C13F12742  -0.039   3.638   9.141 -0.3888  0.3150 -0.2058
  120OSM   H13F12743  -0.059   3.528   9.139 -0.0537  0.2651 -1.3453
  120OSM   H13G12744   0.068   3.660   9.121 -0.5182  0.6405 -0.5379
  120OSM   C14F12745  -0.112   3.685   9.020 -0.2743 -0.0528  0.5809
  120OSM   H14F12746  -0.093   3.792   9.001  0.0063 -0.1964  0.0387
  120OSM   H14G12747  -0.221   3.672   9.037 -0.5230  1.6115  0.3838
  120OSM   C15F12748  -0.088   3.604   8.884 -0.0751 -0.1552 -1.0237
  120OSM   H15F12749  -0.177   3.637   8.826 -0.2638  1.2433  0.0122
  120OSM   H15G12750  -0.093   3.497   8.914  1.2391  0.3163  1.0549
  120OSM   C16F12751   0.028   3.626   8.795  0.0872  0.2556  0.4860
  120OSM   H16F12752   0.123   3.600   8.847  0.8118 -1.1221 -1.4202
  120OSM   H16G12753   0.038   3.724   8.744 -0.0477 -0.1565 -0.3413
  120OSM   C17F12754   0.010   3.533   8.674 -0.4427 -0.1279  0.3323
  120OSM   H17F12755  -0.082   3.566   8.621  1.0884 -0.3454 -2.7361
  120OSM   H17G12756  -0.001   3.425   8.695  0.2218 -0.5881 -1.4629
  120OSM   C18F12757   0.112   3.536   8.564 -0.0597 -0.3070  0.6479
  120OSM   H18F12758   0.212   3.492   8.587 -0.5448 -2.6980 -1.3363
  120OSM   H18G12759   0.122   3.641   8.531  0.7440 -0.5353  0.1395
  120OSM   H18H12760   0.076   3.485   8.472 -1.7730  0.4268  0.8713
  121OSM      N12761   3.952   6.355  11.200 -0.1061 -0.6074 -0.8737
  121OSM    C1512762   4.026   6.230  11.199 -0.1881  0.6767  0.0593
  121OSM   H15A12763   4.113   6.238  11.136 -0.9103  0.8240 -0.9456
  121OSM   H15B12764   3.971   6.138  11.185  1.4032 -0.7924  2.6836
  121OSM   H15C12765   4.060   6.206  11.299  0.8261 -2.0247 -0.8405
  121OSM    C1412766   3.813   6.359  11.252 -0.0565  0.4188 -0.3590
  121OSM   H14A12767   3.801   6.313  11.349  1.6854  1.3732  0.3565
  121OSM   H14B12768   3.745   6.325  11.176  2.0324  1.4669 -2.8594
  121OSM   H14C12769   3.770   6.457  11.269 -0.9424 -0.1793  1.0371
  121OSM    C1312770   4.041   6.447  11.278 -0.3327  0.4594 -0.0666
  121OSM   H13A12771   4.133   6.446  11.221  1.3786 -0.7258  2.5574
  121OSM   H13B12772   4.060   6.428  11.382  0.9732  1.7671 -0.0356
  121OSM   H13C12773   4.007   6.549  11.269 -0.9278  0.0751 -4.0712
  121OSM    C1212774   3.944   6.413  11.057 -0.6966  0.2630  0.4777
  121OSM   H12A12775   3.862   6.483  11.052 -0.1741  0.7956 -1.5199
  121OSM   H12B12776   3.920   6.328  10.995  0.3875 -1.2972  2.0681
  121OSM    C1112777   4.069   6.467  10.987 -0.3910 -0.3942  0.0072
  121OSM   H11A12778   4.045   6.482  10.879  2.5112  1.9675 -0.4489
  121OSM   H11B12779   4.148   6.390  10.980 -0.0621  0.1016 -2.7593
  121OSM      P12780   4.261   6.628  11.065 -0.3634 -0.2150 -0.0014
  121OSM    O1312781   4.284   6.766  11.107 -0.0394 -0.3667  0.3299
  121OSM    O1412782   4.324   6.525  11.145  0.2291 -0.6707  0.4367
  121OSM    O1112783   4.311   6.609  10.916 -0.4121  0.3389  0.2132
  121OSM    O1212784   4.107   6.595  11.050  0.4395 -0.1957  0.7399
  121OSM    C1S12785   4.302   6.716  10.818  0.6942 -0.0297  0.3881
  121OSM    H1S12786   4.330   6.814  10.860  0.8689  1.5504 -3.0866
  121OSM    H1T12787   4.207   6.727  10.761  0.4897 -0.4946  0.6329
  121OSM     NF12788   4.421   6.818  10.636 -0.0596 -0.3946  0.6333
  121OSM    HNF12789   4.374   6.824  10.548  0.0299 -3.7683  0.2251
  121OSM    C2S12790   4.404   6.693  10.705 -0.6496 -0.3872  1.0566
  121OSM    H2S12791   4.505   6.678  10.748  0.5178  0.9515 -1.0151
  121OSM    C3S12792   4.375   6.576  10.612  0.2219  0.3665 -0.1893
  121OSM    H3S12793   4.276   6.590  10.563 -0.0277 -0.0222  0.1956
  121OSM     O312794   4.374   6.440  10.664 -0.0871 -0.3374 -0.5536
  121OSM    HO312795   4.392   6.454  10.757  0.9508  0.5571 -0.8706
  121OSM    C4S12796   4.464   6.580  10.487  0.6205  0.1234  0.2446
  121OSM    H4S12797   4.414   6.615  10.395 -0.9893 -1.1488  0.5790
  121OSM    C5S12798   4.586   6.526  10.467  0.2398  0.0577 -0.8538
  121OSM    H5S12799   4.631   6.472  10.551 -0.1476 -0.5183 -1.0113
  121OSM    C6S12800   4.668   6.520  10.339 -0.1538 -0.1233  0.1350
  121OSM    H6S12801   4.750   6.596  10.338  0.1161 -0.3960  1.0909
  121OSM    H6T12802   4.603   6.539  10.251  1.4224  0.1746 -1.0088
  121OSM    C7S12803   4.715   6.380  10.313 -0.1776  0.2395  0.1893
  121OSM    H7S12804   4.635   6.303  10.317  0.3985 -0.8281 -3.9682
  121OSM    H7T12805   4.782   6.348  10.396  2.0295  0.6319 -1.3288
  121OSM    C8S12806   4.804   6.362  10.185 -0.4840 -0.1287  0.0147
  121OSM    H8S12807   4.830   6.256  10.162  1.2804  0.6724 -2.0040
  121OSM    H8T12808   4.894   6.425  10.196 -0.3383 -0.1318 -1.0781
  121OSM    C9S12809   4.735   6.407  10.048 -0.3350 -0.0290 -0.4941
  121OSM    H9S12810   4.813   6.397   9.970  0.3585 -0.9378  0.2808
  121OSM    H9T12811   4.718   6.516  10.041  1.0662  0.1014 -2.8341
  121OSM   C10S12812   4.604   6.332  10.022  0.1146  0.3493  0.4280
  121OSM   H10S12813   4.533   6.357  10.103 -1.0860 -1.2592 -0.0760
  121OSM   H10T12814   4.625   6.223  10.022  0.9729  0.4608 -1.7534
  121OSM   C11S12815   4.544   6.364   9.880  0.6984 -0.8053  0.0647
  121OSM   H11S12816   4.482   6.456   9.889  1.3958 -0.1289 -1.6316
  121OSM   H11T12817   4.469   6.283   9.865 -1.4644  0.8538  1.1752
  121OSM   C12S12818   4.652   6.384   9.773  0.7416  0.5721  0.0482
  121OSM   H12S12819   4.732   6.309   9.791  1.4875  1.5397  0.8447
  121OSM   H12T12820   4.700   6.484   9.772  0.9663  0.4743  0.6507
  121OSM   C13S12821   4.596   6.360   9.630 -0.1909  0.3750  0.2244
  121OSM   H13S12822   4.517   6.434   9.603 -0.1453  0.6640  0.8543
  121OSM   H13T12823   4.554   6.258   9.614  2.3473 -0.6991 -0.0423
  121OSM   C14S12824   4.705   6.400   9.530 -0.4611  0.6170  0.2028
  121OSM   H14S12825   4.798   6.349   9.565 -0.1654  1.9481  1.4684
  121OSM   H14T12826   4.721   6.508   9.552 -0.0978  0.1280  2.7381
  121OSM   C15S12827   4.668   6.378   9.387 -0.0354  0.4724  0.6368
  121OSM   H15S12828   4.562   6.408   9.374 -0.3732 -1.3332 -1.4756
  121OSM   H15T12829   4.683   6.275   9.348 -0.0137 -0.3040  2.6064
  121OSM   C16S12830   4.753   6.465   9.301 -0.6712  0.0869 -0.0976
  121OSM   H16S12831   4.847   6.411   9.276 -0.5580 -0.3656  1.2163
  121OSM   H16T12832   4.773   6.557   9.361  0.3614 -1.1133  1.4991
  121OSM   C17S12833   4.700   6.497   9.170 -0.6077 -0.3860 -0.1322
  121OSM   H17S12834   4.779   6.567   9.135  2.0438 -2.9250  0.4222
  121OSM   H17T12835   4.612   6.564   9.181  0.9359  2.0533 -1.6520
  121OSM   C18S12836   4.678   6.375   9.082 -0.1025 -0.6644  0.2892
  121OSM   H18S12837   4.683   6.418   8.980  3.5058  2.7395  1.6285
  121OSM   H18T12838   4.582   6.322   9.099 -0.4819 -0.0762 -0.0169
  121OSM   H18U12839   4.764   6.304   9.090  1.4081  0.9481 -0.8409
  121OSM    C1F12840   4.477   6.925  10.691  0.2714 -0.2346 -0.3970
  121OSM     OF12841   4.533   6.909  10.799  0.2687  0.5084 -0.3791
  121OSM    C2F12842   4.448   7.058  10.630  0.3546 -0.2216 -0.6801
  121OSM    H2F12843   4.461   7.146  10.696 -0.8163  0.1551 -0.9262
  121OSM    H2G12844   4.344   7.057  10.592 -0.5470  3.2677  1.3108
  121OSM    C3F12845   4.547   7.063  10.507 -0.1169  0.2122 -0.2813
  121OSM    H3F12846   4.519   6.987  10.431 -0.2754 -2.0733  1.9253
  121OSM    H3G12847   4.653   7.047  10.538 -0.7415  0.2900  2.0052
  121OSM    C4F12848   4.540   7.203  10.442  0.6224  0.1153  0.1979
  121OSM    H4F12849   4.604   7.222  10.354 -1.2986  0.9045 -1.0978
  121OSM    H4G12850   4.588   7.270  10.517  2.0175  1.4474 -1.7722
  121OSM    C5F12851   4.396   7.247  10.391 -0.3398 -0.5627  0.5855
  121OSM    H5F12852   4.369   7.316  10.474 -0.3668  1.4265 -1.0090
  121OSM    H5G12853   4.339   7.151  10.389  0.7177 -1.2082  0.5490
  121OSM    C6F12854   4.397   7.305  10.252  0.4217  0.0037  0.0637
  121OSM    H6F12855   4.450   7.234  10.185 -2.2000 -0.2409 -1.9463
  121OSM    H6G12856   4.456   7.398  10.259  0.0975  0.1441  0.9903
  121OSM    C7F12857   4.256   7.340  10.197  0.7057  0.2911 -0.3034
  121OSM    H7F12858   4.202   7.376  10.287  0.5968 -0.4386 -0.0719
  121OSM    H7G12859   4.194   7.251  10.174  1.5085 -0.1313 -0.8479
  121OSM    C8F12860   4.241   7.443  10.084 -0.6481 -0.1553 -0.5051
  121OSM    H8F12861   4.301   7.410   9.997 -0.5284  0.1150 -0.5262
  121OSM    H8G12862   4.291   7.538  10.114  0.6828  0.0071 -3.0405
  121OSM    C9F12863   4.099   7.475  10.050 -0.3498  0.9072  0.2212
  121OSM    H9F12864   4.043   7.523  10.132  0.4262  1.1640  0.6116
  121OSM   C10F12865   4.043   7.461   9.931 -0.0656  0.3101  0.5017
  121OSM   H10F12866   3.936   7.489   9.929 -0.3448  0.0470  4.3576
  121OSM   C11F12867   4.103   7.391   9.809 -0.1288 -0.4858  0.1434
  121OSM   H11F12868   4.058   7.289   9.802  1.0310 -1.0403  0.4527
  121OSM   H11G12869   4.214   7.380   9.816  0.1572  0.6451 -1.8894
  121OSM   C12F12870   4.077   7.461   9.673  0.0401 -0.3443 -0.1791
  121OSM   H12F12871   4.106   7.567   9.686  0.0427 -0.2670 -0.7692
  121OSM   H12G12872   3.968   7.463   9.653 -0.1242  1.8099  0.6994
  121OSM   C13F12873   4.160   7.389   9.567  0.4874  0.3311  0.1501
  121OSM   H13F12874   4.152   7.278   9.563  2.6251  0.1173  0.5816
  121OSM   H13G12875   4.260   7.411   9.610  0.1200  0.1664  1.1246
  121OSM   C14F12876   4.145   7.443   9.433  0.4147 -0.2353 -0.2194
  121OSM   H14F12877   4.167   7.551   9.445 -0.7916 -0.0477  0.4126
  121OSM   H14G12878   4.041   7.432   9.397 -0.2266  0.7664  1.2663
  121OSM   C15F12879   4.233   7.391   9.316 -0.5370  0.0722 -0.0986
  121OSM   H15F12880   4.215   7.283   9.297  1.2841 -0.2991  0.1128
  121OSM   H15G12881   4.341   7.397   9.341  0.3724 -0.8348 -3.3616
  121OSM   C16F12882   4.206   7.468   9.181  0.7961  0.0546 -0.0115
  121OSM   H16F12883   4.263   7.563   9.183  2.8417 -1.1049 -0.0965
  121OSM   H16G12884   4.099   7.496   9.181  0.0850 -2.0402 -3.4115
  121OSM   C17F12885   4.239   7.389   9.055  0.0989  0.2771 -0.7906
  121OSM   H17F12886   4.197   7.286   9.066 -0.7834  0.8051  1.2562
  121OSM   H17G12887   4.350   7.379   9.050  0.0516 -0.7353 -0.1246
  121OSM   C18F12888   4.187   7.453   8.926  0.7784  0.9306  0.3810
  121OSM   H18F12889   4.215   7.381   8.846 -2.3668  0.1478 -0.1500
  121OSM   H18G12890   4.239   7.549   8.906 -1.1650  2.3654  1.7884
  121OSM   H18H12891   4.077   7.457   8.943  0.8106 -3.5611  3.6215
  122OSM      N12892   6.472   6.269  11.269 -0.1631  0.1165 -0.5486
  122OSM    C1512893   6.485   6.148  11.361 -0.2357  0.3717  0.2275
  122OSM   H15A12894   6.562   6.086  11.317  0.4404  1.1120  0.3481
  122OSM   H15B12895   6.392   6.096  11.377  0.1853 -1.5664 -2.8261
  122OSM   H15C12896   6.507   6.179  11.462  0.4915  0.3292  0.0855
  122OSM    C1412897   6.346   6.349  11.299 -0.8337 -0.0286 -0.8716
  122OSM   H14A12898   6.253   6.297  11.284 -1.4840  1.1191 -0.9916
  122OSM   H14B12899   6.331   6.427  11.225 -2.2712 -0.1481 -0.7220
  122OSM   H14C12900   6.336   6.388  11.400 -2.0933  1.0234 -1.3745
  122OSM    C1312901   6.597   6.348  11.298  0.2718  0.0365  0.0479
  122OSM   H13A12902   6.600   6.432  11.229 -1.1141  2.3983  2.6432
  122OSM   H13B12903   6.692   6.298  11.289  0.3584  0.1829  0.1365
  122OSM   H13C12904   6.606   6.396  11.394  1.9187  0.8735 -0.4777
  122OSM    C1212905   6.467   6.208  11.125 -0.2090  0.3432  0.2532
  122OSM   H12A12906   6.393   6.129  11.129 -0.1772  0.3270  0.5434
  122OSM   H12B12907   6.565   6.166  11.110  0.2122  1.2162  0.4775
  122OSM    C1112908   6.450   6.313  11.011 -0.1113  0.3929  0.0021
  122OSM   H11A12909   6.354   6.363  11.036 -0.2955 -1.5531  4.0421
  122OSM   H11B12910   6.428   6.252  10.921 -0.3563  0.1280  0.2400
  122OSM      P12911   6.692   6.373  10.927  0.4806 -0.0181  0.2975
  122OSM    O1312912   6.746   6.505  10.896  0.0987 -0.6520  0.1517
  122OSM    O1412913   6.772   6.280  11.016 -0.2314  0.0529  0.1743
  122OSM    O1112914   6.657   6.298  10.793  0.0299 -0.0236  0.2862
  122OSM    O1212915   6.559   6.403  11.000 -0.1937 -0.3393 -0.0236
  122OSM    C1S12916   6.558   6.341  10.696  0.1641 -0.1486 -0.1216
  122OSM    H1S12917   6.592   6.438  10.655  1.9550  0.4647  2.5839
  122OSM    H1T12918   6.461   6.361  10.748 -0.2174 -0.0122 -0.8627
  122OSM     NF12919   6.442   6.290  10.477 -0.6023  0.0350 -0.2821
  122OSM    HNF12920   6.344   6.285  10.490 -0.7032  0.0142 -0.9792
  122OSM    C2S12921   6.528   6.236  10.582 -0.1403 -0.7923 -0.2508
  122OSM    H2S12922   6.622   6.213  10.528  0.4571 -1.0405  0.8509
  122OSM    C3S12923   6.473   6.111  10.650  0.0264 -0.1090 -0.9149
  122OSM    H3S12924   6.382   6.135  10.708  1.8410  2.4016  1.1255
  122OSM     O312925   6.560   6.047  10.744 -0.1869 -0.2639  0.0660
  122OSM    HO312926   6.621   6.118  10.766 -0.0985 -0.3634  0.1467
  122OSM    C4S12927   6.451   6.012  10.546  0.3119  0.4814  0.8532
  122OSM    H4S12928   6.542   5.955  10.520 -0.9022 -1.0476 -0.1873
  122OSM    C5S12929   6.338   5.982  10.477  0.3053 -0.1633  0.0897
  122OSM    H5S12930   6.250   6.044  10.497 -0.9873 -1.3529 -1.5849
  122OSM    C6S12931   6.328   5.868  10.375  0.5695 -0.8038  0.0935
  122OSM    H6S12932   6.231   5.818  10.394 -0.2224 -0.6913 -3.0136
  122OSM    H6T12933   6.413   5.797  10.371 -1.7911 -3.7696 -2.0696
  122OSM    C7S12934   6.332   5.933  10.237 -0.1631 -0.6192 -0.4722
  122OSM    H7S12935   6.376   6.035  10.233  2.7906 -1.8047 -1.2502
  122OSM    H7T12936   6.231   5.930  10.192 -0.3730 -3.4995  0.0437
  122OSM    C8S12937   6.405   5.842  10.133 -0.7251 -0.2259  0.3002
  122OSM    H8S12938   6.358   5.742  10.144 -0.1460 -0.3301  2.2297
  122OSM    H8T12939   6.508   5.822  10.169  0.2682  0.4020 -1.9745
  122OSM    C9S12940   6.412   5.905   9.991 -0.3473 -0.3215 -0.6226
  122OSM    H9S12941   6.498   5.869   9.931  2.1027  4.0205 -0.1523
  122OSM    H9T12942   6.425   6.015   9.999  2.3716 -0.6505  0.6878
  122OSM   C10S12943   6.280   5.861   9.922  0.5335 -0.0633  0.1097
  122OSM   H10S12944   6.198   5.913   9.975 -1.2610 -0.0478 -2.5146
  122OSM   H10T12945   6.266   5.751   9.929 -2.7871  0.2601  0.2183
  122OSM   C11S12946   6.281   5.900   9.773  0.5800 -0.6004  0.4646
  122OSM   H11S12947   6.301   6.009   9.764  1.0089 -0.8431 -2.1271
  122OSM   H11T12948   6.178   5.887   9.733  0.7533 -0.8233  0.0867
  122OSM   C12S12949   6.381   5.819   9.687 -0.7052  0.9403 -0.0438
  122OSM   H12S12950   6.358   5.712   9.701  0.8323  0.6605  0.5277
  122OSM   H12T12951   6.489   5.836   9.709 -0.7640 -0.6398  1.6672
  122OSM   C13S12952   6.351   5.846   9.539 -0.4314 -0.2565 -0.1792
  122OSM   H13S12953   6.329   5.954   9.521  0.1212 -0.3564 -1.6237
  122OSM   H13T12954   6.251   5.806   9.514 -1.3382  2.3144 -1.0412
  122OSM   C14S12955   6.472   5.811   9.450 -0.4788  0.8552 -0.1385
  122OSM   H14S12956   6.494   5.703   9.469 -1.9267  0.1907 -2.0033
  122OSM   H14T12957   6.565   5.862   9.485  1.0946 -0.4815 -2.1411
  122OSM   C15S12958   6.443   5.836   9.303  0.8318  0.5518  0.7903
  122OSM   H15S12959   6.443   5.946   9.290 -0.0761  0.4055 -0.5912
  122OSM   H15T12960   6.344   5.791   9.279  1.5275 -0.7882  0.3188
  122OSM   C16S12961   6.553   5.764   9.220  0.3564 -0.4545  0.4838
  122OSM   H16S12962   6.552   5.653   9.230 -0.9795 -0.3439  1.9045
  122OSM   H16T12963   6.655   5.798   9.248  0.2184  0.4191 -0.0322
  122OSM   C17S12964   6.553   5.785   9.069 -0.4899  0.5101  0.1934
  122OSM   H17S12965   6.649   5.760   9.021 -0.4976  1.2686 -0.2298
  122OSM   H17T12966   6.553   5.895   9.050  0.3063  0.3734 -0.6747
  122OSM   C18S12967   6.426   5.732   9.003  0.6020 -0.3197 -0.1249
  122OSM   H18S12968   6.433   5.743   8.893  1.6133  3.2121  0.1580
  122OSM   H18T12969   6.342   5.791   9.044  0.6612 -0.9320  0.9370
  122OSM   H18U12970   6.420   5.623   9.023 -1.0001 -0.1462  0.4963
  122OSM    C1F12971   6.479   6.377  10.388  0.0043  0.5808 -0.6888
  122OSM     OF12972   6.598   6.403  10.371 -0.0415  0.2508  0.0421
  122OSM    C2F12973   6.366   6.448  10.325  0.7980 -1.0220 -0.1550
  122OSM    H2F12974   6.400   6.525  10.253 -1.1592  1.8239  1.7557
  122OSM    H2G12975   6.305   6.494  10.406  1.0452  0.7415 -0.9303
  122OSM    C3F12976   6.265   6.360  10.245  0.1453 -0.0310  0.2294
  122OSM    H3F12977   6.173   6.422  10.242  1.5138  2.0891  0.2175
  122OSM    H3G12978   6.247   6.272  10.311  1.4811 -0.1475  0.4587
  122OSM    C4F12979   6.323   6.292  10.119  0.2574 -0.0436 -0.5010
  122OSM    H4F12980   6.260   6.203  10.096 -1.1092  0.7681 -0.0072
  122OSM    H4G12981   6.425   6.249  10.131  0.7507  0.8517 -1.3937
  122OSM    C5F12982   6.328   6.388   9.993  0.3554 -0.4595 -0.3489
  122OSM    H5F12983   6.388   6.328   9.923  4.3416 -0.7434  2.9127
  122OSM    H5G12984   6.391   6.479  10.004 -0.1564 -0.3461  2.8851
  122OSM    C6F12985   6.200   6.444   9.942 -0.1997  0.1358  0.2318
  122OSM    H6F12986   6.162   6.530  10.001 -2.1378  0.6940 -1.7257
  122OSM    H6G12987   6.127   6.362   9.958 -0.0970  0.4074  2.4270
  122OSM    C7F12988   6.214   6.502   9.794 -0.0177  0.0760 -0.0512
  122OSM    H7F12989   6.252   6.606   9.806 -1.1513  1.0754 -3.7869
  122OSM    H7G12990   6.112   6.523   9.757  0.2522  1.4793 -0.0529
  122OSM    C8F12991   6.281   6.422   9.688  0.3578  0.2130  0.6926
  122OSM    H8F12992   6.381   6.390   9.726 -0.4920 -2.7354  0.7036
  122OSM    H8G12993   6.293   6.476   9.591  0.4731 -0.8316  0.1115
  122OSM    C9F12994   6.214   6.293   9.660 -0.3965  0.6233 -0.1158
  122OSM    H9F12995   6.187   6.243   9.755  0.5719  3.5454  1.8467
  122OSM   C10F12996   6.167   6.246   9.540  0.2606 -0.4936 -0.1249
  122OSM   H10F12997   6.131   6.142   9.540 -0.6344 -0.1943  0.5271
  122OSM   C11F12998   6.171   6.310   9.406 -0.4616 -0.2088 -0.5144
  122OSM   H11F12999   6.224   6.238   9.340  0.9847  0.9392 -0.6517
  122OSM   H11G13000   6.226   6.406   9.414  0.1432 -0.5543 -0.4385
  122OSM   C12F13001   6.033   6.339   9.349  0.1254  0.1510  0.2194
  122OSM   H12F13002   5.997   6.429   9.403 -1.1197 -1.0043  1.3864
  122OSM   H12G13003   5.969   6.249   9.355 -1.8860  1.4294 -0.7604
  122OSM   C13F13004   6.037   6.377   9.201 -0.5445  0.2329 -0.4996
  122OSM   H13F13005   6.075   6.287   9.148 -1.2891 -0.8791  0.7971
  122OSM   H13G13006   6.116   6.452   9.183 -0.6154  0.2209 -0.8853
  122OSM   C14F13007   5.908   6.418   9.139  0.0046 -0.0421  0.0704
  122OSM   H14F13008   5.877   6.521   9.167  0.0963 -0.0033  0.0286
  122OSM   H14G13009   5.839   6.341   9.181 -0.2468  1.3306  2.3442
  122OSM   C15F13010   5.927   6.403   8.984  0.3104 -0.2373 -0.2718
  122OSM   H15F13011   5.956   6.298   8.962  1.7381 -0.5213  2.5513
  122OSM   H15G13012   6.007   6.476   8.958  0.9224 -0.3405  1.2338
  122OSM   C16F13013   5.797   6.431   8.904  0.5446  0.1822  0.3994
  122OSM   H16F13014   5.767   6.536   8.925  2.5837  1.1549 -1.1522
  122OSM   H16G13015   5.715   6.362   8.930  1.5008 -1.6159 -1.1386
  122OSM   C17F13016   5.803   6.425   8.751  0.1843  0.4477 -0.3291
  122OSM   H17F13017   5.840   6.526   8.724 -2.7162  1.6672 -0.0730
  122OSM   H17G13018   5.696   6.417   8.720  0.0524 -0.5873  0.3433
  122OSM   C18F13019   5.885   6.313   8.690  0.0241  0.1200  0.1995
  122OSM   H18F13020   5.984   6.307   8.739  0.9631  0.8239 -1.5162
  122OSM   H18G13021   5.895   6.326   8.580 -1.7591  0.1476 -0.0002
  122OSM   H18H13022   5.830   6.218   8.711 -0.1280  0.1993  0.1596
  123OSM      N13023   3.988   4.735   6.072  0.4413  0.3894 -0.0443
  123OSM    C1513024   3.965   4.611   5.992  0.4801 -0.9218 -0.4997
  123OSM   H15A13025   4.057   4.556   5.979 -0.2316 -2.1273 -0.6230
  123OSM   H15B13026   3.918   4.639   5.899 -1.5075  0.2272  0.7952
  123OSM   H15C13027   3.891   4.561   6.052 -0.4702  0.8287 -0.1448
  123OSM    C1413028   4.077   4.823   5.996 -0.8236 -0.1944  0.9689
  123OSM   H14A13029   4.033   4.842   5.899  0.2994 -2.7065 -0.1266
  123OSM   H14B13030   4.173   4.775   5.984 -1.2530 -0.5257 -1.7447
  123OSM   H14C13031   4.097   4.919   6.041  0.0360 -0.0263  0.2629
  123OSM    C1313032   3.867   4.818   6.094 -0.4596  0.6812 -0.0959
  123OSM   H13A13033   3.797   4.826   6.012  0.5448 -2.3126 -1.4094
  123OSM   H13B13034   3.893   4.921   6.116 -0.6707  0.5886  0.6038
  123OSM   H13C13035   3.811   4.786   6.181 -1.2451 -0.8270 -1.1072
  123OSM    C1213036   4.049   4.700   6.212  0.4928  0.4197 -0.0113
  123OSM   H12A13037   3.966   4.672   6.276 -1.1393  0.8019 -1.8618
  123OSM   H12B13038   4.085   4.796   6.246  0.6973 -0.7273  3.4025
  123OSM    C1113039   4.165   4.602   6.216  0.2429 -0.3806 -0.1421
  123OSM   H11A13040   4.126   4.505   6.181  1.4052 -0.6591 -0.7206
  123OSM   H11B13041   4.187   4.594   6.325 -2.2267  1.1650  0.5468
  123OSM      P13042   4.382   4.550   6.075 -0.3942  0.1297 -0.3250
  123OSM    O1313043   4.308   4.511   5.952 -0.0114 -0.3707  0.3721
  123OSM    O1413044   4.510   4.621   6.051 -0.4162  0.1410  0.5357
  123OSM    O1113045   4.404   4.428   6.179 -0.0348 -0.4155 -0.2154
  123OSM    O1213046   4.287   4.656   6.152  0.4694  0.5608 -0.4446
  123OSM    C1S13047   4.472   4.443   6.303 -0.0499 -0.0159 -0.1414
  123OSM    H1S13048   4.460   4.545   6.346 -1.6638 -0.5990  0.8560
  123OSM    H1T13049   4.578   4.440   6.269 -0.6570 -0.2915 -2.1233
  123OSM     NF13050   4.508   4.361   6.534 -0.1810  0.7726 -0.5108
  123OSM    HNF13051   4.589   4.309   6.562  0.3336  0.8162 -1.8765
  123OSM    C2S13052   4.446   4.332   6.408  0.2162 -0.1114  0.2630
  123OSM    H2S13053   4.337   4.324   6.425 -0.0988  1.5301 -0.8008
  123OSM    C3S13054   4.496   4.194   6.345  0.1168 -0.3646 -0.4423
  123OSM    H3S13055   4.607   4.193   6.341  0.0852 -0.4342 -1.7968
  123OSM     O313056   4.443   4.176   6.209 -0.0663 -0.3666  0.1982
  123OSM    HO313057   4.417   4.267   6.190  1.3407 -0.4797 -2.8685
  123OSM    C4S13058   4.453   4.079   6.433  0.1417 -0.1081 -0.0146
  123OSM    H4S13059   4.346   4.081   6.459 -0.0863 -1.7324 -0.6718
  123OSM    C5S13060   4.536   3.983   6.476 -0.0187 -0.2103 -0.5242
  123OSM    H5S13061   4.638   3.981   6.435 -0.1680 -1.3737 -0.8958
  123OSM    C6S13062   4.506   3.866   6.564 -0.3215 -0.0831  0.0200
  123OSM    H6S13063   4.568   3.776   6.545 -0.6261  0.1491 -2.4550
  123OSM    H6T13064   4.401   3.834   6.548  0.4092 -2.3208 -0.6142
  123OSM    C7S13065   4.523   3.902   6.713 -0.3889 -0.4167 -0.1470
  123OSM    H7S13066   4.615   3.962   6.728  0.1657 -1.1801 -0.4734
  123OSM    H7T13067   4.522   3.807   6.770  1.8329 -0.4696 -0.1146
  123OSM    C8S13068   4.414   3.990   6.768 -0.1571  0.5645 -0.2359
  123OSM    H8S13069   4.315   3.941   6.755 -1.5008  3.4794 -2.1474
  123OSM    H8T13070   4.405   4.085   6.711 -1.0571  1.3493  1.1414
  123OSM    C9S13071   4.435   4.036   6.915  0.2115  0.0172  0.1691
  123OSM    H9S13072   4.342   4.093   6.938  0.3694  1.2515 -1.9540
  123OSM    H9T13073   4.525   4.101   6.921  1.9391 -2.4035  1.7240
  123OSM   C10S13074   4.448   3.914   7.007  0.4259  0.6432  0.3676
  123OSM   H10S13075   4.534   3.848   6.985  1.0319  1.5062  0.0981
  123OSM   H10T13076   4.356   3.851   7.010  0.1480  1.0643  0.8827
  123OSM   C11S13077   4.479   3.964   7.148 -0.7971  0.7669  0.3624
  123OSM   H11S13078   4.413   4.053   7.160  0.2272  1.7486 -1.0118
  123OSM   H11T13079   4.585   3.997   7.146 -0.9270  1.1433 -0.4440
  123OSM   C12S13080   4.479   3.852   7.260  0.3765  0.5971 -0.1397
  123OSM   H12S13081   4.544   3.767   7.231 -1.2565  0.5107 -4.2602
  123OSM   H12T13082   4.374   3.818   7.270  0.1431  0.7919 -1.6353
  123OSM   C13S13083   4.500   3.912   7.401  0.5920  0.1510  0.7569
  123OSM   H13S13084   4.417   3.980   7.431 -0.8975 -0.8071 -0.9726
  123OSM   H13T13085   4.600   3.959   7.408  0.5923  0.0741  1.3577
  123OSM   C14S13086   4.494   3.807   7.509 -0.3066  0.3024 -0.0665
  123OSM   H14S13087   4.565   3.725   7.489 -1.1876 -1.0639  2.0824
  123OSM   H14T13088   4.392   3.761   7.508 -0.3491  0.4004 -0.3563
  123OSM   C15S13089   4.516   3.879   7.636  0.5914 -0.3079  0.1422
  123OSM   H15S13090   4.462   3.975   7.646  1.9770  0.5877 -0.6382
  123OSM   H15T13091   4.619   3.918   7.623 -0.1359  1.3705 -0.9958
  123OSM   C16S13092   4.513   3.792   7.762  0.3315 -0.3239 -0.2816
  123OSM   H16S13093   4.551   3.694   7.726 -0.7867 -0.3839 -1.3351
  123OSM   H16T13094   4.410   3.778   7.799  0.7094  0.7819  1.2608
  123OSM   C17S13095   4.598   3.850   7.875 -0.3844 -0.0866  0.2098
  123OSM   H17S13096   4.551   3.873   7.972 -1.6202 -0.0560 -0.3844
  123OSM   H17T13097   4.625   3.951   7.834 -1.1577  0.6802  1.5487
  123OSM   C18S13098   4.725   3.774   7.885  0.2081 -0.1675  0.2383
  123OSM   H18S13099   4.795   3.806   7.965  2.0773  0.0866 -1.4136
  123OSM   H18T13100   4.781   3.783   7.790  0.4590 -0.0408  0.3955
  123OSM   H18U13101   4.701   3.668   7.911 -0.5737  0.2264  1.1859
  123OSM    C1F13102   4.455   4.455   6.619  0.7469 -0.3402  0.1853
  123OSM     OF13103   4.344   4.500   6.593 -0.3032 -0.2086 -0.2669
  123OSM    C2F13104   4.533   4.511   6.735  0.2449 -0.4060 -0.2219
  123OSM    H2F13105   4.578   4.610   6.711  0.3761  0.1181  1.9692
  123OSM    H2G13106   4.619   4.441   6.742  1.4974  1.0152 -0.9191
  123OSM    C3F13107   4.450   4.539   6.866  0.4784  0.4823 -0.5312
  123OSM    H3F13108   4.365   4.609   6.850 -0.3208 -0.5189 -0.8592
  123OSM    H3G13109   4.513   4.580   6.947 -0.3889 -0.3960  0.6185
  123OSM    C4F13110   4.379   4.410   6.918  0.4311  0.1267 -0.6437
  123OSM    H4F13111   4.446   4.323   6.933 -0.4391 -0.6370 -1.1209
  123OSM    H4G13112   4.304   4.385   6.841 -0.5097 -0.6320  0.4882
  123OSM    C5F13113   4.309   4.440   7.055 -0.7236 -0.6152  0.2234
  123OSM    H5F13114   4.240   4.355   7.073  1.4858 -2.4717  0.4849
  123OSM    H5G13115   4.258   4.538   7.040 -0.5685 -0.5778 -0.0607
  123OSM    C6F13116   4.402   4.446   7.173 -0.0456 -0.0186  0.3630
  123OSM    H6F13117   4.470   4.533   7.166 -0.5634  0.2870 -1.5943
  123OSM    H6G13118   4.461   4.352   7.178 -1.8656 -1.6099 -3.4429
  123OSM    C7F13119   4.333   4.474   7.304 -0.3681  0.0550 -0.3875
  123OSM    H7F13120   4.251   4.401   7.313  0.4664 -0.9959 -1.0213
  123OSM    H7G13121   4.280   4.571   7.296 -2.2744 -0.9228 -0.2282
  123OSM    C8F13122   4.439   4.477   7.419  0.0958  1.0026  0.2353
  123OSM    H8F13123   4.523   4.549   7.402 -1.1336  2.4651  0.1808
  123OSM    H8G13124   4.482   4.376   7.403  0.2413  1.3850 -2.2927
  123OSM    C9F13125   4.374   4.516   7.550 -0.1089  1.0637  0.0563
  123OSM    H9F13126   4.289   4.450   7.574  0.6489  0.1623  0.3453
  123OSM   C10F13127   4.389   4.626   7.625  0.6738 -0.1023  0.1140
  123OSM   H10F13128   4.332   4.630   7.719  0.7392  1.5685  0.1088
  123OSM   C11F13129   4.482   4.736   7.592 -0.1314 -0.1132  0.2319
  123OSM   H11F13130   4.436   4.805   7.519  0.7425  0.3658  0.1222
  123OSM   H11G13131   4.582   4.704   7.555  0.4445 -1.2432  2.5556
  123OSM   C12F13132   4.535   4.835   7.704  0.7014  0.4657  0.0246
  123OSM   H12F13133   4.447   4.885   7.750 -0.1981 -1.6810  0.7840
  123OSM   H12G13134   4.595   4.905   7.643 -0.5260  0.7507 -0.8768
  123OSM   C13F13135   4.631   4.774   7.809 -0.7657 -0.1334  0.4425
  123OSM   H13F13136   4.701   4.709   7.753 -0.8225 -1.0118  1.3639
  123OSM   H13G13137   4.577   4.691   7.860 -0.3963 -1.4244 -1.1632
  123OSM   C14F13138   4.688   4.867   7.917 -0.2436 -0.6684  0.4650
  123OSM   H14F13139   4.621   4.952   7.939  1.5789  1.1476 -0.6765
  123OSM   H14G13140   4.780   4.916   7.879 -0.7114  0.8183  1.1996
  123OSM   C15F13141   4.726   4.791   8.050  0.6578 -0.1809  0.9723
  123OSM   H15F13142   4.636   4.749   8.100 -1.3012  2.1196 -0.3549
  123OSM   H15G13143   4.770   4.858   8.127  0.2356 -0.4246  1.4349
  123OSM   C16F13144   4.835   4.678   8.034  0.8931 -0.7324 -0.1015
  123OSM   H16F13145   4.922   4.724   7.983 -0.3844  2.3594  0.2693
  123OSM   H16G13146   4.795   4.602   7.963 -0.6779 -0.8061  0.8055
  123OSM   C17F13147   4.882   4.605   8.165  0.2020 -0.4573  0.8293
  123OSM   H17F13148   4.822   4.511   8.164  0.3134 -0.5612  2.1709
  123OSM   H17G13149   4.861   4.666   8.256  2.6404  3.7956 -1.1565
  123OSM   C18F13150   5.032   4.577   8.162  0.1466 -0.5320  0.4907
  123OSM   H18F13151   5.057   4.520   8.254 -1.1673 -1.8953  0.0464
  123OSM   H18G13152   5.072   4.681   8.156 -2.5930  0.6139  0.6214
  123OSM   H18H13153   5.058   4.511   8.077  0.4454 -1.1228  1.0265
  124OSM      N13154   5.420   1.211   6.279 -0.3167  0.6615 -0.9519
  124OSM    C1513155   5.323   1.317   6.254  1.3287 -0.8825 -0.1337
  124OSM   H15A13156   5.335   1.376   6.164  0.0601  0.5326  0.5718
  124OSM   H15B13157   5.329   1.386   6.336  1.2933 -0.4794 -0.4644
  124OSM   H15C13158   5.220   1.283   6.254  1.4642 -1.3033 -0.3815
  124OSM    C1413159   5.364   1.132   6.395 -0.6867  0.3195  0.6788
  124OSM   H14A13160   5.264   1.104   6.367 -0.2023 -1.8464  0.9650
  124OSM   H14B13161   5.370   1.176   6.493  1.2043  0.5648  0.4991
  124OSM   H14C13162   5.414   1.036   6.389 -0.4469  0.3799  1.5624
  124OSM    C1313163   5.424   1.110   6.160  0.0629 -0.5457  0.7121
  124OSM   H13A13164   5.479   1.161   6.082  1.5042  0.5199  2.3445
  124OSM   H13B13165   5.327   1.069   6.137 -1.2140  1.6936  1.7798
  124OSM   H13C13166   5.488   1.026   6.181  1.0213  0.2010  0.8867
  124OSM    C1213167   5.564   1.257   6.304 -0.3772 -0.1072 -0.0057
  124OSM   H12A13168   5.636   1.178   6.309  0.9427  1.0591  0.1058
  124OSM   H12B13169   5.581   1.305   6.400  3.2943  2.6040 -1.7925
  124OSM    C1113170   5.617   1.355   6.203  0.2557  0.1534 -0.2500
  124OSM   H11A13171   5.566   1.451   6.225  1.7841  1.1605 -0.9349
  124OSM   H11B13172   5.592   1.322   6.100 -0.4917  1.0271 -0.3653
  124OSM      P13173   5.827   1.504   6.211 -0.1398 -0.2086 -0.3927
  124OSM    O1313174   5.972   1.498   6.239  0.4151  0.0782  0.1915
  124OSM    O1413175   5.796   1.556   6.078  0.1953 -1.2675  0.6894
  124OSM    O1113176   5.762   1.593   6.324  0.2550 -0.1159  0.1076
  124OSM    O1213177   5.762   1.363   6.225  0.3378 -0.3334 -0.7757
  124OSM    C1S13178   5.785   1.541   6.456 -0.0882 -0.8242  0.8127
  124OSM    H1S13179   5.890   1.566   6.484  0.0334 -2.2658  1.7274
  124OSM    H1T13180   5.785   1.430   6.461 -1.3847 -0.7907  2.7026
  124OSM     NF13181   5.725   1.535   6.697  0.3404 -0.1152  0.1527
  124OSM    HNF13182   5.663   1.468   6.738 -0.6652  0.3680 -0.5569
  124OSM    C2S13183   5.689   1.591   6.570  0.2013  1.1404  0.2350
  124OSM    H2S13184   5.703   1.700   6.583 -1.6293  1.1362  2.9939
  124OSM    C3S13185   5.540   1.554   6.535  0.1883  0.4128 -0.4841
  124OSM    H3S13186   5.520   1.444   6.538 -1.0874  0.6341 -0.4852
  124OSM     O313187   5.503   1.596   6.407 -0.2876 -0.3842 -0.5843
  124OSM    HO313188   5.591   1.604   6.371  1.4190 -1.8630  2.8105
  124OSM    C4S13189   5.435   1.606   6.638 -0.5821 -0.4912 -0.1887
  124OSM    H4S13190   5.434   1.553   6.734  2.5652  1.0465  0.8421
  124OSM    C5S13191   5.357   1.715   6.622 -0.8051  1.0545  0.3010
  124OSM    H5S13192   5.377   1.773   6.531  0.3536 -0.1633 -0.2636
  124OSM    C6S13193   5.249   1.764   6.715 -0.9483 -0.0929  0.1542
  124OSM    H6S13194   5.151   1.750   6.664 -0.3959  0.2105 -1.0304
  124OSM    H6T13195   5.274   1.869   6.739  1.4661 -0.9156  1.5667
  124OSM    C7S13196   5.239   1.691   6.855 -0.2601  0.4103  0.2685
  124OSM    H7S13197   5.342   1.666   6.887  0.0733  1.1787 -0.1855
  124OSM    H7T13198   5.177   1.603   6.827 -1.2480  1.7469 -2.0938
  124OSM    C8S13199   5.162   1.770   6.956 -0.2459  0.4662 -0.4055
  124OSM    H8S13200   5.071   1.812   6.909  1.3252  1.5186 -2.6558
  124OSM    H8T13201   5.221   1.857   6.992 -2.1353  0.6607  2.6070
  124OSM    C9S13202   5.120   1.681   7.077 -0.0951  0.6771  0.3444
  124OSM    H9S13203   5.215   1.647   7.124  0.4736  0.1202 -1.1310
  124OSM    H9T13204   5.069   1.592   7.035  1.7226 -0.1602 -0.2367
  124OSM   C10S13205   5.036   1.749   7.182 -0.4583  0.0846 -0.2467
  124OSM   H10S13206   4.930   1.750   7.148 -0.5476  2.7574 -0.1379
  124OSM   H10T13207   5.074   1.853   7.193  0.1714 -0.2153  0.5142
  124OSM   C11S13208   5.038   1.673   7.310  0.3432  0.2506  0.2969
  124OSM   H11S13209   5.140   1.669   7.354 -0.5674 -1.6549  2.4171
  124OSM   H11T13210   5.017   1.568   7.280 -0.9515  0.7742 -0.7335
  124OSM   C12S13211   4.917   1.721   7.398 -0.0621 -0.5892 -0.7932
  124OSM   H12S13212   4.818   1.730   7.348 -1.1976  0.8759  1.5584
  124OSM   H12T13213   4.957   1.820   7.425 -0.0715 -1.0825  1.1937
  124OSM   C13S13214   4.899   1.637   7.526  0.3290 -0.7456 -0.2334
  124OSM   H13S13215   4.841   1.544   7.503  0.8939 -0.8016 -1.5322
  124OSM   H13T13216   4.832   1.689   7.598 -0.0162 -1.0180 -0.3521
  124OSM   C14S13217   5.026   1.599   7.599 -0.0428 -0.1970 -0.1736
  124OSM   H14S13218   5.086   1.693   7.596  0.6803 -0.6621 -0.6533
  124OSM   H14T13219   5.080   1.516   7.547 -2.0073 -1.5708 -0.1285
  124OSM   C15S13220   4.992   1.548   7.741 -0.5844 -0.3195  0.6094
  124OSM   H15S13221   4.968   1.637   7.801 -2.7872  0.8952 -1.8799
  124OSM   H15T13222   5.086   1.516   7.791  0.5414  3.8081  1.4841
  124OSM   C16S13223   4.893   1.437   7.770  0.4942  0.5402  0.3745
  124OSM   H16S13224   4.896   1.366   7.684 -1.9194  1.4247 -0.5055
  124OSM   H16T13225   4.789   1.474   7.763 -0.7174 -2.5247  0.3871
  124OSM   C17S13226   4.925   1.358   7.899  0.3203 -0.3872  0.2772
  124OSM   H17S13227   5.019   1.300   7.889 -0.4909 -1.4632 -2.0587
  124OSM   H17T13228   4.838   1.288   7.898 -1.0253  1.1957 -1.8334
  124OSM   C18S13229   4.915   1.435   8.031 -0.2208 -0.8296  0.2042
  124OSM   H18S13230   4.886   1.368   8.114 -0.8782 -0.9737 -0.1387
  124OSM   H18T13231   4.832   1.508   8.025  0.8763  0.6969  2.3870
  124OSM   H18U13232   5.006   1.496   8.047 -1.0480  0.2026  1.0904
  124OSM    C1F13233   5.831   1.568   6.771  0.3745 -0.1023 -0.0193
  124OSM     OF13234   5.926   1.620   6.715 -0.8067  0.4355  0.6272
  124OSM    C2F13235   5.836   1.547   6.917  0.0528  0.1321  0.2449
  124OSM    H2F13236   5.739   1.507   6.953  0.4104 -1.4044 -0.4138
  124OSM    H2G13237   5.859   1.648   6.958  0.4811 -0.2878  1.0562
  124OSM    C3F13238   5.941   1.446   6.953  0.1839  1.1386  0.0519
  124OSM    H3F13239   6.049   1.473   6.948  0.3974  0.7674  1.9521
  124OSM    H3G13240   5.919   1.353   6.897 -0.7547  0.2050  1.8658
  124OSM    C4F13241   5.909   1.412   7.099 -0.5256  0.6480 -0.1184
  124OSM    H4F13242   5.964   1.317   7.117  0.1110  0.3712 -3.0225
  124OSM    H4G13243   5.800   1.407   7.122 -0.6028  3.2321  0.4545
  124OSM    C5F13244   5.949   1.518   7.203 -0.2176 -0.1857  0.5706
  124OSM    H5F13245   5.886   1.609   7.192  2.2063  1.2929 -3.1379
  124OSM    H5G13246   6.047   1.564   7.179 -0.8820 -0.0099 -2.2122
  124OSM    C6F13247   5.941   1.470   7.348  0.2849 -0.2232 -0.4020
  124OSM    H6F13248   6.001   1.376   7.342  0.5964 -0.2973  2.3752
  124OSM    H6G13249   5.836   1.440   7.367  0.9671 -2.1323  0.6708
  124OSM    C7F13250   5.985   1.574   7.453  0.6920  0.3890  0.3260
  124OSM    H7F13251   5.912   1.655   7.431 -0.3286 -0.3126  0.9966
  124OSM    H7G13252   6.085   1.617   7.430  1.7939 -2.6899 -1.1961
  124OSM    C8F13253   5.973   1.523   7.594  0.0343  0.0038 -0.4500
  124OSM    H8F13254   6.065   1.473   7.632 -1.5185 -1.7080  1.2286
  124OSM    H8G13255   5.882   1.461   7.596  0.4665 -0.6668 -1.2400
  124OSM    C9F13256   5.959   1.635   7.694  0.1543 -0.4950  0.7909
  124OSM    H9F13257   5.984   1.733   7.652 -2.3612 -1.2555 -2.9886
  124OSM   C10F13258   5.931   1.627   7.825 -0.3728 -0.1960  0.0956
  124OSM   H10F13259   5.929   1.722   7.881  1.4193  0.3075 -0.6455
  124OSM   C11F13260   5.908   1.509   7.920  0.6042 -0.4340  0.3671
  124OSM   H11F13261   5.995   1.492   7.986 -0.4081 -5.6624  0.8270
  124OSM   H11G13262   5.879   1.423   7.855 -1.6278  0.6981 -0.2300
  124OSM   C12F13263   5.791   1.521   8.024 -0.0108  0.3515 -0.0067
  124OSM   H12F13264   5.697   1.565   7.985 -0.6090 -0.8730  0.0126
  124OSM   H12G13265   5.833   1.584   8.106  1.6334 -0.7780  0.0615
  124OSM   C13F13266   5.755   1.391   8.088 -0.3751  0.4564  0.2320
  124OSM   H13F13267   5.851   1.346   8.120  0.4677  0.9059 -1.5339
  124OSM   H13G13268   5.711   1.320   8.015 -4.4738  1.8649  1.0960
  124OSM   C14F13269   5.651   1.416   8.203  0.1632  0.4806 -0.2095
  124OSM   H14F13270   5.550   1.448   8.170  0.9174  1.3145 -1.8756
  124OSM   H14G13271   5.691   1.504   8.258  1.1008  0.7920 -1.3429
  124OSM   C15F13272   5.631   1.283   8.290 -0.6371 -0.3484  0.2142
  124OSM   H15F13273   5.648   1.191   8.231 -0.0105  0.6908 -1.3034
  124OSM   H15G13274   5.526   1.283   8.324 -0.4931  0.8049  0.7143
  124OSM   C16F13275   5.727   1.283   8.407 -0.3894  0.3575 -1.0628
  124OSM   H16F13276   5.828   1.252   8.372  0.3938  0.6270  0.7884
  124OSM   H16G13277   5.700   1.201   8.478 -0.5260  2.3366  1.3076
  124OSM   C17F13278   5.732   1.414   8.492 -0.6648 -0.2977 -0.4034
  124OSM   H17F13279   5.625   1.432   8.517  0.0209  0.8377  2.0556
  124OSM   H17G13280   5.781   1.495   8.432 -0.5958 -1.1453 -1.5275
  124OSM   C18F13281   5.812   1.383   8.623 -0.1521  0.0008 -0.7058
  124OSM   H18F13282   5.916   1.353   8.598 -1.1891 -5.3700  0.3270
  124OSM   H18G13283   5.751   1.304   8.671 -1.1099  1.9735  1.5370
  124OSM   H18H13284   5.820   1.476   8.683  0.2746  1.6743 -3.2198
  125OSM      N13285   4.257   1.020   5.958 -0.7498 -0.5957  0.2704
  125OSM    C1513286   4.132   0.942   5.957  0.6878  1.2341  0.3487
  125OSM   H15A13287   4.040   0.993   5.979 -1.0391  0.3832 -3.9799
  125OSM   H15B13288   4.141   0.858   6.024  0.6208  0.1045 -1.0033
  125OSM   H15C13289   4.114   0.902   5.858  0.0842 -0.0614  0.9517
  125OSM    C1413290   4.378   0.933   5.956  0.2876 -0.3883 -1.0288
  125OSM   H14A13291   4.363   0.860   6.034  0.3668 -0.1320 -0.7715
  125OSM   H14B13292   4.466   0.994   5.970 -1.3369  1.8287  0.2627
  125OSM   H14C13293   4.390   0.868   5.871  0.9509 -2.3050  0.4702
  125OSM    C1313294   4.258   1.117   5.845  0.6330  0.5002 -0.7900
  125OSM   H13A13295   4.188   1.194   5.874  1.7431  1.3406 -0.2579
  125OSM   H13B13296   4.208   1.083   5.755  4.2093 -2.0235 -2.0230
  125OSM   H13C13297   4.355   1.159   5.827  1.4940 -1.4972 -1.0571
  125OSM    C1213298   4.266   1.101   6.085  0.4594  0.5250  0.0708
  125OSM   H12A13299   4.165   1.134   6.098  0.6714  0.9512  0.6994
  125OSM   H12B13300   4.325   1.191   6.082 -1.1729  1.6216 -0.2820
  125OSM    C1113301   4.310   1.023   6.218  0.6655 -0.3101 -0.0681
  125OSM   H11A13302   4.297   1.091   6.305  1.3016 -0.9048  0.5059
  125OSM   H11B13303   4.420   1.010   6.212  0.9286  0.1432  2.7070
  125OSM      P13304   4.112   0.878   6.313 -0.1180  0.1046  0.2976
  125OSM    O1313305   4.041   1.004   6.332 -0.5675  0.0006 -0.0164
  125OSM    O1413306   4.039   0.771   6.241 -0.0051  0.1620 -0.1192
  125OSM    O1113307   4.159   0.808   6.444  0.2113  0.2280 -0.1765
  125OSM    O1213308   4.246   0.897   6.239  0.1038 -0.2940 -0.1195
  125OSM    C1S13309   4.265   0.869   6.519 -0.0612 -0.8512  0.0759
  125OSM    H1S13310   4.257   0.980   6.521 -3.4224 -0.9919 -0.2005
  125OSM    H1T13311   4.354   0.851   6.454  1.1010 -0.1359  1.4157
  125OSM     NF13312   4.406   0.873   6.716  0.2547  0.3139  0.2653
  125OSM    HNF13313   4.490   0.819   6.708 -1.5374 -2.5528 -0.7449
  125OSM    C2S13314   4.288   0.812   6.664  0.4322 -0.4589 -0.1623
  125OSM    H2S13315   4.205   0.840   6.733 -1.8197 -1.6944 -2.2356
  125OSM    C3S13316   4.293   0.654   6.664  0.0255 -0.0011  0.2760
  125OSM    H3S13317   4.381   0.614   6.610  0.0832  2.2673 -1.4463
  125OSM     O313318   4.178   0.590   6.612  0.2565  0.1059  0.9972
  125OSM    HO313319   4.145   0.665   6.561  0.0808 -0.1917  0.6760
  125OSM    C4S13320   4.308   0.598   6.800  0.2729 -0.4342  0.7440
  125OSM    H4S13321   4.239   0.644   6.873  0.0146  0.3968 -0.0078
  125OSM    C5S13322   4.388   0.504   6.848  0.4380 -0.2639 -0.4294
  125OSM    H5S13323   4.453   0.448   6.779  1.1123 -0.1239  0.0913
  125OSM    C6S13324   4.398   0.452   6.988  0.3230  0.6703  0.6471
  125OSM    H6S13325   4.491   0.391   6.993 -0.4701 -0.5409  1.0842
  125OSM    H6T13326   4.321   0.374   7.008  3.0084 -2.0948  0.9047
  125OSM    C7S13327   4.392   0.554   7.100  0.2199  0.3914 -1.2074
  125OSM    H7S13328   4.291   0.600   7.093 -0.1624 -0.5882 -2.7545
  125OSM    H7T13329   4.466   0.637   7.102 -0.7892  1.3833  2.4892
  125OSM    C8S13330   4.397   0.489   7.246 -0.2621 -0.1076 -0.5247
  125OSM    H8S13331   4.496   0.440   7.260  0.6092  1.3213 -1.4476
  125OSM    H8T13332   4.318   0.411   7.251  0.2311 -0.6171 -0.6524
  125OSM    C9S13333   4.379   0.572   7.376 -0.2167 -0.1939  1.0051
  125OSM    H9S13334   4.291   0.639   7.375 -0.1440  0.0385  3.3107
  125OSM    H9T13335   4.465   0.643   7.379  1.4754 -1.8900 -2.1960
  125OSM   C10S13336   4.387   0.487   7.505  0.2661  0.7756  0.0245
  125OSM   H10S13337   4.488   0.441   7.501 -0.9288 -2.3281  1.8235
  125OSM   H10T13338   4.317   0.401   7.499  1.8573 -0.4605 -2.2882
  125OSM   C11S13339   4.380   0.571   7.632  0.0580  0.4050  0.0771
  125OSM   H11S13340   4.278   0.614   7.628 -0.5384 -0.7732  1.5490
  125OSM   H11T13341   4.450   0.656   7.637  0.3421  0.1352  0.7510
  125OSM   C12S13342   4.393   0.494   7.767 -0.1910  0.0309  0.3677
  125OSM   H12S13343   4.489   0.438   7.765  0.3348  0.7945  2.3380
  125OSM   H12T13344   4.308   0.422   7.773 -1.0587  0.6892 -2.2973
  125OSM   C13S13345   4.386   0.587   7.890 -0.8797 -0.2459 -0.7553
  125OSM   H13S13346   4.299   0.654   7.877 -0.0022  0.5801 -2.6630
  125OSM   H13T13347   4.477   0.650   7.895 -0.4942 -0.8111 -0.4430
  125OSM   C14S13348   4.392   0.510   8.023 -0.4919  0.3387 -0.2494
  125OSM   H14S13349   4.461   0.423   8.028  0.3938  0.9843 -1.1427
  125OSM   H14T13350   4.287   0.475   8.039 -1.1047  0.0447 -4.0863
  125OSM   C15S13351   4.429   0.612   8.133  0.0008  0.5942  0.1118
  125OSM   H15S13352   4.355   0.695   8.131 -0.9397 -0.2396 -0.6127
  125OSM   H15T13353   4.523   0.660   8.099 -0.1489  0.2184 -0.8633
  125OSM   C16S13354   4.447   0.556   8.281  0.6114  0.3210  0.2040
  125OSM   H16S13355   4.514   0.467   8.280  0.8585  0.4302  2.2837
  125OSM   H16T13356   4.353   0.505   8.312  0.9051 -1.5300 -1.7102
  125OSM   C17S13357   4.487   0.658   8.384 -0.1061 -0.5096 -0.2125
  125OSM   H17S13358   4.398   0.722   8.402 -1.0019 -1.7695 -0.0307
  125OSM   H17T13359   4.564   0.727   8.343 -2.2811  2.4513  0.3390
  125OSM   C18S13360   4.529   0.600   8.517 -0.2343 -0.3092  0.1345
  125OSM   H18S13361   4.451   0.532   8.557  0.4262 -1.1493  0.0354
  125OSM   H18T13362   4.551   0.675   8.596 -0.8275  0.8946 -0.8134
  125OSM   H18U13363   4.614   0.530   8.504 -0.3952 -0.1326 -2.3501
  125OSM    C1F13364   4.411   1.004   6.745  1.2363  0.0034  0.2803
  125OSM     OF13365   4.314   1.077   6.718 -0.6311  0.6076  0.5483
  125OSM    C2F13366   4.545   1.055   6.802  0.4267 -0.9150 -0.2512
  125OSM    H2F13367   4.533   1.165   6.789 -1.2389 -0.8124  1.7201
  125OSM    H2G13368   4.628   1.013   6.740 -0.2645 -1.0248 -1.1251
  125OSM    C3F13369   4.564   1.020   6.951 -0.0313 -0.2512  0.7079
  125OSM    H3F13370   4.573   0.910   6.961 -2.1997 -0.3764  2.1467
  125OSM    H3G13371   4.476   1.048   7.013 -0.5332  1.5048 -0.6942
  125OSM    C4F13372   4.690   1.084   7.005 -0.0106 -0.3628  0.1674
  125OSM    H4F13373   4.688   1.193   6.983 -0.7046 -0.1420  1.2072
  125OSM    H4G13374   4.768   1.026   6.952  0.4837 -0.6450  1.1657
  125OSM    C5F13375   4.728   1.063   7.155  0.0162  1.1813 -0.6911
  125OSM    H5F13376   4.753   0.960   7.189  0.2705  2.0386  1.9886
  125OSM    H5G13377   4.632   1.090   7.203  0.0300 -1.6536  1.1792
  125OSM    C6F13378   4.847   1.150   7.205  0.2515  1.0254 -0.6342
  125OSM    H6F13379   4.824   1.252   7.171 -0.5105  2.4405  3.4722
  125OSM    H6G13380   4.946   1.122   7.164 -0.5823 -3.0983 -0.3180
  125OSM    C7F13381   4.851   1.149   7.355 -0.3227  0.1923  0.3664
  125OSM    H7F13382   4.751   1.165   7.400  0.1160 -0.6122  1.6869
  125OSM    H7G13383   4.908   1.238   7.391  1.9154 -0.4963 -1.2337
  125OSM    C8F13384   4.915   1.023   7.406  0.3522  0.9160 -0.0779
  125OSM    H8F13385   4.857   0.941   7.358  1.1535 -0.0924  0.6174
  125OSM    H8G13386   4.883   1.013   7.512  0.2504 -3.5323 -0.3192
  125OSM    C9F13387   5.064   1.017   7.391  0.3676 -0.0921  0.2689
  125OSM    H9F13388   5.107   1.028   7.290  1.3994  0.0838  0.7214
  125OSM   C10F13389   5.156   1.018   7.491  0.2483 -0.0647  0.0857
  125OSM   H10F13390   5.265   1.013   7.472  0.2340 -0.8989  0.1513
  125OSM   C11F13391   5.126   1.012   7.640 -0.0737 -0.6562 -1.7200
  125OSM   H11F13392   5.138   0.907   7.674 -1.2316 -0.1577  0.3941
  125OSM   H11G13393   5.023   1.041   7.668 -0.7607 -1.8984 -2.8657
  125OSM   C12F13394   5.224   1.095   7.729 -0.2476 -0.3935  0.5401
  125OSM   H12F13395   5.211   1.202   7.700 -1.0163 -0.4153  0.7839
  125OSM   H12G13396   5.332   1.074   7.713  0.5524  0.5109  4.0227
  125OSM   C13F13397   5.202   1.074   7.869 -0.3267 -0.4918  0.4579
  125OSM   H13F13398   5.225   0.971   7.905 -0.1206 -0.5341  0.2159
  125OSM   H13G13399   5.101   1.095   7.908  0.4335  2.6150  0.9923
  125OSM   C14F13400   5.299   1.170   7.951 -0.0096 -0.2875 -0.7192
  125OSM   H14F13401   5.287   1.265   7.895 -0.5847  0.6885  0.9741
  125OSM   H14G13402   5.406   1.139   7.947  0.9167  2.4116  0.5763
  125OSM   C15F13403   5.261   1.187   8.095  0.0314 -0.5031 -0.1213
  125OSM   H15F13404   5.171   1.248   8.116  0.9120  1.2615 -1.2262
  125OSM   H15G13405   5.335   1.257   8.139 -0.5237 -0.8450  1.4102
  125OSM   C16F13406   5.256   1.051   8.160 -0.1384  0.3050 -0.2520
  125OSM   H16F13407   5.328   0.984   8.108 -1.2805  0.0655 -1.5727
  125OSM   H16G13408   5.151   1.017   8.152 -0.7045  1.9169 -0.1159
  125OSM   C17F13409   5.297   1.065   8.310  0.5005  0.2521  0.1387
  125OSM   H17F13410   5.248   1.156   8.352  0.7428  0.0837  0.8005
  125OSM   H17G13411   5.405   1.094   8.315 -0.5410  5.2811 -0.9580
  125OSM   C18F13412   5.275   0.941   8.395  0.4839  0.0515  0.5403
  125OSM   H18F13413   5.174   0.941   8.443  1.3883 -0.9225  2.5482
  125OSM   H18G13414   5.348   0.932   8.478 -0.6977  0.3708  1.6462
  125OSM   H18H13415   5.280   0.855   8.325 -1.9152 -1.3123  1.8836
  126OSM      N13416   1.812   0.527   6.111 -0.2794  0.0738  0.6216
  126OSM    C1513417   1.789   0.389   6.072 -0.1880 -0.4878  0.6358
  126OSM   H15A13418   1.688   0.351   6.076 -0.4000  0.1671  1.7821
  126OSM   H15B13419   1.841   0.318   6.134 -0.5962  0.0742  1.6392
  126OSM   H15C13420   1.828   0.380   5.972  2.1524  1.4442  1.2864
  126OSM    C1413421   1.959   0.562   6.110  0.3327 -0.0265 -0.6570
  126OSM   H14A13422   2.022   0.571   6.023  2.8191  1.7493  1.2033
  126OSM   H14B13423   2.004   0.487   6.173 -0.1877  0.9069  0.8752
  126OSM   H14C13424   1.969   0.659   6.156 -1.9590 -0.2636  0.4925
  126OSM    C1313425   1.746   0.622   6.015  0.3261 -0.0690  0.2923
  126OSM   H13A13426   1.790   0.626   5.917 -1.8077 -2.8525 -0.9129
  126OSM   H13B13427   1.759   0.722   6.055  3.0653  0.0384 -0.6706
  126OSM   H13C13428   1.643   0.596   5.994 -0.0457  2.1285 -0.9418
  126OSM    C1213429   1.756   0.553   6.250  0.1582 -0.0810 -0.1454
  126OSM   H12A13430   1.824   0.509   6.321  0.7406  0.3017 -0.4618
  126OSM   H12B13431   1.658   0.510   6.265  0.6294 -0.8153  0.9612
  126OSM    C1113432   1.752   0.707   6.304 -0.6286  0.2527  0.6314
  126OSM   H11A13433   1.684   0.705   6.392 -0.3532 -3.3764  0.9242
  126OSM   H11B13434   1.687   0.755   6.228 -1.4047  0.0464  1.1499
  126OSM      P13435   1.981   0.754   6.439  0.0553  0.1604 -0.5657
  126OSM    O1313436   2.121   0.763   6.389  0.3979  0.1660 -0.4850
  126OSM    O1413437   1.939   0.840   6.553 -0.3769  0.4290 -0.3797
  126OSM    O1113438   1.942   0.601   6.461  0.3214  0.6266 -0.2598
  126OSM    O1213439   1.881   0.767   6.312 -0.2718 -0.4026  0.6538
  126OSM    C1S13440   2.023   0.495   6.483 -0.3111  0.1041  0.3168
  126OSM    H1S13441   2.118   0.502   6.426 -1.0329  0.4988 -0.8623
  126OSM    H1T13442   1.967   0.404   6.453  1.3710 -1.1859  0.9350
  126OSM     NF13443   2.165   0.375   6.657 -0.3196 -0.4072 -0.6117
  126OSM    HNF13444   2.131   0.289   6.694 -3.3932  0.8880 -0.1279
  126OSM    C2S13445   2.056   0.468   6.633  0.3912  0.3945  0.3413
  126OSM    H2S13446   2.090   0.566   6.673 -0.2866  0.7100  0.1750
  126OSM    C3S13447   1.922   0.417   6.703 -0.3712  0.5389  0.1437
  126OSM    H3S13448   1.894   0.318   6.661  0.1675  0.1882  0.5926
  126OSM     O313449   1.819   0.504   6.671 -0.3094 -0.6309  0.0085
  126OSM    HO313450   1.851   0.557   6.597  0.8106  2.1114  2.2781
  126OSM    C4S13451   1.948   0.402   6.855 -0.3667 -0.0322  0.3927
  126OSM    H4S13452   1.978   0.499   6.898 -2.7006  1.6447 -1.4926
  126OSM    C5S13453   1.953   0.286   6.929  0.0663 -0.4692  0.3950
  126OSM    H5S13454   1.933   0.191   6.877  0.7845 -0.9317  0.9408
  126OSM    C6S13455   1.990   0.269   7.070 -0.2234 -0.6275 -0.2108
  126OSM    H6S13456   2.091   0.224   7.079  1.0484  1.8372 -1.3767
  126OSM    H6T13457   1.913   0.198   7.108 -2.3348  0.5644 -2.0228
  126OSM    C7S13458   1.965   0.397   7.152  0.4854 -0.7252  0.0293
  126OSM    H7S13459   1.857   0.420   7.141  0.0482 -0.1994  3.9179
  126OSM    H7T13460   2.027   0.482   7.117  0.9891 -1.3528 -0.6403
  126OSM    C8S13461   1.984   0.382   7.306 -0.2390  0.0649 -0.3766
  126OSM    H8S13462   2.091   0.356   7.316 -0.6077 -1.6182 -0.5163
  126OSM    H8T13463   1.932   0.290   7.341  1.5710 -1.1132 -0.6774
  126OSM    C9S13464   1.932   0.497   7.381  0.5709  0.7275  0.1787
  126OSM    H9S13465   1.822   0.495   7.367  0.3281  1.2455  1.7768
  126OSM    H9T13466   1.971   0.588   7.331 -0.8583  1.0121 -0.4499
  126OSM   C10S13467   1.967   0.490   7.537 -0.5472 -0.2167  0.5648
  126OSM   H10S13468   2.076   0.501   7.557 -0.2680 -0.7814 -0.5643
  126OSM   H10T13469   1.951   0.384   7.563  1.4344  0.1800  4.0629
  126OSM   C11S13470   1.885   0.570   7.633 -0.0385 -0.9011 -0.6913
  126OSM   H11S13471   1.934   0.558   7.731 -1.5847 -0.9543  0.1122
  126OSM   H11T13472   1.776   0.550   7.641 -0.4989  1.4298 -0.4799
  126OSM   C12S13473   1.888   0.722   7.610 -0.5887  0.3135 -0.2082
  126OSM   H12S13474   1.822   0.745   7.523 -1.6427  0.7139  0.6846
  126OSM   H12T13475   1.986   0.757   7.571 -0.7261  0.1559 -0.7022
  126OSM   C13S13476   1.844   0.806   7.729  0.3739 -0.8491 -0.3649
  126OSM   H13S13477   1.897   0.903   7.732 -0.4785 -0.3946  1.1240
  126OSM   H13T13478   1.899   0.764   7.816  0.2997  1.6966  1.0228
  126OSM   C14S13479   1.695   0.819   7.757 -0.3215 -0.2594 -0.0878
  126OSM   H14S13480   1.651   0.717   7.759  2.0499 -1.3369 -0.5550
  126OSM   H14T13481   1.641   0.881   7.682 -0.2162 -0.6750 -0.5096
  126OSM   C15S13482   1.662   0.886   7.890 -0.2062 -0.3857 -0.5075
  126OSM   H15S13483   1.735   0.855   7.968  0.3571  0.5565 -0.6477
  126OSM   H15T13484   1.563   0.846   7.923 -0.0617 -1.0860 -0.9253
  126OSM   C16S13485   1.646   1.037   7.883 -0.2820  0.1800 -0.3377
  126OSM   H16S13486   1.559   1.053   7.816 -0.4497  0.2483 -0.1051
  126OSM   H16T13487   1.730   1.082   7.827 -0.9372  0.6704 -0.9430
  126OSM   C17S13488   1.635   1.099   8.021 -0.5541  1.1516  0.0553
  126OSM   H17S13489   1.732   1.067   8.064 -2.0270  0.4820  3.1405
  126OSM   H17T13490   1.546   1.047   8.063  0.1400  0.4720  0.6905
  126OSM   C18S13491   1.622   1.249   7.997 -0.5805  0.5248 -0.4530
  126OSM   H18S13492   1.522   1.274   7.955 -0.6143 -0.2451 -0.8469
  126OSM   H18T13493   1.710   1.283   7.938  1.1338 -1.0909  1.0306
  126OSM   H18U13494   1.621   1.299   8.096  0.2501  0.3572 -0.3559
  126OSM    C1F13495   2.292   0.405   6.632 -0.3485 -0.0549  1.1238
  126OSM     OF13496   2.314   0.513   6.580 -0.2647 -0.2686 -0.0772
  126OSM    C2F13497   2.394   0.297   6.646  0.0046  0.6540  0.0256
  126OSM    H2F13498   2.470   0.329   6.571 -0.4632 -1.3689 -1.4062
  126OSM    H2G13499   2.348   0.199   6.625 -0.5486  0.8982  0.0917
  126OSM    C3F13500   2.456   0.296   6.786  0.4600  0.2950 -0.6373
  126OSM    H3F13501   2.495   0.397   6.809  1.5993 -0.3507  0.4042
  126OSM    H3G13502   2.533   0.216   6.790 -1.7301 -1.9906 -1.0651
  126OSM    C4F13503   2.363   0.257   6.901  0.5146  0.2744 -0.2921
  126OSM    H4F13504   2.321   0.157   6.878  3.6321 -0.9375 -1.0951
  126OSM    H4G13505   2.275   0.325   6.909  0.3543  0.0832 -0.4066
  126OSM    C5F13506   2.453   0.244   7.029  0.2185 -0.1108  0.0185
  126OSM    H5F13507   2.506   0.341   7.040  2.4038 -1.3225  0.7927
  126OSM    H5G13508   2.526   0.166   7.001 -0.6224 -0.4417 -1.3007
  126OSM    C6F13509   2.373   0.200   7.150  1.2465 -0.4907 -0.4429
  126OSM    H6F13510   2.290   0.270   7.174  3.2534  1.6917  0.6187
  126OSM    H6G13511   2.432   0.198   7.245 -0.8480  1.8813  1.0489
  126OSM    C7F13512   2.316   0.057   7.125 -0.3981 -0.6537  0.2771
  126OSM    H7F13513   2.404  -0.007   7.101 -0.2398 -0.5225  0.4987
  126OSM    H7G13514   2.242   0.050   7.042 -1.5008  0.9365  1.0782
  126OSM    C8F13515   2.239  -0.002   7.245  0.2611  1.0769  0.0097
  126OSM    H8F13516   2.158   0.067   7.278 -1.3348 -0.1399 -1.2349
  126OSM    H8G13517   2.306  -0.020   7.332  1.3780 -1.2225 -1.2383
  126OSM    C9F13518   2.172  -0.134   7.211  0.3730  0.0906 -0.1425
  126OSM    H9F13519   2.176  -0.163   7.105  0.6450  0.6864 -0.2957
  126OSM   C10F13520   2.099  -0.216   7.293 -0.3330  0.2489 -0.0142
  126OSM   H10F13521   2.067  -0.316   7.261 -1.6296 -0.3329  2.8265
  126OSM   C11F13522   2.054  -0.186   7.435 -0.4822 -0.9489 -0.0142
  126OSM   H11F13523   1.949  -0.221   7.448 -0.1421 -1.7610  0.7414
  126OSM   H11G13524   2.073  -0.077   7.446 -1.8251 -0.7295  0.2915
  126OSM   C12F13525   2.130  -0.261   7.553 -0.6600 -0.1652  0.2241
  126OSM   H12F13526   2.238  -0.239   7.541 -0.6946 -0.1739 -0.1420
  126OSM   H12G13527   2.111  -0.369   7.533 -1.1623 -0.2136  0.9131
  126OSM   C13F13528   2.073  -0.241   7.693 -0.0195  0.3219  0.2041
  126OSM   H13F13529   1.984  -0.307   7.704  0.3040 -0.2374 -0.4501
  126OSM   H13G13530   2.050  -0.134   7.710 -0.5609  0.4185 -1.0498
  126OSM   C14F13531   2.177  -0.286   7.798  0.4569 -0.2195 -0.9051
  126OSM   H14F13532   2.264  -0.224   7.768 -1.6305  2.6252 -1.4396
  126OSM   H14G13533   2.199  -0.394   7.787 -1.8353 -0.7330 -0.7735
  126OSM   C15F13534   2.147  -0.266   7.946  0.5863 -0.1914 -0.1900
  126OSM   H15F13535   2.229  -0.302   8.012 -1.6328 -1.5049  2.0672
  126OSM   H15G13536   2.064  -0.329   7.985 -0.6465  0.8972 -0.9565
  126OSM   C16F13537   2.109  -0.125   7.993  0.0925  0.1585 -0.1076
  126OSM   H16F13538   2.013  -0.099   7.943  0.7385 -0.7353 -1.8963
  126OSM   H16G13539   2.180  -0.056   7.943 -0.2231  1.7109  1.4719
  126OSM   C17F13540   2.104  -0.103   8.143 -0.0224  0.3924 -0.0463
  126OSM   H17F13541   2.078   0.005   8.154 -1.0594  0.3141 -1.4349
  126OSM   H17G13542   2.200  -0.123   8.195  0.1888 -0.6863 -0.8228
  126OSM   C18F13543   1.979  -0.178   8.192  0.0650  0.2227 -0.2359
  126OSM   H18F13544   1.991  -0.289   8.185 -0.3439  0.2119 -0.7700
  126OSM   H18G13545   1.881  -0.144   8.153  0.2518 -1.4551 -2.3955
  126OSM   H18H13546   1.978  -0.162   8.302 -3.1106  1.0427 -0.3095
  127OSM      N13547   3.380   0.273   5.810 -0.4945  0.9173  0.4268
  127OSM    C1513548   3.274   0.242   5.714  0.2410 -0.4369  0.6639
  127OSM   H15A13549   3.312   0.232   5.614 -0.8755  3.0054 -0.2275
  127OSM   H15B13550   3.198   0.318   5.726  0.3390 -0.1766 -0.2871
  127OSM   H15C13551   3.234   0.144   5.735 -0.2387 -0.7745 -1.5484
  127OSM    C1413552   3.475   0.157   5.805  0.6328 -0.2807 -0.1255
  127OSM   H14A13553   3.484   0.128   5.702  0.1874 -2.0255  0.2996
  127OSM   H14B13554   3.428   0.071   5.851 -0.6400  0.1819 -0.5196
  127OSM   H14C13555   3.571   0.167   5.855 -0.1232  0.1703  1.3012
  127OSM    C1313556   3.441   0.391   5.738  0.5711  0.0250 -0.3333
  127OSM   H13A13557   3.360   0.458   5.712 -0.7873 -0.9421  1.1888
  127OSM   H13B13558   3.488   0.356   5.647 -0.5057  2.6742 -2.0171
  127OSM   H13C13559   3.514   0.441   5.799 -1.8411  3.2808  0.1571
  127OSM    C1213560   3.343   0.303   5.951  0.3302  0.6072  0.8628
  127OSM   H12A13561   3.277   0.228   5.991  1.0031  0.2188  1.2723
  127OSM   H12B13562   3.286   0.395   5.945 -3.9244 -1.8199  0.0813
  127OSM    C1113563   3.452   0.315   6.057  0.3733  0.1194 -0.4321
  127OSM   H11A13564   3.416   0.361   6.151 -0.8868 -0.9186 -0.3821
  127OSM   H11B13565   3.516   0.388   6.003 -1.4872  1.1836 -1.2939
  127OSM      P13566   3.443   0.082   6.164  0.2153  0.1769 -0.2415
  127OSM    O1313567   3.301   0.087   6.141 -0.2553  0.1264 -0.5406
  127OSM    O1413568   3.513  -0.050   6.146 -0.9250 -0.4887 -0.1375
  127OSM    O1113569   3.472   0.128   6.314 -0.1187  0.7158  0.9991
  127OSM    O1213570   3.523   0.195   6.082  0.6668  0.0444  0.1152
  127OSM    C1S13571   3.595   0.157   6.374  0.4606 -0.1318  0.5368
  127OSM    H1S13572   3.617   0.266   6.376  0.1578 -0.0339 -0.8356
  127OSM    H1T13573   3.678   0.097   6.331  2.9026  3.2632  0.0457
  127OSM     NF13574   3.721   0.134   6.593  0.2019  0.2311  0.0097
  127OSM    HNF13575   3.786   0.059   6.603  1.9308  1.6366 -0.3730
  127OSM    C2S13576   3.593   0.108   6.519  0.1484  1.0757 -0.4954
  127OSM    H2S13577   3.517   0.163   6.577  0.0516  1.0353 -0.5847
  127OSM    C3S13578   3.551  -0.044   6.532 -0.5523  0.1118 -0.1872
  127OSM    H3S13579   3.629  -0.097   6.473  1.7120  0.5708  2.2122
  127OSM     O313580   3.425  -0.079   6.489 -0.2194  0.0147 -0.2865
  127OSM    HO313581   3.386  -0.011   6.434  0.7197  1.6485  1.0130
  127OSM    C4S13582   3.563  -0.088   6.682  0.2595  0.4401  0.5065
  127OSM    H4S13583   3.668  -0.114   6.701  0.5859  0.9297 -0.5687
  127OSM    C5S13584   3.473  -0.080   6.784  0.2358 -0.6177  0.0579
  127OSM    H5S13585   3.377  -0.030   6.761 -0.2956 -2.3581 -1.8714
  127OSM    C6S13586   3.512  -0.124   6.920 -0.0781  0.2657 -0.1308
  127OSM    H6S13587   3.443  -0.205   6.954 -1.4219  1.4634  0.1051
  127OSM    H6T13588   3.499  -0.037   6.987  2.1502 -1.0482  2.1755
  127OSM    C7S13589   3.649  -0.178   6.950  0.2461  0.2519 -0.0032
  127OSM    H7S13590   3.733  -0.113   6.920 -1.2248  1.8554 -0.8544
  127OSM    H7T13591   3.672  -0.265   6.886 -2.5424 -0.5894  0.0082
  127OSM    C8S13592   3.656  -0.225   7.100 -0.3033  0.1750  0.5610
  127OSM    H8S13593   3.592  -0.316   7.108 -1.0432  0.6990  0.6308
  127OSM    H8T13594   3.609  -0.152   7.169 -0.1064 -1.2583  2.2946
  127OSM    C9S13595   3.790  -0.271   7.154  0.5286 -0.3146 -0.8027
  127OSM    H9S13596   3.884  -0.223   7.120  0.5822  0.9466  0.9740
  127OSM    H9T13597   3.800  -0.376   7.120  2.8384 -0.7843  1.0480
  127OSM   C10S13598   3.791  -0.268   7.313 -0.4171  0.4038 -0.0080
  127OSM   H10S13599   3.878  -0.327   7.348 -0.9305 -0.9915 -0.9792
  127OSM   H10T13600   3.697  -0.311   7.355  1.5018 -2.4295  1.7736
  127OSM   C11S13601   3.804  -0.131   7.369 -0.0670  0.6440  0.0220
  127OSM   H11S13602   3.748  -0.063   7.300 -0.2530  0.6784  0.2066
  127OSM   H11T13603   3.908  -0.095   7.353  0.6014 -0.8724  0.8260
  127OSM   C12S13604   3.754  -0.109   7.514  0.2879  0.0707  0.2774
  127OSM   H12S13605   3.792  -0.013   7.557 -0.2262  0.0479  0.8053
  127OSM   H12T13606   3.799  -0.188   7.578 -0.4181  0.8019  1.7464
  127OSM   C13S13607   3.601  -0.103   7.539 -0.0743 -0.4942 -0.0332
  127OSM   H13S13608   3.543  -0.181   7.486  0.0812 -0.8924  0.3668
  127OSM   H13T13609   3.565  -0.003   7.509  0.0181 -0.5482 -0.3250
  127OSM   C14S13610   3.560  -0.116   7.690 -0.4810 -0.6858 -0.6994
  127OSM   H14S13611   3.590  -0.220   7.714  0.8357 -0.3994 -1.0299
  127OSM   H14T13612   3.452  -0.097   7.705 -0.6417 -1.7556 -0.3933
  127OSM   C15S13613   3.652  -0.043   7.792 -0.6464  0.0324 -0.3760
  127OSM   H15S13614   3.668   0.063   7.761 -1.7337  0.9315  1.9128
  127OSM   H15T13615   3.754  -0.085   7.780 -0.4215  0.3854  0.2380
  127OSM   C16S13616   3.607  -0.041   7.938 -0.2868 -0.7169 -0.5728
  127OSM   H16S13617   3.502  -0.077   7.945 -0.4248  0.0278  2.3600
  127OSM   H16T13618   3.611   0.064   7.973  2.2740 -1.2081  0.9027
  127OSM   C17S13619   3.699  -0.112   8.033 -0.2491 -0.3401  0.5818
  127OSM   H17S13620   3.804  -0.084   8.009 -0.3572 -0.2791  0.1773
  127OSM   H17T13621   3.686  -0.219   8.005  0.8904 -0.4029  0.2104
  127OSM   C18S13622   3.678  -0.087   8.178  0.3183  0.0485  0.4702
  127OSM   H18S13623   3.767  -0.121   8.235  1.1152  0.2448 -0.6426
  127OSM   H18T13624   3.586  -0.136   8.218 -0.4289 -0.7201 -2.0117
  127OSM   H18U13625   3.668   0.023   8.187 -1.7202  0.0030 -0.7332
  127OSM    C1F13626   3.774   0.256   6.609 -0.1107  0.4235 -0.3434
  127OSM     OF13627   3.708   0.348   6.585 -0.4912  0.0080  0.0682
  127OSM    C2F13628   3.919   0.271   6.650  0.1489 -0.0750  0.0052
  127OSM    H2F13629   3.970   0.321   6.565  2.0244 -1.8694 -0.0221
  127OSM    H2G13630   3.973   0.175   6.665  0.0942 -0.1613 -0.3252
  127OSM    C3F13631   3.930   0.353   6.778 -0.1059  0.3075 -0.4405
  127OSM    H3F13632   3.860   0.439   6.767  1.2578  1.1613 -3.4221
  127OSM    H3G13633   4.034   0.392   6.776  1.2994 -3.0723 -0.4424
  127OSM    C4F13634   3.893   0.283   6.907 -0.7250  0.2197 -0.1011
  127OSM    H4F13635   3.814   0.208   6.886 -1.2606  0.9879 -0.8761
  127OSM    H4G13636   3.855   0.361   6.977  1.1310 -1.8176  3.4846
  127OSM    C5F13637   4.015   0.209   6.974  0.6680 -0.3697 -0.0130
  127OSM    H5F13638   4.105   0.272   6.962  1.8075 -1.6365  1.4478
  127OSM    H5G13639   4.033   0.122   6.908 -1.2871 -0.0373 -1.0597
  127OSM    C6F13640   3.993   0.155   7.117  0.7391 -0.3048  0.1127
  127OSM    H6F13641   4.084   0.094   7.140 -0.6012 -2.2272  0.6143
  127OSM    H6G13642   3.902   0.091   7.112  0.1654  0.3587  1.5271
  127OSM    C7F13643   3.990   0.272   7.214 -0.0624 -0.2002 -0.1761
  127OSM    H7F13644   3.917   0.351   7.187 -0.0390  0.3123  1.1555
  127OSM    H7G13645   4.088   0.317   7.189 -0.0543 -0.1344 -0.0299
  127OSM    C8F13646   3.973   0.254   7.367  0.1675  0.1799  0.4947
  127OSM    H8F13647   3.875   0.206   7.387  0.1574  1.3237  3.7763
  127OSM    H8G13648   3.973   0.351   7.422 -0.3558 -0.5189  1.7746
  127OSM    C9F13649   4.070   0.165   7.434 -0.3164 -0.2057  0.1896
  127OSM    H9F13650   4.139   0.126   7.358  1.1763  1.3639  0.6547
  127OSM   C10F13651   4.093   0.142   7.564  0.0975  0.2183  0.2030
  127OSM   H10F13652   4.168   0.068   7.592 -1.1029 -1.3886 -0.6741
  127OSM   C11F13653   4.013   0.204   7.684 -0.2897  0.5171 -0.1143
  127OSM   H11F13654   3.914   0.247   7.656 -0.4818 -0.3343 -0.7899
  127OSM   H11G13655   4.065   0.294   7.723 -0.1013  1.1767 -1.8162
  127OSM   C12F13656   4.003   0.097   7.798 -0.7205 -0.5133  0.0736
  127OSM   H12F13657   4.100   0.046   7.812 -1.1070 -1.3151 -0.0931
  127OSM   H12G13658   3.927   0.026   7.758  0.0466 -0.5371 -1.4098
  127OSM   C13F13659   3.962   0.134   7.942 -0.2683  0.5216  0.0738
  127OSM   H13F13660   3.981   0.040   7.999 -1.0491 -1.1708 -2.3287
  127OSM   H13G13661   3.852   0.145   7.936 -0.5340 -1.7817 -0.1406
  127OSM   C14F13662   4.039   0.260   7.988  0.4808 -0.2731 -0.4367
  127OSM   H14F13663   4.037   0.346   7.918 -1.7904  0.7662  0.7820
  127OSM   H14G13664   4.147   0.235   7.993  1.1763  1.9264 -2.5666
  127OSM   C15F13665   3.993   0.314   8.123 -0.2114  0.0213 -1.1484
  127OSM   H15F13666   3.911   0.387   8.103  0.1074  0.9345  0.6969
  127OSM   H15G13667   4.078   0.365   8.173 -1.6962 -0.1727  1.7280
  127OSM   C16F13668   3.945   0.209   8.220 -0.0362 -0.0863 -0.4344
  127OSM   H16F13669   4.020   0.130   8.241 -1.6940 -2.2760 -2.3009
  127OSM   H16G13670   3.850   0.165   8.182 -0.5176 -0.9605  1.6277
  127OSM   C17F13671   3.907   0.266   8.359  0.3890 -0.0845  0.6519
  127OSM   H17F13672   3.855   0.360   8.331  0.4977 -0.3555 -0.5413
  127OSM   H17G13673   3.997   0.294   8.418 -0.3881  2.0333  0.9189
  127OSM   C18F13674   3.819   0.170   8.432 -0.1824 -0.0014 -0.8829
  127OSM   H18F13675   3.763   0.228   8.508 -0.1525 -0.8209 -0.2142
  127OSM   H18G13676   3.868   0.080   8.475 -1.8802 -0.9035 -0.7436
  127OSM   H18H13677   3.742   0.131   8.363  0.5395 -1.1150 -1.0875
  128OSM      N13678   5.622   3.076   6.077  0.0670 -0.0352  0.2825
  128OSM    C1513679   5.595   3.001   5.949 -0.0398  0.5509  0.2369
  128OSM   H15A13680   5.592   2.893   5.960  0.4546  0.5410  0.3330
  128OSM   H15B13681   5.673   3.018   5.876 -0.2745 -2.7609 -0.9551
  128OSM   H15C13682   5.501   3.035   5.909 -1.3728 -1.1957  1.7036
  128OSM    C1413683   5.515   3.051   6.174 -0.5072  0.5671 -0.3599
  128OSM   H14A13684   5.418   3.051   6.126 -0.1862 -0.8336 -1.0758
  128OSM   H14B13685   5.500   3.116   6.258 -2.9590  1.9689 -1.7586
  128OSM   H14C13686   5.527   2.952   6.215  1.6987  1.1224  0.4567
  128OSM    C1313687   5.755   3.036   6.137 -0.5554 -0.5552  0.1879
  128OSM   H13A13688   5.767   2.928   6.143 -2.3330 -0.8197 -0.4780
  128OSM   H13B13689   5.765   3.079   6.236 -0.8682 -0.3027  0.1104
  128OSM   H13C13690   5.841   3.078   6.089 -0.4848  0.9912  1.5678
  128OSM    C1213691   5.622   3.227   6.038 -0.0127 -0.3503 -0.4319
  128OSM   H12A13692   5.629   3.282   6.130 -0.5232  0.8314 -1.0683
  128OSM   H12B13693   5.520   3.249   6.007  0.8862  1.6232 -2.2778
  128OSM    C1113694   5.722   3.290   5.943  0.0995  0.2468 -0.0087
  128OSM   H11A13695   5.695   3.391   5.906 -3.0900 -0.9526 -1.3759
  128OSM   H11B13696   5.730   3.230   5.849 -3.3051 -1.1674  0.4199
  128OSM      P13697   5.888   3.419   6.080  0.4129 -0.3329 -0.0749
  128OSM    O1313698   6.035   3.443   6.066  0.2821  0.4107 -0.6677
  128OSM    O1413699   5.798   3.531   6.044  0.4363  0.3115 -0.3795
  128OSM    O1113700   5.867   3.405   6.240 -0.0337  0.6877  0.6346
  128OSM    O1213701   5.846   3.280   6.013  0.1048 -0.7902  0.0564
  128OSM    C1S13702   5.981   3.339   6.304  0.1453  0.3568  0.3380
  128OSM    H1S13703   6.071   3.404   6.308 -1.0652  2.0026  3.2436
  128OSM    H1T13704   6.011   3.240   6.263 -0.8853 -0.2808  1.0829
  128OSM     NF13705   6.081   3.254   6.515 -0.0521 -0.2763  0.5049
  128OSM    HNF13706   6.082   3.154   6.522  1.0484 -0.5263 -2.0878
  128OSM    C2S13707   5.960   3.314   6.458  0.2309 -0.2095 -0.0337
  128OSM    H2S13708   5.953   3.412   6.510 -0.2306 -0.7211  0.9013
  128OSM    C3S13709   5.823   3.236   6.476  0.0204  0.0812 -0.6077
  128OSM    H3S13710   5.825   3.134   6.433 -1.0307 -0.4621  0.5620
  128OSM     O313711   5.717   3.301   6.406  0.7419  0.6510  0.3171
  128OSM    HO313712   5.763   3.369   6.357  1.5376  0.5556  0.9121
  128OSM    C4S13713   5.792   3.220   6.623  0.1329 -0.8756 -0.9578
  128OSM    H4S13714   5.845   3.134   6.667 -0.0835 -1.8796 -2.5929
  128OSM    C5S13715   5.707   3.297   6.698 -0.0173 -0.8566 -0.0172
  128OSM    H5S13716   5.648   3.372   6.643  0.7443  0.2230  0.5891
  128OSM    C6S13717   5.679   3.292   6.844 -0.3019  0.2327 -0.1862
  128OSM    H6S13718   5.594   3.221   6.853  0.5802 -1.2241 -2.3999
  128OSM    H6T13719   5.648   3.392   6.881 -1.4946  0.0379 -0.6288
  128OSM    C7S13720   5.790   3.248   6.943 -0.0265 -0.1949  0.5212
  128OSM    H7S13721   5.867   3.328   6.935 -0.8942  0.5612 -0.5028
  128OSM    H7T13722   5.840   3.150   6.925 -1.2025 -0.5382 -1.0783
  128OSM    C8S13723   5.732   3.259   7.078  0.1312  0.0246  0.2748
  128OSM    H8S13724   5.654   3.180   7.087  0.0922 -0.4274 -2.9659
  128OSM    H8T13725   5.685   3.359   7.093 -2.0335 -0.4613 -2.4909
  128OSM    C9S13726   5.841   3.211   7.187  0.4975  0.3914 -0.5205
  128OSM    H9S13727   5.928   3.280   7.182  0.7434  0.1810  0.6241
  128OSM    H9T13728   5.883   3.116   7.148 -0.6271 -0.4180  0.1878
  128OSM   C10S13729   5.781   3.202   7.330  0.5376  0.0048  0.7013
  128OSM   H10S13730   5.710   3.117   7.329 -0.0426  0.4877 -1.0117
  128OSM   H10T13731   5.724   3.294   7.360 -0.5738 -0.2873 -0.4552
  128OSM   C11S13732   5.881   3.190   7.440 -0.1859  1.0411 -0.2973
  128OSM   H11S13733   5.954   3.274   7.443 -1.6433  2.5215 -2.7996
  128OSM   H11T13734   5.939   3.097   7.425  0.4082  1.0639  1.5527
  128OSM   C12S13735   5.810   3.173   7.577  0.3985  0.0983  0.3010
  128OSM   H12S13736   5.726   3.100   7.573  0.9402 -0.5407  0.4594
  128OSM   H12T13737   5.782   3.272   7.618  0.7473  0.0568  0.6469
  128OSM   C13S13738   5.906   3.115   7.687 -0.0110 -0.2152  0.0218
  128OSM   H13S13739   6.001   3.171   7.681 -1.1854  1.8888  0.0853
  128OSM   H13T13740   5.923   3.007   7.669  1.4665 -0.5015  2.6685
  128OSM   C14S13741   5.852   3.143   7.829 -0.8287  0.2231 -0.2543
  128OSM   H14S13742   5.866   3.249   7.860  0.6047  0.5337 -1.8193
  128OSM   H14T13743   5.912   3.073   7.891 -3.3918 -2.8591 -1.0110
  128OSM   C15S13744   5.704   3.111   7.858 -0.1640  0.5923  0.4008
  128OSM   H15S13745   5.672   3.013   7.816  1.1670 -1.1796  3.1827
  128OSM   H15T13746   5.641   3.182   7.800  0.4774  0.2239 -0.7904
  128OSM   C16S13747   5.665   3.129   8.004 -0.6021 -0.5998  0.6251
  128OSM   H16S13748   5.566   3.178   8.015  0.8397  2.3036  1.6829
  128OSM   H16T13749   5.737   3.200   8.050 -0.5248 -2.0902  3.0296
  128OSM   C17S13750   5.672   3.002   8.081 -0.5484  0.0184  0.1961
  128OSM   H17S13751   5.777   2.972   8.064 -0.5752  0.1178 -0.1387
  128OSM   H17T13752   5.624   2.912   8.037  0.6316 -0.3133 -0.4326
  128OSM   C18S13753   5.657   3.018   8.232 -0.3024 -0.2874  0.3266
  128OSM   H18S13754   5.711   3.107   8.272 -0.2566 -0.2324  0.1419
  128OSM   H18T13755   5.696   2.925   8.278  1.5428 -0.2164 -0.9764
  128OSM   H18U13756   5.548   3.019   8.257 -0.2352 -0.3994  0.6266
  128OSM    C1F13757   6.187   3.315   6.553  0.1670 -0.1200  0.2199
  128OSM     OF13758   6.179   3.440   6.557 -0.0343  0.8565  0.0833
  128OSM    C2F13759   6.311   3.237   6.594 -0.4286 -0.3122  0.0851
  128OSM    H2F13760   6.381   3.218   6.510  0.3364 -0.5274  0.7721
  128OSM    H2G13761   6.270   3.138   6.622  1.0588 -1.2210 -0.8217
  128OSM    C3F13762   6.391   3.289   6.716 -0.0075  0.5302 -0.8088
  128OSM    H3F13763   6.415   3.397   6.707  1.5162  0.4156  1.3045
  128OSM    H3G13764   6.486   3.234   6.729 -0.3684 -0.1138 -0.8288
  128OSM    C4F13765   6.298   3.261   6.837  0.2877 -0.1396  0.4136
  128OSM    H4F13766   6.312   3.154   6.866  0.2288  0.1976  1.7749
  128OSM    H4G13767   6.195   3.284   6.804 -0.1937 -2.1816  0.3540
  128OSM    C5F13768   6.321   3.336   6.968 -0.2354 -0.3092  0.1092
  128OSM    H5F13769   6.293   3.442   6.951  1.6066  0.3236  0.7102
  128OSM    H5G13770   6.430   3.340   6.991  0.2125  1.3297 -1.9908
  128OSM    C6F13771   6.240   3.278   7.082  0.0742 -0.3410 -0.3691
  128OSM    H6F13772   6.257   3.169   7.094 -1.4182 -0.7653 -1.7492
  128OSM    H6G13773   6.136   3.284   7.044  0.2843 -0.6852 -1.0344
  128OSM    C7F13774   6.258   3.352   7.216 -0.2643  0.3619  0.0196
  128OSM    H7F13775   6.169   3.337   7.280  0.3607  1.8763  1.3240
  128OSM    H7G13776   6.265   3.459   7.187  1.7418  0.2622 -0.0017
  128OSM    C8F13777   6.385   3.308   7.289 -0.3981 -0.3225 -0.1387
  128OSM    H8F13778   6.477   3.321   7.228  0.3584  0.0927  1.0489
  128OSM    H8G13779   6.380   3.201   7.320 -0.0067 -0.3949 -0.3159
  128OSM    C9F13780   6.399   3.402   7.406 -0.5719 -0.2468 -0.3204
  128OSM    H9F13781   6.465   3.489   7.391 -1.7323  0.8818  0.8556
  128OSM   C10F13782   6.347   3.397   7.532  0.4651  0.0237 -0.3760
  128OSM   H10F13783   6.379   3.475   7.603  1.2428 -1.7205  1.3046
  128OSM   C11F13784   6.258   3.285   7.584  0.2218  0.4811 -0.5638
  128OSM   H11F13785   6.284   3.190   7.533 -1.7421  0.1301 -0.9681
  128OSM   H11G13786   6.149   3.301   7.577 -0.3184 -3.0625 -3.0683
  128OSM   C12F13787   6.289   3.263   7.738 -0.4029  0.1728  0.0239
  128OSM   H12F13788   6.398   3.240   7.744  0.2577  2.8431 -0.5723
  128OSM   H12G13789   6.218   3.193   7.788  0.0221 -0.0763  0.2887
  128OSM   C13F13790   6.270   3.385   7.827  0.4892  0.7096  0.1458
  128OSM   H13F13791   6.165   3.420   7.826  0.9098  2.0400 -0.3447
  128OSM   H13G13792   6.342   3.465   7.799  2.0391 -0.9152 -0.7471
  128OSM   C14F13793   6.302   3.349   7.974 -0.4119  0.3621 -0.0372
  128OSM   H14F13794   6.315   3.435   8.043 -0.2016 -0.1308  0.5426
  128OSM   H14G13795   6.393   3.286   7.980 -0.5028  0.1482 -0.7737
  128OSM   C15F13796   6.183   3.283   8.043  0.2613  1.5239  0.9711
  128OSM   H15F13797   6.145   3.195   7.988 -2.1431  2.0595  1.6782
  128OSM   H15G13798   6.099   3.355   8.045  1.0471  2.5211 -0.1345
  128OSM   C16F13799   6.216   3.243   8.186 -0.6193 -0.4404  0.1408
  128OSM   H16F13800   6.245   3.335   8.241  0.5113 -0.3579 -0.5583
  128OSM   H16G13801   6.310   3.183   8.175  0.2442  0.8068  0.5209
  128OSM   C17F13802   6.106   3.177   8.270 -0.5798  0.2791 -0.0478
  128OSM   H17F13803   6.151   3.147   8.367 -0.1603 -1.4047 -0.7283
  128OSM   H17G13804   6.068   3.084   8.221  0.6086 -1.3432  1.9491
  128OSM   C18F13805   5.987   3.277   8.288 -0.2301  0.6972  0.6213
  128OSM   H18F13806   6.027   3.370   8.333 -0.2577  1.7819 -1.4678
  128OSM   H18G13807   5.909   3.236   8.355 -0.6260  1.0324  0.3697
  128OSM   H18H13808   5.952   3.314   8.189 -0.8547  0.7063  0.8408
  129OSM      N13809   2.050   6.404   6.233 -0.3899  0.3588 -0.4160
  129OSM    C1513810   2.014   6.315   6.343 -0.1216 -0.6856  0.5704
  129OSM   H15A13811   1.915   6.343   6.375  0.4157 -1.0819  2.7906
  129OSM   H15B13812   2.076   6.316   6.432  0.8097 -0.0780 -0.0706
  129OSM   H15C13813   2.014   6.210   6.316  0.3350 -1.9872  4.8288
  129OSM    C1413814   1.944   6.397   6.122  0.5763 -0.4509  0.3999
  129OSM   H14A13815   1.845   6.428   6.153 -0.5319  2.0578 -4.6793
  129OSM   H14B13816   1.937   6.299   6.078  1.5088 -0.7508  0.8894
  129OSM   H14C13817   1.964   6.457   6.035  0.2203  0.3306  0.8506
  129OSM    C1313818   2.073   6.546   6.277 -0.1144 -0.2332 -0.4260
  129OSM   H13A13819   1.974   6.581   6.303  0.1879 -0.4360  1.1179
  129OSM   H13B13820   2.114   6.604   6.196  1.3861 -2.3821 -1.3135
  129OSM   H13C13821   2.131   6.545   6.368 -2.9283  0.7583  1.5471
  129OSM    C1213822   2.179   6.354   6.173 -0.6554 -0.4058 -0.2441
  129OSM   H12A13823   2.173   6.247   6.157  0.9893 -0.6145  0.3316
  129OSM   H12B13824   2.255   6.362   6.249 -1.6692  0.3314  0.7174
  129OSM    C1113825   2.224   6.435   6.053  0.0185 -0.2770 -0.4888
  129OSM   H11A13826   2.136   6.452   5.987 -2.4692 -0.1344  2.6023
  129OSM   H11B13827   2.293   6.366   5.999  0.9179  2.8878 -3.7625
  129OSM      P13828   2.449   6.557   6.123 -0.2545  0.0621 -0.0903
  129OSM    O1313829   2.532   6.469   6.039 -0.4034 -0.2354  0.4057
  129OSM    O1413830   2.498   6.693   6.141  0.4955  0.3454  0.3272
  129OSM    O1113831   2.447   6.488   6.266 -0.0534  0.1747 -0.0145
  129OSM    O1213832   2.291   6.565   6.077 -0.0572  0.9236 -0.2219
  129OSM    C1S13833   2.544   6.486   6.365  0.0608  0.8621 -0.3762
  129OSM    H1S13834   2.533   6.579   6.425  0.3068 -0.8189  2.4926
  129OSM    H1T13835   2.647   6.470   6.326  0.2151 -0.2270  0.4139
  129OSM     NF13836   2.579   6.385   6.594 -0.0769  0.3268  0.1552
  129OSM    HNF13837   2.671   6.348   6.585 -0.2735  0.1903 -1.5503
  129OSM    C2S13838   2.509   6.370   6.467  0.8137  0.4150 -0.2421
  129OSM    H2S13839   2.402   6.386   6.494  0.8326 -0.4698  0.4077
  129OSM    C3S13840   2.513   6.234   6.401  0.0455  0.4206 -0.1899
  129OSM    H3S13841   2.619   6.206   6.379  1.0461 -0.5139  4.7004
  129OSM     O313842   2.445   6.229   6.276  0.2945 -0.3197  0.1162
  129OSM    HO313843   2.433   6.321   6.252  1.0832 -0.0127  0.8806
  129OSM    C4S13844   2.468   6.113   6.490  0.5369 -0.7103  0.1478
  129OSM    H4S13845   2.551   6.079   6.553  1.0474 -0.7339 -0.5365
  129OSM    C5S13846   2.348   6.046   6.500 -0.8877 -0.1345  0.3906
  129OSM    H5S13847   2.260   6.084   6.447  0.3872  2.3291 -0.1205
  129OSM    C6S13848   2.324   5.933   6.595  0.4195 -0.1607 -0.7507
  129OSM    H6S13849   2.344   5.835   6.548 -1.8487 -0.9257 -0.2594
  129OSM    H6T13850   2.218   5.937   6.629 -0.1363  2.2316 -2.5288
  129OSM    C7S13851   2.414   5.928   6.721  0.5281 -0.4125  0.0242
  129OSM    H7S13852   2.394   6.028   6.766 -1.1473 -0.2298 -1.0503
  129OSM    H7T13853   2.521   5.922   6.694  0.4932 -2.5202  0.1813
  129OSM    C8S13854   2.373   5.820   6.816  0.0845  0.1323 -0.2360
  129OSM    H8S13855   2.310   5.746   6.761  0.9378 -0.0363 -1.0154
  129OSM    H8T13856   2.316   5.869   6.897  1.3925  1.0337  0.1681
  129OSM    C9S13857   2.498   5.743   6.868 -0.0645 -0.3361  0.3953
  129OSM    H9S13858   2.584   5.810   6.888 -1.2203  1.3165  0.0547
  129OSM    H9T13859   2.533   5.675   6.787 -0.7427  1.0932 -1.1630
  129OSM   C10S13860   2.472   5.659   6.988  0.0255  0.2205 -0.1959
  129OSM   H10S13861   2.565   5.604   7.012  0.0709  0.9161  1.3364
  129OSM   H10T13862   2.395   5.579   6.976 -0.0263  0.0536  1.1310
  129OSM   C11S13863   2.443   5.740   7.112 -0.0369 -0.0974 -1.1013
  129OSM   H11S13864   2.354   5.805   7.103  0.2899  0.2901 -1.5978
  129OSM   H11T13865   2.532   5.804   7.132 -0.3474 -0.6276  2.8720
  129OSM   C12S13866   2.439   5.644   7.230 -0.5148  0.3226  0.4813
  129OSM   H12S13867   2.517   5.568   7.208 -1.1444  0.0227 -0.8890
  129OSM   H12T13868   2.339   5.596   7.233 -1.0734  1.3137 -1.0056
  129OSM   C13S13869   2.468   5.715   7.363 -0.8498  0.3463  0.0574
  129OSM   H13S13870   2.399   5.797   7.390  0.7620  1.8518 -0.2514
  129OSM   H13T13871   2.559   5.775   7.345  2.0228 -4.0097 -1.5454
  129OSM   C14S13872   2.510   5.634   7.482 -0.5863 -0.6332 -0.0789
  129OSM   H14S13873   2.608   5.585   7.461 -0.7490 -0.5746 -0.9842
  129OSM   H14T13874   2.433   5.554   7.485 -2.3334  0.9072 -1.9073
  129OSM   C15S13875   2.521   5.715   7.610  1.3199  0.0231 -0.2926
  129OSM   H15S13876   2.429   5.777   7.617  1.6667  0.5368 -0.2213
  129OSM   H15T13877   2.604   5.788   7.598  0.4963  0.8681 -1.0326
  129OSM   C16S13878   2.542   5.629   7.735  0.3951 -0.1405  0.3705
  129OSM   H16S13879   2.636   5.570   7.727 -1.1600 -2.7696 -0.0253
  129OSM   H16T13880   2.456   5.559   7.737 -0.5125  0.9548  2.0350
  129OSM   C17S13881   2.553   5.705   7.869  0.8597 -0.5061  0.4395
  129OSM   H17S13882   2.459   5.758   7.894  0.4661 -0.0821 -1.7519
  129OSM   H17T13883   2.625   5.783   7.837 -0.0619  0.7287  1.2883
  129OSM   C18S13884   2.604   5.640   8.001  0.7115 -0.8047  0.2640
  129OSM   H18S13885   2.654   5.718   8.062 -0.6782 -0.1152  0.5635
  129OSM   H18T13886   2.672   5.556   7.974  0.4301 -1.3985  1.3212
  129OSM   H18U13887   2.519   5.591   8.055  1.1936 -0.1327  1.6702
  129OSM    C1F13888   2.567   6.492   6.669 -1.0506  0.1371 -0.3892
  129OSM     OF13889   2.466   6.556   6.667  0.1773  0.1673  0.3109
  129OSM    C2F13890   2.673   6.528   6.769 -0.1049  0.0170  0.4949
  129OSM    H2F13891   2.762   6.573   6.719  0.5960  0.7939  2.3540
  129OSM    H2G13892   2.699   6.440   6.832 -1.4949 -0.6002  0.2369
  129OSM    C3F13893   2.619   6.637   6.867 -0.1489 -0.4074 -0.8006
  129OSM    H3F13894   2.513   6.608   6.884 -0.0236 -0.4623 -0.0381
  129OSM    H3G13895   2.609   6.738   6.821 -2.6546 -0.2660 -0.0959
  129OSM    C4F13896   2.705   6.658   6.998 -0.5557 -0.1133 -0.2652
  129OSM    H4F13897   2.692   6.765   7.026  1.8232  0.1512  0.0102
  129OSM    H4G13898   2.804   6.647   6.950 -0.7680  0.9196 -0.9682
  129OSM    C5F13899   2.676   6.565   7.117  0.7583 -0.4501  0.2839
  129OSM    H5F13900   2.681   6.458   7.091 -0.0161 -0.8887  1.8010
  129OSM    H5G13901   2.568   6.574   7.140  0.8143  0.1604  0.3292
  129OSM    C6F13902   2.761   6.613   7.239  0.1196 -0.5233 -0.1155
  129OSM    H6F13903   2.736   6.720   7.254  0.6517 -0.5011  0.6610
  129OSM    H6G13904   2.865   6.603   7.202 -0.1304 -0.9346 -0.7198
  129OSM    C7F13905   2.743   6.546   7.374  0.3755  0.0527 -0.4784
  129OSM    H7F13906   2.742   6.437   7.353 -0.8954 -0.0229 -0.1293
  129OSM    H7G13907   2.652   6.582   7.427  1.3329 -1.4446  2.4099
  129OSM    C8F13908   2.863   6.572   7.467 -0.3000 -0.0964 -0.0154
  129OSM    H8F13909   2.840   6.672   7.510 -2.0813  0.0736 -1.2684
  129OSM    H8G13910   2.960   6.571   7.413 -0.8498  0.1127 -1.0294
  129OSM    C9F13911   2.867   6.474   7.576  0.6396 -0.6407  0.0583
  129OSM    H9F13912   2.927   6.384   7.558  0.2714 -0.9204  0.2153
  129OSM   C10F13913   2.789   6.480   7.681  0.1596  0.1229 -0.2214
  129OSM   H10F13914   2.790   6.393   7.748  0.6560 -1.6520 -2.3835
  129OSM   C11F13915   2.688   6.590   7.719 -0.1569 -0.0892 -0.0762
  129OSM   H11F13916   2.598   6.586   7.654 -0.5050 -2.4914  0.4447
  129OSM   H11G13917   2.737   6.688   7.699 -1.0061  0.5244  0.7748
  129OSM   C12F13918   2.626   6.595   7.863  0.2855 -0.0527 -0.3004
  129OSM   H12F13919   2.581   6.496   7.883  1.2141 -0.3020  0.6226
  129OSM   H12G13920   2.549   6.673   7.842  0.8366  0.6304  0.1760
  129OSM   C13F13921   2.723   6.640   7.971  0.1156  0.1974  0.5977
  129OSM   H13F13922   2.766   6.740   7.954 -1.5609  0.6338 -1.4830
  129OSM   H13G13923   2.808   6.569   7.967 -0.7672 -0.8515 -2.7514
  129OSM   C14F13924   2.659   6.657   8.104 -0.3987 -0.5223  0.1020
  129OSM   H14F13925   2.741   6.628   8.174  1.5103 -2.2174 -2.6335
  129OSM   H14G13926   2.573   6.588   8.118 -1.3266  0.4223 -0.7758
  129OSM   C15F13927   2.620   6.804   8.129 -0.5200  0.9740 -0.7315
  129OSM   H15F13928   2.534   6.838   8.067 -1.0349  1.1243  0.0548
  129OSM   H15G13929   2.715   6.861   8.118 -1.7963  3.3548  0.0301
  129OSM   C16F13930   2.590   6.822   8.273 -0.2901 -0.2211 -0.9677
  129OSM   H16F13931   2.666   6.781   8.343  0.4975  2.0190 -0.4154
  129OSM   H16G13932   2.496   6.769   8.298  0.1215 -0.3261  0.4459
  129OSM   C17F13933   2.540   6.960   8.320  0.1303 -0.1112 -0.5085
  129OSM   H17F13934   2.619   7.035   8.298 -0.5926  0.8702  0.1681
  129OSM   H17G13935   2.540   6.947   8.431  2.3592  1.8925 -0.1968
  129OSM   C18F13936   2.401   6.996   8.267  0.1137 -0.0468  0.0144
  129OSM   H18F13937   2.408   6.986   8.156  0.2178 -0.7538  0.0823
  129OSM   H18G13938   2.385   7.099   8.304  1.2992 -0.2761  1.2459
  129OSM   H18H13939   2.326   6.927   8.311  0.6611 -0.7000 -0.0686
  130OSM      N13940   0.029   1.926   5.875  0.2866  0.5782 -0.4671
  130OSM    C1513941   0.150   1.845   5.854 -0.1107  0.6695 -0.1296
  130OSM   H15A13942   0.236   1.888   5.903  0.9179 -2.2916  0.8516
  130OSM   H15B13943   0.182   1.831   5.752 -1.4121  3.9480 -1.1395
  130OSM   H15C13944   0.147   1.752   5.908 -0.3838  1.0284  0.4915
  130OSM    C1413945   0.048   2.066   5.820  0.4346 -0.3576 -0.1441
  130OSM   H14A13946   0.119   2.119   5.883  1.2708 -1.8397  0.1976
  130OSM   H14B13947  -0.049   2.113   5.812  0.3316 -0.7207 -1.2241
  130OSM   H14C13948   0.094   2.062   5.722  1.0497  1.4238  0.0310
  130OSM    C1313949  -0.088   1.870   5.794 -0.5625  0.5027 -0.5289
  130OSM   H13A13950  -0.069   1.857   5.689 -3.6368 -0.0295 -1.1266
  130OSM   H13B13951  -0.171   1.939   5.799 -1.0024 -0.1071  1.3726
  130OSM   H13C13952  -0.126   1.774   5.827 -1.2722  1.6805  2.3851
  130OSM    C1213953  -0.009   1.931   6.022 -0.3230  0.5784 -0.0630
  130OSM   H12A13954  -0.095   1.995   6.034 -0.9770  0.0555 -1.6399
  130OSM   H12B13955   0.075   1.975   6.074 -0.2169  0.2270  0.0672
  130OSM    C1113956  -0.041   1.798   6.094 -0.7879  0.8031  1.2530
  130OSM   H11A13957  -0.054   1.802   6.204  1.8276 -0.6980  1.7001
  130OSM   H11B13958   0.041   1.732   6.057 -1.8030  0.1447  0.1140
  130OSM      P13959  -0.201   1.597   6.035 -0.2561  0.2113 -0.2103
  130OSM    O1313960  -0.325   1.578   5.956 -0.4075 -0.1873  0.1163
  130OSM    O1413961  -0.078   1.513   5.997 -0.1381 -0.3538  0.1624
  130OSM    O1113962  -0.230   1.564   6.182  0.5777 -0.0809 -0.4245
  130OSM    O1213963  -0.163   1.750   6.038 -0.1233 -0.3625 -0.3308
  130OSM    C1S13964  -0.126   1.518   6.264 -1.0399 -0.4098 -0.2790
  130OSM    H1S13965  -0.032   1.572   6.237 -0.5604 -0.1671  1.7191
  130OSM    H1T13966  -0.098   1.412   6.247 -0.8727 -0.3281 -0.5211
  130OSM     NF13967  -0.038   1.530   6.494  0.0163 -0.9255  0.6909
  130OSM    HNF13968  -0.026   1.446   6.546  0.0177 -1.4602 -0.1673
  130OSM    C2S13969  -0.157   1.541   6.412 -0.3921  0.2431 -0.0386
  130OSM    H2S13970  -0.196   1.645   6.413  0.6115  0.7128 -2.6417
  130OSM    C3S13971  -0.274   1.441   6.458  0.2274  0.2089 -0.6766
  130OSM    H3S13972  -0.247   1.343   6.413 -0.9034  0.0744 -1.0955
  130OSM     O313973  -0.392   1.487   6.394  0.0599  0.7515 -0.5793
  130OSM    HO313974  -0.361   1.515   6.307 -0.9385 -1.1805 -1.6167
  130OSM    C4S13975  -0.307   1.449   6.596  0.0703 -0.4962 -0.2714
  130OSM    H4S13976  -0.324   1.554   6.624 -0.1689 -0.0304 -2.0385
  130OSM    C5S13977  -0.290   1.353   6.689 -0.7321  0.0223  0.4115
  130OSM    H5S13978  -0.260   1.251   6.664 -2.2559 -0.0718 -1.2008
  130OSM    C6S13979  -0.305   1.364   6.836 -0.1782  0.8768  0.5168
  130OSM    H6S13980  -0.301   1.471   6.867 -0.1278  0.2866  2.7179
  130OSM    H6T13981  -0.219   1.314   6.887 -1.5156 -1.2333  0.8197
  130OSM    C7S13982  -0.440   1.322   6.889 -0.2464  0.4021 -0.6684
  130OSM    H7S13983  -0.433   1.212   6.902  1.1778  0.5896  0.3693
  130OSM    H7T13984  -0.526   1.343   6.820  1.0230 -0.1316 -2.4953
  130OSM    C8S13985  -0.484   1.404   7.012 -0.4224  0.2976  0.2709
  130OSM    H8S13986  -0.584   1.362   7.035 -0.1748 -1.2784 -1.2976
  130OSM    H8T13987  -0.477   1.512   6.990 -0.1880  0.0318 -1.0509
  130OSM    C9S13988  -0.400   1.378   7.137 -0.4792  0.3529 -0.2896
  130OSM    H9S13989  -0.313   1.447   7.135  0.7772 -1.1550  0.1069
  130OSM    H9T13990  -0.370   1.271   7.142  1.1421  0.8130  0.4052
  130OSM   C10S13991  -0.490   1.402   7.258 -0.2604 -0.0678 -0.3262
  130OSM   H10S13992  -0.573   1.328   7.263 -1.9828  1.8495  2.2437
  130OSM   H10T13993  -0.550   1.496   7.254  0.6494  0.6070  0.9548
  130OSM   C11S13994  -0.410   1.386   7.387  0.1710 -0.0287 -0.1902
  130OSM   H11S13995  -0.339   1.471   7.396 -2.5501  2.4538 -0.2194
  130OSM   H11T13996  -0.363   1.286   7.395 -0.7996 -0.6686 -1.8771
  130OSM   C12S13997  -0.496   1.406   7.514 -0.0908  0.4407  0.2165
  130OSM   H12S13998  -0.588   1.343   7.512  1.0770 -1.2863 -0.4862
  130OSM   H12T13999  -0.523   1.514   7.505  0.1130  0.4044 -0.8711
  130OSM   C13S14000  -0.422   1.392   7.651  1.1879  0.0619 -0.8029
  130OSM   H13S14001  -0.340   1.464   7.674 -0.1915  0.8025  2.4041
  130OSM   H13T14002  -0.388   1.287   7.657 -1.3726 -0.7893  0.2483
  130OSM   C14S14003  -0.518   1.415   7.775 -0.9654  0.2128  0.3227
  130OSM   H14S14004  -0.599   1.339   7.780  0.0945 -0.9308  0.7802
  130OSM   H14T14005  -0.561   1.517   7.779  0.1153  0.9245 -3.1340
  130OSM   C15S14006  -0.439   1.393   7.911  0.0256 -0.3680 -0.2722
  130OSM   H15S14007  -0.349   1.458   7.917 -0.0578 -0.1878 -0.8483
  130OSM   H15T14008  -0.406   1.288   7.927 -0.1035 -0.1283  1.8109
  130OSM   C16S14009  -0.517   1.420   8.039  0.7183 -0.3986 -0.6876
  130OSM   H16S14010  -0.563   1.521   8.041  1.4802  0.0253 -2.5029
  130OSM   H16T14011  -0.441   1.417   8.120  1.6330 -1.5609 -1.5428
  130OSM   C17S14012  -0.611   1.309   8.083 -0.3085 -0.0464 -0.7784
  130OSM   H17S14013  -0.559   1.212   8.069  0.1480 -0.0536  0.7455
  130OSM   H17T14014  -0.695   1.297   8.012  0.0525  0.1836 -1.2494
  130OSM   C18S14015  -0.662   1.327   8.225  0.3309  0.1396 -0.1799
  130OSM   H18S14016  -0.570   1.333   8.287 -0.8429  1.2171  1.5477
  130OSM   H18T14017  -0.716   1.233   8.244  2.4479 -0.8772  1.2854
  130OSM   H18U14018  -0.719   1.422   8.233  2.0805  1.4420 -1.9373
  130OSM    C1F14019   0.045   1.633   6.513 -0.5930  0.6486 -0.3166
  130OSM     OF14020   0.050   1.722   6.431 -0.2767  0.2804 -0.0065
  130OSM    C2F14021   0.137   1.612   6.634 -0.7490 -0.3194  0.3945
  130OSM    H2F14022   0.203   1.526   6.609  0.6056  1.0906 -1.1181
  130OSM    H2G14023   0.077   1.609   6.728 -0.3850 -3.4405  0.6266
  130OSM    C3F14024   0.223   1.738   6.647 -0.1852 -0.4404  0.4675
  130OSM    H3F14025   0.168   1.835   6.646 -0.8386 -0.8096  0.2722
  130OSM    H3G14026   0.297   1.752   6.565  2.0246  1.5747  2.6330
  130OSM    C4F14027   0.302   1.731   6.781  0.1234  0.4603 -0.8650
  130OSM    H4F14028   0.356   1.634   6.779  0.6532  0.7332 -0.2859
  130OSM    H4G14029   0.239   1.733   6.872  2.3638  2.7843  0.7739
  130OSM    C5F14030   0.394   1.853   6.809  0.1499  0.1417  0.6838
  130OSM    H5F14031   0.348   1.952   6.829 -0.3565  0.7467 -2.8109
  130OSM    H5G14032   0.452   1.865   6.715 -0.1940  0.3179  0.4914
  130OSM    C6F14033   0.502   1.839   6.910  0.0409  0.2435 -0.1014
  130OSM    H6F14034   0.564   1.931   6.905 -0.5631  0.6057 -1.0407
  130OSM    H6G14035   0.566   1.753   6.880  0.3836  0.6659 -0.5980
  130OSM    C7F14036   0.437   1.821   7.048 -0.1791  0.0895 -0.0697
  130OSM    H7F14037   0.400   1.717   7.061 -0.6075  0.4763  2.2567
  130OSM    H7G14038   0.349   1.886   7.065 -0.2809  0.0287 -0.3630
  130OSM    C8F14039   0.537   1.845   7.157 -0.2137 -0.4572 -0.2744
  130OSM    H8F14040   0.569   1.951   7.146 -1.3405 -0.1970 -1.2072
  130OSM    H8G14041   0.635   1.793   7.142  0.5173  0.6113  0.6639
  130OSM    C9F14042   0.485   1.800   7.292  0.2833  0.4227 -0.4605
  130OSM    H9F14043   0.420   1.713   7.279  1.6293 -0.6421 -0.2783
  130OSM   C10F14044   0.504   1.858   7.412  0.1109  0.4929  0.3431
  130OSM   H10F14045   0.451   1.813   7.497  0.8583 -1.7756 -0.3002
  130OSM   C11F14046   0.593   1.975   7.433  0.3192 -0.1551 -0.1390
  130OSM   H11F14047   0.610   2.038   7.343 -1.8229  2.7718  1.3473
  130OSM   H11G14048   0.687   1.927   7.467 -0.4303 -0.9310  0.8685
  130OSM   C12F14049   0.544   2.063   7.545  0.1699 -0.3961 -0.8947
  130OSM   H12F14050   0.447   2.112   7.523 -0.3616 -0.2559  1.5321
  130OSM   H12G14051   0.626   2.136   7.562 -0.5319  0.2751 -0.3199
  130OSM   C13F14052   0.520   1.998   7.687 -0.1641 -0.8106  0.4635
  130OSM   H13F14053   0.613   1.950   7.724  1.6130  0.6567 -1.8101
  130OSM   H13G14054   0.440   1.922   7.671 -0.4332 -0.9339  2.1626
  130OSM   C14F14055   0.482   2.114   7.777 -0.5287  0.4799  0.1182
  130OSM   H14F14056   0.404   2.183   7.737 -1.7904  0.0827  1.7818
  130OSM   H14G14057   0.569   2.179   7.801 -2.0444  1.2991  4.2610
  130OSM   C15F14058   0.429   2.065   7.918  0.5405  0.9906 -0.6359
  130OSM   H15F14059   0.372   1.970   7.915 -1.3131  2.0318 -0.2576
  130OSM   H15G14060   0.365   2.150   7.952 -0.3804  0.1701 -0.2583
  130OSM   C16F14061   0.539   2.044   8.017 -1.0423 -0.0296  0.3160
  130OSM   H16F14062   0.593   1.952   7.986 -1.4225  0.4392 -1.9290
  130OSM   H16G14063   0.482   2.019   8.109  0.4469 -1.5690  0.8542
  130OSM   C17F14064   0.637   2.152   8.042  0.2920  0.7253  0.0817
  130OSM   H17F14065   0.577   2.245   8.040  1.3985  1.5140  1.5180
  130OSM   H17G14066   0.709   2.156   7.957 -1.7039 -1.6797 -1.8767
  130OSM   C18F14067   0.701   2.131   8.178  0.3537  0.2772 -0.3676
  130OSM   H18F14068   0.724   2.024   8.196 -1.1859  0.2626  1.9221
  130OSM   H18G14069   0.633   2.156   8.263  1.3384  1.4400  0.1213
  130OSM   H18H14070   0.794   2.191   8.189 -0.3295  1.1138  1.2369
  131OSM      N14071   3.086   6.050   5.712  0.5388  0.4198  0.5061
  131OSM    C1514072   2.994   6.067   5.598 -0.2250 -0.5160  0.3782
  131OSM   H15A14073   2.916   5.992   5.590 -2.2817  1.6589 -1.4760
  131OSM   H15B14074   3.043   6.083   5.504  2.0834 -0.2877  1.5427
  131OSM   H15C14075   2.938   6.157   5.617  0.9803  0.4378 -0.4923
  131OSM    C1414076   3.170   5.927   5.688  0.1485  0.0720  0.4920
  131OSM   H14A14077   3.113   5.835   5.695 -0.3565  0.5378  3.2993
  131OSM   H14B14078   3.254   5.927   5.756  1.0237  0.8286 -0.5406
  131OSM   H14C14079   3.221   5.929   5.593 -2.3281 -0.9019 -0.9658
  131OSM    C1314080   3.183   6.161   5.702 -0.0504 -0.0917  0.2052
  131OSM   H13A14081   3.249   6.153   5.617 -0.5050  3.1911 -0.5654
  131OSM   H13B14082   3.232   6.170   5.798 -1.5608  1.1978  0.9051
  131OSM   H13C14083   3.128   6.254   5.700  2.1129  1.4141  3.0788
  131OSM    C1214084   3.014   6.040   5.847  0.0814  0.4813  0.1924
  131OSM   H12A14085   2.953   5.951   5.846  0.1175  0.3912  2.4306
  131OSM   H12B14086   2.940   6.119   5.847 -1.1948 -0.6721 -0.4874
  131OSM    C1114087   3.096   6.053   5.981 -0.2744  0.0087  0.9126
  131OSM   H11A14088   3.025   6.027   6.062 -0.6603  2.8029  1.5549
  131OSM   H11B14089   3.109   6.162   5.995 -0.4762 -0.1836  2.8195
  131OSM      P14090   3.352   6.050   6.015  0.1565  0.0201 -0.1060
  131OSM    O1314091   3.444   5.938   6.043 -0.0553  0.8641 -0.3693
  131OSM    O1414092   3.395   6.138   5.904 -0.4454 -0.7428  0.2748
  131OSM    O1114093   3.331   6.141   6.135 -0.2375  0.3265 -0.6604
  131OSM    O1214094   3.212   5.975   5.987 -0.1908  0.0984 -0.4468
  131OSM    C1S14095   3.274   6.087   6.260 -0.4060 -0.5663 -0.0985
  131OSM    H1S14096   3.255   5.978   6.249  1.2606 -0.9815  0.8129
  131OSM    H1T14097   3.171   6.125   6.274 -1.1323 -0.6972 -3.9070
  131OSM     NF14098   3.299   6.064   6.514 -0.1058  0.1472  0.7764
  131OSM    HNF14099   3.270   6.137   6.575 -1.0587  0.7440 -0.3499
  131OSM    C2S14100   3.364   6.105   6.390  0.3945 -0.3438 -0.2232
  131OSM    H2S14101   3.451   6.037   6.374 -0.2238 -1.2053 -0.0153
  131OSM    C3S14102   3.414   6.251   6.394  0.9533  0.1095  0.2176
  131OSM    H3S14103   3.326   6.318   6.400  1.0665  0.2254  0.5556
  131OSM     O314104   3.485   6.285   6.279 -0.1902 -0.0282 -0.0492
  131OSM    HO314105   3.445   6.223   6.218 -0.2395  1.5282 -1.6930
  131OSM    C4S14106   3.513   6.270   6.519  0.5024  0.0014  0.1797
  131OSM    H4S14107   3.454   6.325   6.594  0.9031  0.0057  0.4996
  131OSM    C5S14108   3.647   6.239   6.534  0.1102  0.5846 -0.0021
  131OSM    H5S14109   3.686   6.179   6.451 -0.3101 -0.1836  0.3486
  131OSM    C6S14110   3.741   6.263   6.651  0.2431  0.1501 -0.9287
  131OSM    H6S14111   3.691   6.332   6.723 -0.5746 -0.6055 -0.7555
  131OSM    H6T14112   3.831   6.315   6.612  2.8257 -3.4349 -0.1873
  131OSM    C7S14113   3.781   6.144   6.735 -0.6240  0.2780  0.1631
  131OSM    H7S14114   3.856   6.096   6.668 -4.7021 -1.9830 -3.2655
  131OSM    H7T14115   3.703   6.069   6.761  1.3043 -1.8177  0.2188
  131OSM    C8S14116   3.825   6.192   6.873  0.4902  0.1632  0.4343
  131OSM    H8S14117   3.727   6.201   6.926 -0.3445  1.1963 -1.1686
  131OSM    H8T14118   3.872   6.293   6.871  0.8614  0.0195  1.4219
  131OSM    C9S14119   3.898   6.073   6.935 -0.3823  0.3766  0.0382
  131OSM    H9S14120   3.996   6.060   6.885 -1.1089 -0.7923 -1.1116
  131OSM    H9T14121   3.850   5.974   6.919  0.2154 -0.2378  1.8210
  131OSM   C10S14122   3.929   6.102   7.078  0.7183 -0.0747 -0.7892
  131OSM   H10S14123   4.009   6.179   7.088  1.1569 -0.6382  0.1830
  131OSM   H10T14124   3.977   6.015   7.128 -1.0419  0.4572  2.1056
  131OSM   C11S14125   3.816   6.124   7.179  0.9257 -0.5332  0.5908
  131OSM   H11S14126   3.759   6.028   7.179 -1.1178  0.6143 -0.7910
  131OSM   H11T14127   3.749   6.203   7.140  2.7430  0.7661 -0.0375
  131OSM   C12S14128   3.867   6.170   7.318 -0.1239  0.7303 -0.4667
  131OSM   H12S14129   3.907   6.274   7.310 -0.5453  0.8134 -1.8356
  131OSM   H12T14130   3.963   6.116   7.323  1.2056  2.9655 -0.1970
  131OSM   C13S14131   3.778   6.160   7.442 -0.5638 -0.2172  0.0633
  131OSM   H13S14132   3.733   6.059   7.445 -2.1225  0.4574  0.1222
  131OSM   H13T14133   3.698   6.236   7.432  1.8920  2.5026 -0.4526
  131OSM   C14S14134   3.875   6.188   7.565  0.2985  0.2225  0.8299
  131OSM   H14S14135   3.904   6.295   7.562 -0.8270  0.5543  1.3606
  131OSM   H14T14136   3.973   6.135   7.572 -0.5454 -1.2451  2.2564
  131OSM   C15S14137   3.795   6.200   7.694  0.3612 -0.0394 -0.3023
  131OSM   H15S14138   3.758   6.100   7.727 -1.6718  0.5712 -0.5748
  131OSM   H15T14139   3.706   6.261   7.668  1.1007  1.9644  1.5384
  131OSM   C16S14140   3.873   6.246   7.812 -0.1213 -0.1500 -0.3050
  131OSM   H16S14141   3.916   6.348   7.796  1.8015 -0.1056  3.6879
  131OSM   H16T14142   3.952   6.180   7.853 -2.8806 -2.0782  2.3977
  131OSM   C17S14143   3.786   6.275   7.939  0.4125  0.2775  0.9086
  131OSM   H17S14144   3.731   6.180   7.957  1.2787 -0.8833 -2.0122
  131OSM   H17T14145   3.709   6.350   7.909  0.2834 -0.1572  0.1242
  131OSM   C18S14146   3.860   6.320   8.060 -0.7596 -0.0013 -0.3434
  131OSM   H18S14147   3.948   6.253   8.065 -1.2610 -0.6306  0.2611
  131OSM   H18T14148   3.788   6.313   8.144 -0.7126 -1.3515 -0.3880
  131OSM   H18U14149   3.892   6.426   8.053  2.5221 -0.8960 -0.4782
  131OSM    C1F14150   3.251   5.942   6.525  0.2407  0.0089 -0.1297
  131OSM     OF14151   3.304   5.856   6.456  0.3342  0.4175 -0.3121
  131OSM    C2F14152   3.141   5.916   6.618  1.0153 -0.2067 -0.0939
  131OSM    H2F14153   3.052   5.898   6.554 -1.4661  2.0622  2.4017
  131OSM    H2G14154   3.114   6.010   6.672  0.9556 -0.5624  0.5037
  131OSM    C3F14155   3.161   5.802   6.716 -0.5901  0.6236  0.3698
  131OSM    H3F14156   3.245   5.817   6.787  0.8296  3.0146 -1.6730
  131OSM    H3G14157   3.203   5.717   6.659  1.5711  2.6880 -1.2969
  131OSM    C4F14158   3.030   5.779   6.789  0.2935 -0.1422 -0.2893
  131OSM    H4F14159   2.956   5.745   6.713  0.3660 -0.7502 -0.0989
  131OSM    H4G14160   2.999   5.880   6.824 -0.6826 -0.6470  0.3490
  131OSM    C5F14161   3.009   5.701   6.924  0.0178 -0.1638  0.0278
  131OSM    H5F14162   3.085   5.726   7.001 -0.4819  2.2865 -0.1783
  131OSM    H5G14163   3.018   5.594   6.898  1.3224 -0.4235  1.4239
  131OSM    C6F14164   2.868   5.722   6.991 -0.4294 -0.7444  1.0620
  131OSM    H6F14165   2.796   5.670   6.923 -1.2464 -0.7491  1.9080
  131OSM    H6G14166   2.836   5.827   6.978  0.5196 -0.6365 -0.8576
  131OSM    C7F14167   2.845   5.693   7.144  0.0323  0.4204 -0.1391
  131OSM    H7F14168   2.737   5.713   7.162 -0.1396 -1.7202  1.5923
  131OSM    H7G14169   2.903   5.766   7.204  1.4058  0.3150 -1.2848
  131OSM    C8F14170   2.894   5.549   7.170 -0.0246 -1.0011  0.8758
  131OSM    H8F14171   3.004   5.545   7.187  0.1036 -2.1593 -0.1492
  131OSM    H8G14172   2.881   5.499   7.072  1.5592 -0.1258  0.1741
  131OSM    C9F14173   2.811   5.484   7.279  0.2081 -0.1872  0.2601
  131OSM    H9F14174   2.704   5.467   7.259  0.0957  1.1381 -0.3594
  131OSM   C10F14175   2.858   5.435   7.398 -0.4801 -0.7884  0.6778
  131OSM   H10F14176   2.794   5.404   7.482 -1.2296  2.1083  1.2767
  131OSM   C11F14177   2.998   5.463   7.451 -0.2045 -0.3071  0.1495
  131OSM   H11F14178   3.046   5.553   7.407  0.9986 -0.8802  0.2510
  131OSM   H11G14179   3.067   5.380   7.428 -2.1166 -1.9651  0.0864
  131OSM   C12F14180   3.011   5.489   7.600 -0.3542  0.6250  0.4107
  131OSM   H12F14181   2.931   5.562   7.628 -1.2152  0.1995 -0.8579
  131OSM   H12G14182   3.108   5.543   7.612 -0.2756  0.7027 -0.5192
  131OSM   C13F14183   2.997   5.365   7.691  0.1754  0.2079 -0.5911
  131OSM   H13F14184   3.069   5.291   7.650 -1.2692 -1.3244 -0.4930
  131OSM   H13G14185   2.891   5.330   7.685  0.1456  0.2600 -0.3789
  131OSM   C14F14186   3.033   5.391   7.842 -0.0204 -0.1911  0.0538
  131OSM   H14F14187   3.070   5.300   7.895  0.2688  0.4642  1.0054
  131OSM   H14G14188   2.945   5.429   7.899 -0.0014  1.5214 -0.9973
  131OSM   C15F14189   3.141   5.498   7.871 -0.2880  0.4473  0.0311
  131OSM   H15F14190   3.100   5.601   7.864 -1.4132  0.0345  0.3894
  131OSM   H15G14191   3.216   5.479   7.790 -1.3195 -0.5907 -0.7143
  131OSM   C16F14192   3.200   5.492   8.010  0.3453 -0.2581 -0.2015
  131OSM   H16F14193   3.273   5.575   8.022  1.0763 -0.5289 -2.3246
  131OSM   H16G14194   3.258   5.399   8.026  1.0267  0.3962  1.3264
  131OSM   C17F14195   3.100   5.490   8.127  0.3300  0.0106 -0.2913
  131OSM   H17F14196   3.162   5.488   8.219 -0.7959  1.2510  0.5225
  131OSM   H17G14197   3.028   5.406   8.116 -1.0357  1.0822  0.2128
  131OSM   C18F14198   3.022   5.615   8.142 -0.1175 -0.1302  0.3409
  131OSM   H18F14199   3.085   5.707   8.142 -0.9555  0.4991 -1.2800
  131OSM   H18G14200   2.984   5.622   8.246  0.8748 -0.8027  0.7620
  131OSM   H18H14201   2.942   5.639   8.069 -0.7207  1.6669  1.5074
  132OSM      N14202   6.151   6.329   6.165  1.3282  0.5706 -0.4670
  132OSM    C1514203   6.137   6.223   6.271 -0.0431  0.8494 -0.5700
  132OSM   H15A14204   6.052   6.240   6.334  1.6125  3.6633  1.1153
  132OSM   H15B14205   6.213   6.214   6.347 -1.0188 -1.6697  0.2158
  132OSM   H15C14206   6.139   6.126   6.222  0.2400  0.4247  0.2744
  132OSM    C1414207   6.277   6.303   6.097 -0.1904  0.3690  0.0915
  132OSM   H14A14208   6.288   6.196   6.088  0.1884  0.3811  0.3940
  132OSM   H14B14209   6.363   6.344   6.148 -0.4992 -0.0200  0.9402
  132OSM   H14C14210   6.264   6.350   6.000 -0.3950  1.5026  0.6609
  132OSM    C1314211   6.039   6.313   6.065 -0.5992  1.2747 -0.0811
  132OSM   H13A14212   6.046   6.382   5.982  0.3001 -0.5288 -1.5828
  132OSM   H13B14213   5.940   6.331   6.104 -0.5053  0.9705  0.2977
  132OSM   H13C14214   6.045   6.214   6.023  1.2125  1.0593  0.6078
  132OSM    C1214215   6.137   6.451   6.245  0.1260  0.5306 -0.1722
  132OSM   H12A14216   6.176   6.529   6.181 -1.3442  0.4588 -1.1953
  132OSM   H12B14217   6.211   6.448   6.324 -0.7657  0.6779  0.6768
  132OSM    C1114218   5.997   6.497   6.286 -0.0293  0.4536 -0.8112
  132OSM   H11A14219   5.935   6.505   6.195 -1.2370 -0.5588 -0.1100
  132OSM   H11B14220   6.004   6.591   6.345 -1.5778  0.4500 -0.5641
  132OSM      P14221   5.820   6.403   6.462  0.1841 -0.0262 -0.3072
  132OSM    O1314222   5.693   6.357   6.402 -0.5593 -0.1728 -0.4543
  132OSM    O1414223   5.839   6.342   6.593  0.3503 -0.4835 -0.4610
  132OSM    O1114224   5.823   6.560   6.494  0.4029 -0.3958 -0.3168
  132OSM    O1214225   5.947   6.391   6.371 -0.7600 -0.2862 -0.6390
  132OSM    C1S14226   5.720   6.621   6.582  0.1975 -0.2696 -0.9688
  132OSM    H1S14227   5.626   6.561   6.588  0.0453 -0.0115 -0.7386
  132OSM    H1T14228   5.683   6.715   6.537 -0.2246 -0.2251 -0.5440
  132OSM     NF14229   5.676   6.668   6.826 -0.2724  0.4515 -0.0579
  132OSM    HNF14230   5.662   6.762   6.858  0.0232  1.2260 -2.0550
  132OSM    C2S14231   5.776   6.644   6.728  0.2273  0.4827 -0.0109
  132OSM    H2S14232   5.831   6.550   6.752 -1.3788 -0.5755 -0.3856
  132OSM    C3S14233   5.883   6.753   6.722  0.5433 -0.3827 -0.2849
  132OSM    H3S14234   5.827   6.848   6.706  0.5035 -0.0856  1.3986
  132OSM     O314235   5.978   6.731   6.617 -0.3435 -0.2887 -0.5248
  132OSM    HO314236   5.942   6.658   6.567  1.9166 -2.1703  0.4388
  132OSM    C4S14237   5.960   6.762   6.857  0.0062  0.3040 -0.3993
  132OSM    H4S14238   6.021   6.673   6.877 -0.6539 -0.3167 -1.0924
  132OSM    C5S14239   5.958   6.865   6.945  0.1329  0.5094  0.2036
  132OSM    H5S14240   5.905   6.957   6.917  0.9023  0.6303 -0.9181
  132OSM    C6S14241   6.047   6.870   7.070 -0.1335 -0.2734 -0.3317
  132OSM    H6S14242   6.114   6.957   7.058  1.3043 -1.1536  0.9814
  132OSM    H6T14243   6.119   6.785   7.079 -0.3752 -0.8823 -3.1470
  132OSM    C7S14244   5.963   6.892   7.201 -0.2657  0.3143  0.1245
  132OSM    H7S14245   5.903   6.803   7.228  0.3999 -0.2493 -0.2208
  132OSM    H7T14246   5.893   6.978   7.204  1.5454  1.9418 -1.4817
  132OSM    C8S14247   6.061   6.913   7.318 -0.4667 -0.6338 -0.3620
  132OSM    H8S14248   6.118   7.005   7.293 -0.6270 -0.5534 -0.4296
  132OSM    H8T14249   6.119   6.818   7.326 -0.3935 -0.4574  1.5089
  132OSM    C9S14250   5.988   6.941   7.452  0.1354  0.2792  0.1269
  132OSM    H9S14251   5.928   6.849   7.461  1.1879 -0.4823 -0.3139
  132OSM    H9T14252   5.929   7.034   7.436  1.3902  0.7496 -2.3792
  132OSM   C10S14253   6.095   6.966   7.556 -0.4039  0.5671  0.2147
  132OSM   H10S14254   6.157   7.055   7.531 -0.8805  1.0354  0.6624
  132OSM   H10T14255   6.166   6.881   7.557 -1.9859 -0.7987  0.3412
  132OSM   C11S14256   6.029   6.962   7.695 -0.0964 -0.5309 -0.1718
  132OSM   H11S14257   5.971   6.867   7.699  2.7202 -2.3604  0.6009
  132OSM   H11T14258   5.969   7.055   7.698 -0.2297 -0.6403  0.9019
  132OSM   C12S14259   6.115   6.971   7.822  0.4283 -0.3708  0.3472
  132OSM   H12S14260   6.174   7.065   7.816 -3.0848  2.1635  1.9897
  132OSM   H12T14261   6.185   6.884   7.825 -0.9346 -1.4832  1.9048
  132OSM   C13S14262   6.025   6.978   7.946  0.1631  0.1541  0.0848
  132OSM   H13S14263   5.992   6.872   7.953  1.7528 -0.3571  0.3703
  132OSM   H13T14264   5.941   7.046   7.922 -0.1840 -0.8923 -1.8640
  132OSM   C14S14265   6.092   7.025   8.072 -0.2462  0.3568  0.2893
  132OSM   H14S14266   6.129   7.129   8.056  1.0720 -0.1025  0.1780
  132OSM   H14T14267   6.173   6.950   8.086 -1.0257 -0.2102  2.0382
  132OSM   C15S14268   6.003   7.029   8.197 -0.7165 -0.3284  0.1480
  132OSM   H15S14269   5.997   6.929   8.244 -2.9613  0.1876  1.0575
  132OSM   H15T14270   5.897   7.056   8.178 -1.2432 -2.2458  0.1759
  132OSM   C16S14271   6.061   7.135   8.303 -0.5082  0.9484  0.3895
  132OSM   H16S14272   6.096   7.227   8.253  1.7294 -0.3160 -0.4986
  132OSM   H16T14273   6.148   7.100   8.363 -0.7932  0.3439  0.4622
  132OSM   C17S14274   5.940   7.172   8.396 -0.8743  1.0936 -0.1164
  132OSM   H17S14275   5.907   7.075   8.440  0.6869  0.6729  0.2075
  132OSM   H17T14276   5.856   7.215   8.339 -0.8255  2.5790  0.8757
  132OSM   C18S14277   5.983   7.273   8.509  0.5181  0.6167 -0.3817
  132OSM   H18S14278   6.036   7.356   8.457  1.2503 -0.9082 -2.1758
  132OSM   H18T14279   6.056   7.222   8.576  1.0555 -0.1111 -1.4927
  132OSM   H18U14280   5.899   7.303   8.576  1.5139  0.7593  0.8438
  132OSM    C1F14281   5.588   6.580   6.869 -0.4535  0.0086 -0.2272
  132OSM     OF14282   5.599   6.464   6.836  0.1342 -0.6049  0.0029
  132OSM    C2F14283   5.479   6.628   6.956  0.0808 -0.6939 -0.0062
  132OSM    H2F14284   5.387   6.588   6.906  0.4943 -3.0178  0.9413
  132OSM    H2G14285   5.487   6.738   6.961  1.1186 -0.6283 -1.9867
  132OSM    C3F14286   5.507   6.576   7.097  0.5126 -0.5518  0.2271
  132OSM    H3F14287   5.591   6.626   7.150  1.0363  1.6568 -2.4268
  132OSM    H3G14288   5.520   6.466   7.094  3.2118 -0.3446  1.0332
  132OSM    C4F14289   5.389   6.602   7.189  0.5933  0.2581 -0.2899
  132OSM    H4F14290   5.293   6.576   7.139  0.9895  0.1352 -0.9991
  132OSM    H4G14291   5.384   6.711   7.211 -2.2525  0.6170 -2.1162
  132OSM    C5F14292   5.404   6.541   7.322  0.2290  0.1766 -0.6311
  132OSM    H5F14293   5.510   6.569   7.343  0.1280  0.7290 -0.8390
  132OSM    H5G14294   5.397   6.430   7.315 -2.7308  0.2697 -0.2587
  132OSM    C6F14295   5.304   6.601   7.428  0.9068  0.6295 -0.5207
  132OSM    H6F14296   5.207   6.547   7.418  0.8888 -0.0087  2.2290
  132OSM    H6G14297   5.296   6.711   7.419  1.3388  0.8534  1.3180
  132OSM    C7F14298   5.363   6.573   7.568 -0.4943  0.1413 -0.6551
  132OSM    H7F14299   5.454   6.633   7.588  1.1295 -2.5991  0.7763
  132OSM    H7G14300   5.385   6.464   7.576 -1.0127 -0.0577 -1.7605
  132OSM    C8F14301   5.260   6.600   7.677 -0.0270  0.1452 -0.2549
  132OSM    H8F14302   5.160   6.563   7.647 -1.1331  2.0445  0.8560
  132OSM    H8G14303   5.258   6.711   7.683  0.1937  0.1248  0.3392
  132OSM    C9F14304   5.315   6.544   7.803  0.2163  0.5760  0.2464
  132OSM    H9F14305   5.410   6.577   7.847  0.4146  1.3812 -0.7540
  132OSM   C10F14306   5.243   6.472   7.890 -0.0402  0.0092  0.0199
  132OSM   H10F14307   5.291   6.443   7.985 -1.2763 -1.8720  0.1361
  132OSM   C11F14308   5.101   6.419   7.871 -0.1254  0.3799 -0.2646
  132OSM   H11F14309   5.088   6.413   7.760  2.2618 -0.5763 -0.5554
  132OSM   H11G14310   5.028   6.488   7.916 -1.0077 -1.5204  1.3669
  132OSM   C12F14311   5.094   6.282   7.935  0.1026  0.3317  0.8798
  132OSM   H12F14312   5.082   6.293   8.045  1.4507 -1.3516  1.2412
  132OSM   H12G14313   5.191   6.234   7.908 -0.9955 -1.5404  0.0520
  132OSM   C13F14314   4.983   6.203   7.864 -0.4006  0.3029  0.0984
  132OSM   H13F14315   5.002   6.179   7.757  2.6821  0.7158  0.4668
  132OSM   H13G14316   4.888   6.259   7.865 -2.3888 -2.8006  0.6855
  132OSM   C14F14317   4.964   6.064   7.927 -0.7800 -0.1519 -0.8831
  132OSM   H14F14318   4.987   6.074   8.035 -0.4003  2.1977 -1.1320
  132OSM   H14G14319   5.042   5.996   7.884 -2.5871 -2.9473 -0.0268
  132OSM   C15F14320   4.842   5.979   7.906 -0.2182  0.2992 -0.0548
  132OSM   H15F14321   4.802   5.999   7.805  1.3728  2.6114 -0.3132
  132OSM   H15G14322   4.758   6.018   7.968 -0.1393 -0.9607  0.8851
  132OSM   C16F14323   4.856   5.830   7.923 -0.6085 -0.4285  0.0950
  132OSM   H16F14324   4.920   5.780   7.846 -0.7990 -1.0727  0.3455
  132OSM   H16G14325   4.753   5.788   7.917 -0.6886 -0.0385 -2.4734
  132OSM   C17F14326   4.911   5.792   8.060  0.0938 -0.0430 -0.1596
  132OSM   H17F14327   4.849   5.840   8.139  0.8339  1.4583 -0.4684
  132OSM   H17G14328   5.010   5.840   8.075  0.1844 -0.2489 -0.0815
  132OSM   C18F14329   4.923   5.642   8.087 -0.4118  0.4459 -0.0971
  132OSM   H18F14330   4.959   5.624   8.190  2.1083  1.6125 -0.7099
  132OSM   H18G14331   4.992   5.595   8.013 -0.1213  2.6492 -1.3252
  132OSM   H18H14332   4.823   5.592   8.081 -1.0861  1.4027  2.2796
  133OSM      N14333   0.562   0.536   5.988 -0.1437 -0.5632  0.1198
  133OSM    C1514334   0.417   0.565   6.017  0.1378  0.2781  0.4720
  133OSM   H15A14335   0.398   0.566   6.124 -0.6936 -1.4526  0.3655
  133OSM   H15B14336   0.352   0.498   5.964  0.2975  1.5299 -1.4207
  133OSM   H15C14337   0.397   0.667   5.985 -0.0527  0.2352  0.4547
  133OSM    C1414338   0.593   0.393   6.027 -0.0761 -0.0233  0.1771
  133OSM   H14A14339   0.529   0.321   5.980  0.5372 -0.5374  0.1143
  133OSM   H14B14340   0.604   0.376   6.133  1.0437  2.0134  0.4502
  133OSM   H14C14341   0.695   0.373   5.997  0.2431  1.3587  0.2777
  133OSM    C1314342   0.585   0.534   5.836 -1.0870 -0.0874  0.1916
  133OSM   H13A14343   0.528   0.461   5.782 -0.8928  0.0204 -0.1582
  133OSM   H13B14344   0.690   0.527   5.812 -1.1683  0.4345 -0.3299
  133OSM   H13C14345   0.567   0.629   5.788  0.0929  0.5379  0.9366
  133OSM    C1214346   0.655   0.629   6.063  0.2587  0.2314  0.0110
  133OSM   H12A14347   0.598   0.721   6.061 -2.2959 -1.2237  1.2675
  133OSM   H12B14348   0.750   0.643   6.013  0.5029  1.1377  0.6891
  133OSM    C1114349   0.669   0.613   6.214  0.6077  0.3838  0.1386
  133OSM   H11A14350   0.760   0.668   6.246 -0.9652  3.0259  0.3806
  133OSM   H11B14351   0.694   0.509   6.246 -0.7400  0.4381  1.4957
  133OSM      P14352   0.530   0.823   6.309  0.0886 -0.5201  0.1592
  133OSM    O1314353   0.604   0.893   6.205  0.0501 -0.7996 -0.4448
  133OSM    O1414354   0.383   0.846   6.319 -0.5655 -0.4009 -0.7434
  133OSM    O1114355   0.601   0.845   6.443  0.1475  0.4801 -0.3126
  133OSM    O1214356   0.557   0.670   6.286 -0.0637  0.5935 -0.0933
  133OSM    C1S14357   0.554   0.805   6.568  0.6935 -0.2512 -0.0458
  133OSM    H1S14358   0.601   0.710   6.601 -1.6433 -1.7537 -0.7766
  133OSM    H1T14359   0.446   0.777   6.562  0.4797  0.6579 -0.8319
  133OSM     NF14360   0.572   0.847   6.809 -0.1694 -0.4814 -0.2554
  133OSM    HNF14361   0.485   0.872   6.850  0.7563  1.3349  0.6941
  133OSM    C2S14362   0.588   0.909   6.679 -0.1518 -0.8074  0.6220
  133OSM    H2S14363   0.693   0.942   6.666 -0.5454 -0.6192 -2.9006
  133OSM    C3S14364   0.502   1.038   6.660 -0.0874 -0.0684 -0.1853
  133OSM    H3S14365   0.400   0.995   6.666 -0.7065  1.1094 -1.5821
  133OSM     O314366   0.514   1.110   6.535 -0.6327 -0.5051  0.0992
  133OSM    HO314367   0.557   1.046   6.479 -0.0969 -0.2016  0.1526
  133OSM    C4S14368   0.505   1.126   6.779  0.1622  0.3540 -0.5559
  133OSM    H4S14369   0.438   1.096   6.861  0.6125 -3.3465 -1.3371
  133OSM    C5S14370   0.585   1.233   6.793 -0.3198  0.1917  0.1462
  133OSM    H5S14371   0.655   1.263   6.714  1.6407 -3.6116  0.2110
  133OSM    C6S14372   0.608   1.309   6.920 -0.4463 -0.1486 -1.0846
  133OSM    H6S14373   0.594   1.415   6.890  3.2914  0.5471 -0.7562
  133OSM    H6T14374   0.712   1.290   6.952 -0.2591 -0.0137 -1.6021
  133OSM    C7S14375   0.515   1.300   7.037  1.2065  0.4881  0.7027
  133OSM    H7S14376   0.490   1.197   7.072  0.0721  0.0839 -1.1857
  133OSM    H7T14377   0.419   1.335   6.993  1.8061 -0.5217 -1.5400
  133OSM    C8S14378   0.561   1.382   7.161 -0.5160 -0.3502  0.5294
  133OSM    H8S14379   0.618   1.469   7.120 -1.3292 -0.4463 -0.8419
  133OSM    H8T14380   0.634   1.324   7.222  0.8721  0.3982 -0.3679
  133OSM    C9S14381   0.459   1.412   7.264  0.6516 -0.2797 -0.1050
  133OSM    H9S14382   0.395   1.322   7.275  1.0175 -0.6515 -0.9184
  133OSM    H9T14383   0.386   1.489   7.229  0.8628  0.7893  1.6797
  133OSM   C10S14384   0.508   1.458   7.400  0.0031 -1.2368 -0.2010
  133OSM   H10S14385   0.571   1.547   7.380  0.3399 -1.3181  0.4660
  133OSM   H10T14386   0.567   1.385   7.458 -0.1984 -1.7283 -0.6075
  133OSM   C11S14387   0.390   1.505   7.487 -1.3047 -0.4918  0.2572
  133OSM   H11S14388   0.337   1.409   7.504  2.1119 -2.3038  1.6494
  133OSM   H11T14389   0.326   1.581   7.437  0.0667 -0.2314 -1.2022
  133OSM   C12S14390   0.442   1.556   7.620 -0.2101  0.3949  0.4839
  133OSM   H12S14391   0.523   1.628   7.598 -2.5663  2.5486 -1.7186
  133OSM   H12T14392   0.482   1.472   7.681  2.1893  1.4153  0.4377
  133OSM   C13S14393   0.340   1.638   7.694 -0.2488 -0.0534  0.0912
  133OSM   H13S14394   0.244   1.585   7.714  0.8934 -2.0564  0.5679
  133OSM   H13T14395   0.320   1.722   7.624 -0.4696  1.0274  1.4324
  133OSM   C14S14396   0.386   1.695   7.833 -0.4641 -0.1783  0.1288
  133OSM   H14S14397   0.333   1.789   7.857  0.8066  0.4117  0.7600
  133OSM   H14T14398   0.493   1.722   7.821 -0.4834 -0.6707 -1.3735
  133OSM   C15S14399   0.356   1.601   7.950 -0.6674  0.0782  0.2183
  133OSM   H15S14400   0.411   1.505   7.937 -0.2911  0.4315 -0.8724
  133OSM   H15T14401   0.250   1.567   7.956 -0.4848 -0.9814 -1.7630
  133OSM   C16S14402   0.395   1.672   8.084  0.2183  0.7654  0.5667
  133OSM   H16S14403   0.353   1.774   8.076 -0.8559  0.3376  0.5935
  133OSM   H16T14404   0.505   1.678   8.092  0.2814  0.3218  0.0882
  133OSM   C17S14405   0.340   1.601   8.210 -0.2538  0.2139  1.0067
  133OSM   H17S14406   0.365   1.493   8.208 -0.4824  0.0869  2.7596
  133OSM   H17T14407   0.229   1.603   8.216 -0.2760 -0.6929  1.1407
  133OSM   C18S14408   0.400   1.668   8.335 -0.8066 -0.0282 -0.1635
  133OSM   H18S14409   0.511   1.675   8.342 -0.7744  3.2831 -2.0161
  133OSM   H18T14410   0.377   1.617   8.431  2.3719  0.0243  0.7340
  133OSM   H18U14411   0.365   1.772   8.350 -2.0019 -0.5513  0.7959
  133OSM    C1F14412   0.647   0.758   6.867 -0.2988  0.2679 -0.1566
  133OSM     OF14413   0.757   0.738   6.826  0.1527 -0.1643 -0.0802
  133OSM    C2F14414   0.582   0.679   6.974  0.4997  0.0319  0.5317
  133OSM    H2F14415   0.630   0.579   6.978  0.9697  0.2247 -0.0915
  133OSM    H2G14416   0.474   0.678   6.948 -0.1123  0.4174  2.8537
  133OSM    C3F14417   0.616   0.730   7.118 -0.6946 -0.0456 -0.6310
  133OSM    H3F14418   0.701   0.677   7.166 -0.6301  0.2837 -0.3799
  133OSM    H3G14419   0.530   0.693   7.177  2.8494 -1.9341  3.9408
  133OSM    C4F14420   0.633   0.881   7.133  0.4965  0.3214  0.1101
  133OSM    H4F14421   0.544   0.932   7.091  0.5564  0.3812  0.0544
  133OSM    H4G14422   0.723   0.913   7.076 -0.3711 -1.9217 -2.7533
  133OSM    C5F14423   0.645   0.930   7.279 -0.0009 -0.6619  0.8123
  133OSM    H5F14424   0.583   0.871   7.351  0.3877  1.6247  3.1652
  133OSM    H5G14425   0.603   1.032   7.274  0.1944 -0.6112  0.0913
  133OSM    C6F14426   0.790   0.947   7.334 -0.0354  0.1204  0.0489
  133OSM    H6F14427   0.856   1.012   7.272 -1.8478  1.1577 -0.8585
  133OSM    H6G14428   0.842   0.851   7.353  2.0143  1.7052  3.3983
  133OSM    C7F14429   0.783   1.014   7.469 -0.5825 -0.0945  0.0420
  133OSM    H7F14430   0.860   0.968   7.534 -0.2258 -1.5376 -1.3256
  133OSM    H7G14431   0.684   0.992   7.516 -0.8621 -0.9123 -0.8883
  133OSM    C8F14432   0.804   1.172   7.474 -0.4652 -0.3699 -0.4473
  133OSM    H8F14433   0.749   1.219   7.558  0.5413  1.2678 -0.6553
  133OSM    H8G14434   0.768   1.222   7.381  0.5623  3.3192  0.9556
  133OSM    C9F14435   0.955   1.200   7.473  0.5539  0.2878 -0.4762
  133OSM    H9F14436   1.004   1.197   7.374  0.8308 -1.2335 -0.3199
  133OSM   C10F14437   1.034   1.226   7.577  0.2454 -0.2888  0.5250
  133OSM   H10F14438   1.142   1.240   7.558  0.2714 -0.7759  0.2762
  133OSM   C11F14439   0.998   1.243   7.719  0.0043  0.7800  0.3927
  133OSM   H11F14440   0.898   1.200   7.739  0.2608  1.1632  2.8140
  133OSM   H11G14441   1.009   1.352   7.739  0.6356  0.5468  1.4178
  133OSM   C12F14442   1.088   1.163   7.820  0.2148 -0.1270 -0.1104
  133OSM   H12F14443   1.194   1.191   7.800 -0.6832  3.5465 -0.5065
  133OSM   H12G14444   1.071   1.056   7.796 -1.4638 -0.3277  1.7951
  133OSM   C13F14445   1.067   1.186   7.975  0.8110  0.3384  0.6698
  133OSM   H13F14446   1.093   1.287   8.012  0.8654  0.1289  1.2160
  133OSM   H13G14447   1.127   1.112   8.032 -0.0044  0.1256  1.2688
  133OSM   C14F14448   0.917   1.151   8.010  0.6342  0.3390 -0.4249
  133OSM   H14F14449   0.899   1.049   7.971 -0.5348 -0.5009  2.1356
  133OSM   H14G14450   0.842   1.208   7.951  0.9796 -1.1480 -2.3912
  133OSM   C15F14451   0.884   1.150   8.161 -0.1506  0.1708  0.4944
  133OSM   H15F14452   0.779   1.119   8.178 -0.1985  0.3328  0.4926
  133OSM   H15G14453   0.898   1.256   8.192 -0.2802  0.7913 -1.4634
  133OSM   C16F14454   0.986   1.074   8.243 -0.4406  0.4777 -0.5980
  133OSM   H16F14455   1.091   1.110   8.249 -0.6024  0.7383  2.4304
  133OSM   H16G14456   0.997   0.971   8.203 -0.0210  0.3561 -0.1821
  133OSM   C17F14457   0.951   1.057   8.396 -0.8369  0.0844  0.4547
  133OSM   H17F14458   0.873   0.979   8.406 -1.6886  0.8533 -0.0550
  133OSM   H17G14459   0.919   1.159   8.427  0.4420  0.3544  0.9486
  133OSM   C18F14460   1.072   1.022   8.480  0.0806  0.3446 -0.5679
  133OSM   H18F14461   1.164   1.080   8.457 -1.1045  1.9153 -1.6133
  133OSM   H18G14462   1.093   0.914   8.467 -1.0726  0.2073 -1.4309
  133OSM   H18H14463   1.058   1.028   8.590  0.7130  1.3468 -0.5286
  134OSM      N14464   0.329   2.484   6.099 -0.2039  0.3871 -0.1171
  134OSM    C1514465   0.300   2.343   6.151 -0.0220  0.2615 -0.1495
  134OSM   H15A14466   0.194   2.319   6.155  0.3352 -1.6374 -0.8874
  134OSM   H15B14467   0.333   2.327   6.253  0.9503  0.2988 -0.4554
  134OSM   H15C14468   0.352   2.270   6.090  2.8276  1.0855  1.1279
  134OSM    C1414469   0.476   2.487   6.069  0.2769  1.1342  0.3942
  134OSM   H14A14470   0.508   2.436   5.979 -1.4038 -1.5860  1.2128
  134OSM   H14B14471   0.519   2.433   6.152 -0.3260  0.8617  0.5355
  134OSM   H14C14472   0.519   2.586   6.056  2.1265  0.2321 -0.8622
  134OSM    C1314473   0.247   2.522   5.978  0.0276 -0.0765 -0.5273
  134OSM   H13A14474   0.289   2.611   5.932  1.6816 -0.7236 -0.3140
  134OSM   H13B14475   0.143   2.525   6.008  0.4128 -1.7698  1.1438
  134OSM   H13C14476   0.251   2.448   5.900 -0.8001  0.1520 -0.7993
  134OSM    C1214477   0.311   2.586   6.206  0.4508 -0.7110 -0.2707
  134OSM   H12A14478   0.211   2.581   6.247 -0.2801  2.5785 -1.3713
  134OSM   H12B14479   0.322   2.682   6.160  0.2212 -0.4093  0.2920
  134OSM    C1114480   0.400   2.579   6.337  0.4014 -0.4464  0.9152
  134OSM   H11A14481   0.380   2.666   6.402  1.2535  0.4538  0.0077
  134OSM   H11B14482   0.504   2.597   6.303  0.5850 -0.1839  1.6173
  134OSM      P14483   0.259   2.424   6.499 -0.1752 -0.1706 -0.2532
  134OSM    O1314484   0.136   2.476   6.437 -0.3253  0.0964 -0.7350
  134OSM    O1414485   0.255   2.278   6.523 -0.6916  0.4635 -0.7551
  134OSM    O1114486   0.281   2.506   6.630  0.4010  0.1737  0.1635
  134OSM    O1214487   0.382   2.456   6.408 -0.3399 -0.2002  0.1295
  134OSM    C1S14488   0.238   2.644   6.639  1.3228 -0.5480 -0.3555
  134OSM    H1S14489   0.132   2.645   6.608  1.4274 -0.6749 -0.7195
  134OSM    H1T14490   0.289   2.703   6.560 -1.0213  0.0875 -1.4655
  134OSM     NF14491   0.173   2.839   6.784 -0.8285  0.2198  0.0460
  134OSM    HNF14492   0.225   2.921   6.804 -1.1532  1.0055 -2.0626
  134OSM    C2S14493   0.256   2.723   6.773 -0.6018  0.0657  0.3951
  134OSM    H2S14494   0.231   2.651   6.854  1.3704  1.2463  2.1720
  134OSM    C3S14495   0.405   2.755   6.795 -0.5610  0.2088  0.0888
  134OSM    H3S14496   0.431   2.846   6.736 -0.6899  1.3110  1.6676
  134OSM     O314497   0.501   2.654   6.762  0.5604 -1.1022  0.3297
  134OSM    HO314498   0.449   2.594   6.708 -0.2096 -2.3912  2.3842
  134OSM    C4S14499   0.425   2.792   6.943 -0.0392  1.0974 -0.0039
  134OSM    H4S14500   0.395   2.713   7.013  0.1868  0.5085 -0.5706
  134OSM    C5S14501   0.469   2.913   6.985 -0.1477  0.7433  0.4419
  134OSM    H5S14502   0.480   2.995   6.912  0.3642 -1.3756 -1.9931
  134OSM    C6S14503   0.490   2.955   7.125 -0.7382  0.1305 -0.0263
  134OSM    H6S14504   0.553   3.046   7.131 -1.0211  0.3577 -0.3935
  134OSM    H6T14505   0.538   2.875   7.185 -2.1757 -0.8654 -0.1546
  134OSM    C7S14506   0.353   2.991   7.200 -0.5648  0.4006 -0.3354
  134OSM    H7S14507   0.279   2.908   7.198  0.4307 -0.5155 -0.3792
  134OSM    H7T14508   0.309   3.082   7.154 -0.0593  1.4050  1.0644
  134OSM    C8S14509   0.379   3.004   7.349 -0.4768 -0.9972  0.1056
  134OSM    H8S14510   0.445   3.087   7.383 -2.1084  0.8863 -1.1268
  134OSM    H8T14511   0.433   2.916   7.391 -0.5327 -1.7574 -1.3706
  134OSM    C9S14512   0.251   3.014   7.430 -0.5527  0.2785  0.2880
  134OSM    H9S14513   0.185   2.934   7.393  0.8085 -1.0374  0.6197
  134OSM    H9T14514   0.214   3.116   7.405 -1.4156  0.2002  1.1948
  134OSM   C10S14515   0.272   3.018   7.580 -0.3344 -0.2594  0.4713
  134OSM   H10S14516   0.324   3.114   7.602 -1.4053 -0.0957  2.5717
  134OSM   H10T14517   0.346   2.942   7.612 -1.1171 -1.6144 -0.7920
  134OSM   C11S14518   0.144   3.015   7.667 -0.3724 -0.1295  0.1112
  134OSM   H11S14519   0.079   2.930   7.636  0.9396 -1.2098  0.1992
  134OSM   H11T14520   0.085   3.107   7.652 -2.0067 -1.2045 -0.3740
  134OSM   C12S14521   0.181   3.011   7.813  0.4353 -0.1381 -0.0877
  134OSM   H12S14522   0.236   3.101   7.845 -2.9344  1.3771  1.9877
  134OSM   H12T14523   0.246   2.922   7.830 -0.7204 -0.9649  0.1659
  134OSM   C13S14524   0.061   3.016   7.910 -0.0473 -0.2753 -0.0308
  134OSM   H13S14525  -0.008   2.931   7.888 -1.8337  1.0819  0.0618
  134OSM   H13T14526   0.003   3.107   7.885  0.9315  0.2018 -0.5879
  134OSM   C14S14527   0.105   3.003   8.063 -0.5668 -0.3501 -0.1162
  134OSM   H14S14528   0.167   3.094   8.077  0.3207 -0.7458 -1.3054
  134OSM   H14T14529   0.159   2.907   8.073 -0.8771 -0.8807 -2.7891
  134OSM   C15S14530  -0.013   2.988   8.171 -0.0359  0.2802 -0.3456
  134OSM   H15S14531   0.034   2.931   8.254  1.4472 -1.5366 -2.3228
  134OSM   H15T14532  -0.088   2.923   8.122 -0.4156  1.1209 -0.9093
  134OSM   C16S14533  -0.076   3.121   8.232  0.9008 -0.1564 -0.2733
  134OSM   H16S14534   0.005   3.173   8.286 -1.0891  1.0874  1.6614
  134OSM   H16T14535  -0.152   3.095   8.309  2.8085  0.0458  1.7707
  134OSM   C17S14536  -0.150   3.223   8.145  0.1856  0.2619  0.2288
  134OSM   H17S14537  -0.234   3.165   8.101 -1.0885  0.5191  2.2093
  134OSM   H17T14538  -0.083   3.256   8.063  0.2291  0.1484  0.2184
  134OSM   C18S14539  -0.197   3.347   8.222  0.4781 -0.2692 -0.2098
  134OSM   H18S14540  -0.252   3.308   8.311  2.3456 -1.5307  0.4568
  134OSM   H18T14541  -0.256   3.412   8.153  0.7538  1.4642  1.1277
  134OSM   H18U14542  -0.112   3.408   8.257  1.3843 -1.3709 -0.4353
  134OSM    C1F14543   0.040   2.827   6.796  0.1519  0.5044  0.6674
  134OSM     OF14544  -0.011   2.716   6.815 -0.0420 -0.1863 -0.1661
  134OSM    C2F14545  -0.030   2.959   6.794  0.5680 -0.9892  0.4141
  134OSM    H2F14546  -0.045   3.003   6.693 -0.4834 -0.0515  0.9500
  134OSM    H2G14547   0.026   3.030   6.858  0.1200 -3.1183  3.3513
  134OSM    C3F14548  -0.179   2.942   6.850 -0.4565 -0.5616  0.2320
  134OSM    H3F14549  -0.220   2.859   6.788 -0.0379 -0.0704 -0.7275
  134OSM    H3G14550  -0.241   3.028   6.819 -1.9283 -1.6269  0.0974
  134OSM    C4F14551  -0.197   2.911   6.997 -0.2289  0.7945  0.1229
  134OSM    H4F14552  -0.139   2.820   7.024  0.1898  1.0118 -0.0312
  134OSM    H4G14553  -0.304   2.887   7.016  0.0925 -2.2999 -1.2237
  134OSM    C5F14554  -0.139   3.023   7.090  0.7879  0.4750  0.5687
  134OSM    H5F14555  -0.160   3.119   7.038 -4.3353 -0.5112  0.2117
  134OSM    H5G14556  -0.029   3.018   7.104  0.9611 -2.7358 -0.9459
  134OSM    C6F14557  -0.211   3.025   7.221 -0.1708 -0.0964  0.4331
  134OSM    H6F14558  -0.314   3.063   7.207  0.1061  1.3758  2.0324
  134OSM    H6G14559  -0.162   3.112   7.269 -2.5879  0.7736  1.4566
  134OSM    C7F14560  -0.205   2.902   7.306 -0.3869 -0.2949  0.3976
  134OSM    H7F14561  -0.100   2.883   7.337 -1.1759 -1.5996  2.4702
  134OSM    H7G14562  -0.229   2.812   7.245 -0.6216  2.0588 -3.2559
  134OSM    C8F14563  -0.290   2.894   7.429  0.6067 -0.0304  0.2113
  134OSM    H8F14564  -0.253   2.799   7.473  1.1761  0.1573  0.1457
  134OSM    H8G14565  -0.396   2.894   7.396  1.1710 -0.8414 -1.6951
  134OSM    C9F14566  -0.263   3.012   7.523 -0.0399  0.2720  0.5180
  134OSM    H9F14567  -0.251   3.111   7.476  1.4070  1.1751  2.6041
  134OSM   C10F14568  -0.242   3.004   7.655  0.7706  0.0144  0.2598
  134OSM   H10F14569  -0.239   3.098   7.712 -1.0003  1.0023 -1.1848
  134OSM   C11F14570  -0.255   2.878   7.736  0.4292 -0.4186 -0.1328
  134OSM   H11F14571  -0.161   2.820   7.731 -0.3460 -1.7444  0.0319
  134OSM   H11G14572  -0.329   2.809   7.690  2.3370 -2.7716  0.1511
  134OSM   C12F14573  -0.301   2.922   7.882  0.1298  0.3125 -0.1738
  134OSM   H12F14574  -0.397   2.978   7.878 -0.8902 -1.4123 -1.5847
  134OSM   H12G14575  -0.220   2.985   7.923  0.3150 -1.5771  2.6627
  134OSM   C13F14576  -0.328   2.805   7.977 -0.3320  0.0638 -0.1336
  134OSM   H13F14577  -0.224   2.770   7.991  0.1653  1.4449 -0.1942
  134OSM   H13G14578  -0.386   2.729   7.922 -0.4512 -2.0494  2.6844
  134OSM   C14F14579  -0.396   2.858   8.106 -0.4746 -0.1172  0.1087
  134OSM   H14F14580  -0.494   2.903   8.080  0.2814  2.7152  1.6809
  134OSM   H14G14581  -0.335   2.946   8.135 -1.5314  0.1661  1.6178
  134OSM   C15F14582  -0.399   2.775   8.227  0.9188  0.1436 -0.2000
  134OSM   H15F14583  -0.304   2.723   8.251  0.4230 -0.3590  0.7754
  134OSM   H15G14584  -0.470   2.692   8.206  0.2536  0.8030 -0.6144
  134OSM   C16F14585  -0.442   2.864   8.343  0.2051 -0.5921 -0.1655
  134OSM   H16F14586  -0.542   2.906   8.320 -0.7307 -3.3587 -1.6764
  134OSM   H16G14587  -0.369   2.946   8.358  1.2386 -1.6203  0.6638
  134OSM   C17F14588  -0.424   2.797   8.485  0.3877 -0.4891  0.7469
  134OSM   H17F14589  -0.314   2.794   8.494  0.3188  0.6929  2.2610
  134OSM   H17G14590  -0.462   2.692   8.485  0.1358 -0.4062  1.7007
  134OSM   C18F14591  -0.491   2.854   8.608  0.8425 -0.2291  0.7812
  134OSM   H18F14592  -0.431   2.825   8.696  2.5357 -3.1605 -1.1631
  134OSM   H18G14593  -0.592   2.809   8.601  1.0556 -0.5105 -3.4182
  134OSM   H18H14594  -0.500   2.964   8.600  0.9500 -0.0359  2.8546
  135OSM      N14595   0.539   1.277   6.200 -0.7928  0.0613  0.3531
  135OSM    C1514596   0.540   1.165   6.104 -0.2741 -0.1999 -0.4886
  135OSM   H15A14597   0.539   1.066   6.147 -0.0833  0.6426  1.5675
  135OSM   H15B14598   0.620   1.176   6.032  0.5568  1.4904  0.6291
  135OSM   H15C14599   0.449   1.173   6.046 -0.5028  1.3186  0.0368
  135OSM    C1414600   0.542   1.405   6.126 -0.4144 -0.4119 -0.2091
  135OSM   H14A14601   0.644   1.429   6.099  0.7587 -4.3657  0.1635
  135OSM   H14B14602   0.518   1.487   6.192  0.7512  0.6265 -1.0331
  135OSM   H14C14603   0.468   1.401   6.047  0.5360 -1.1392 -1.0985
  135OSM    C1314604   0.410   1.275   6.286 -0.7027 -0.5005  0.4250
  135OSM   H13A14605   0.326   1.286   6.220  1.0442  0.9174 -1.7068
  135OSM   H13B14606   0.423   1.354   6.359 -0.0900  0.1247 -0.3504
  135OSM   H13C14607   0.412   1.186   6.347  2.5423  0.8590  2.5847
  135OSM    C1214608   0.664   1.255   6.292 -0.5661  0.0789  0.1258
  135OSM   H12A14609   0.747   1.237   6.225 -2.1816 -0.3236 -1.8592
  135OSM   H12B14610   0.654   1.166   6.353 -0.0748 -0.5080 -0.6294
  135OSM    C1114611   0.707   1.369   6.389  0.2404  0.5392  0.1208
  135OSM   H11A14612   0.786   1.324   6.452 -1.0331 -0.9056  0.7522
  135OSM   H11B14613   0.619   1.388   6.453 -1.1322  0.9239 -1.7780
  135OSM      P14614   0.900   1.487   6.253 -0.0831  0.5014 -0.2138
  135OSM    O1314615   0.921   1.372   6.166 -0.1175 -0.0192  0.1319
  135OSM    O1414616   0.906   1.620   6.192  0.5834 -0.0927 -0.0398
  135OSM    O1114617   0.995   1.476   6.380 -0.7586  0.5038  0.4778
  135OSM    O1214618   0.761   1.478   6.322  0.0386  0.6112  0.5613
  135OSM    C1S14619   0.991   1.562   6.496 -0.2099 -1.1750  0.6205
  135OSM    H1S14620   0.898   1.623   6.493  0.9566  0.6550 -1.7247
  135OSM    H1T14621   1.082   1.625   6.507 -1.3599  0.3761  1.5602
  135OSM     NF14622   0.944   1.588   6.732  0.0825  0.0371 -0.4140
  135OSM    HNF14623   1.032   1.606   6.775  0.7727  1.0760 -2.1296
  135OSM    C2S14624   0.962   1.488   6.633 -0.7718 -0.3902  0.0552
  135OSM    H2S14625   0.866   1.439   6.609 -2.3607  2.6803 -0.2786
  135OSM    C3S14626   1.066   1.375   6.665 -0.2548  0.3519 -0.2631
  135OSM    H3S14627   1.170   1.414   6.656 -0.2883  0.4915 -0.0457
  135OSM     O314628   1.061   1.269   6.566  0.1387  0.0807 -0.8311
  135OSM    HO314629   1.004   1.309   6.499  2.1650  0.9752 -2.1396
  135OSM    C4S14630   1.054   1.323   6.805  0.2669 -0.2444 -0.0311
  135OSM    H4S14631   1.107   1.388   6.876  0.4703  0.4215 -0.7764
  135OSM    C5S14632   0.997   1.207   6.840  0.6105 -0.4871  0.1875
  135OSM    H5S14633   0.962   1.132   6.768  2.6978 -0.4871 -0.9119
  135OSM    C6S14634   0.998   1.175   6.983 -0.1397 -0.2414 -0.4149
  135OSM    H6S14635   1.077   1.097   6.996  0.3075 -0.3535 -3.1039
  135OSM    H6T14636   0.901   1.125   7.000 -0.0249 -0.3365 -0.0414
  135OSM    C7S14637   1.035   1.272   7.099 -0.2021 -0.5915 -0.0370
  135OSM    H7S14638   1.139   1.311   7.097  0.3551 -1.3591  4.2478
  135OSM    H7T14639   1.032   1.205   7.188  0.7649  0.1408  0.5700
  135OSM    C8S14640   0.933   1.382   7.141  0.8170  0.2769 -0.0149
  135OSM    H8S14641   0.838   1.333   7.170  1.8154 -1.9322 -0.2058
  135OSM    H8T14642   0.922   1.446   7.051 -1.3075  0.0582  0.0439
  135OSM    C9S14643   0.998   1.472   7.246  0.1378  0.1765  0.6644
  135OSM    H9S14644   1.105   1.489   7.220 -0.9995  3.5516 -2.7364
  135OSM    H9T14645   0.988   1.430   7.348  0.1682  1.6953  1.3250
  135OSM   C10S14646   0.927   1.610   7.243 -0.8932  0.5443 -0.8791
  135OSM   H10S14647   0.822   1.608   7.208 -0.9704  1.0126 -0.6760
  135OSM   H10T14648   0.980   1.673   7.169  3.4184 -1.6619 -0.0076
  135OSM   C11S14649   0.939   1.683   7.377  0.3948  0.4272 -0.5398
  135OSM   H11S14650   0.920   1.792   7.363 -0.7065  0.0547 -2.3434
  135OSM   H11T14651   1.041   1.668   7.417 -0.1490 -0.7439  0.4436
  135OSM   C12S14652   0.838   1.643   7.484 -0.4276  0.0610 -0.0716
  135OSM   H12S14653   0.854   1.535   7.503 -2.2240 -0.0297  1.1964
  135OSM   H12T14654   0.735   1.668   7.448 -1.0337 -0.2337  1.3734
  135OSM   C13S14655   0.868   1.697   7.629  0.6482 -0.7724  0.1696
  135OSM   H13S14656   0.852   1.806   7.625  0.3174 -0.7391  1.7603
  135OSM   H13T14657   0.978   1.683   7.641  1.1060  3.3961  2.4678
  135OSM   C14S14658   0.793   1.631   7.739  0.6356  0.3605 -0.0350
  135OSM   H14S14659   0.822   1.524   7.738  1.3336  0.4018 -4.5117
  135OSM   H14T14660   0.683   1.630   7.724  0.6767  2.1270 -0.7155
  135OSM   C15S14661   0.806   1.696   7.876 -0.2594 -0.6616  0.6271
  135OSM   H15S14662   0.740   1.785   7.886 -0.7293 -0.9774  0.3956
  135OSM   H15T14663   0.911   1.731   7.885 -0.9709  1.9498 -0.2950
  135OSM   C16S14664   0.779   1.609   7.997 -0.3892 -0.0238 -0.0464
  135OSM   H16S14665   0.850   1.524   7.989 -0.0418  0.3094 -0.6023
  135OSM   H16T14666   0.677   1.564   7.991  0.1500 -1.1973 -0.6437
  135OSM   C17S14667   0.810   1.683   8.126 -0.0633  0.2570  0.9781
  135OSM   H17S14668   0.744   1.772   8.141  2.2970  1.7876  3.0929
  135OSM   H17T14669   0.916   1.715   8.122  0.1708 -0.6014 -1.0938
  135OSM   C18S14670   0.770   1.579   8.235 -1.2732  0.9129  0.2054
  135OSM   H18S14671   0.817   1.606   8.331  0.3311 -1.9657  0.3409
  135OSM   H18T14672   0.813   1.479   8.214  0.1849  1.5371  0.1355
  135OSM   H18U14673   0.659   1.573   8.240 -1.2825 -0.6194 -0.9535
  135OSM    C1F14674   0.842   1.679   6.755 -0.0407  0.4201 -0.0372
  135OSM     OF14675   0.737   1.677   6.698 -0.2070 -0.2375  0.1706
  135OSM    C2F14676   0.877   1.790   6.853  0.3421 -1.2639 -0.0276
  135OSM    H2F14677   0.986   1.786   6.876  0.5176  2.5867  0.3481
  135OSM    H2G14678   0.812   1.767   6.940 -3.9599 -1.0438 -2.8411
  135OSM    C3F14679   0.851   1.942   6.815  0.2447  1.0175 -0.1738
  135OSM    H3F14680   0.743   1.957   6.793 -0.5490 -3.1875  0.0143
  135OSM    H3G14681   0.899   1.954   6.716 -0.2283 -0.7019 -0.6554
  135OSM    C4F14682   0.895   2.046   6.920 -0.8824  0.6961  0.1839
  135OSM    H4F14683   0.865   2.147   6.887 -0.1541  1.7718  2.6221
  135OSM    H4G14684   1.006   2.043   6.921 -0.8508  0.1222 -1.2564
  135OSM    C5F14685   0.853   2.024   7.059 -0.2093 -0.0132 -0.0031
  135OSM    H5F14686   0.869   1.922   7.101 -0.2921 -0.4339 -0.9806
  135OSM    H5G14687   0.745   2.041   7.078 -0.4603 -2.0934  0.7340
  135OSM    C6F14688   0.946   2.110   7.153  0.6303 -0.2254  0.0089
  135OSM    H6F14689   0.967   2.208   7.104 -1.1255  0.4439  0.5048
  135OSM    H6G14690   1.044   2.058   7.157  0.5782 -0.3968 -0.7206
  135OSM    C7F14691   0.878   2.114   7.294  0.2380  0.0399  0.6938
  135OSM    H7F14692   0.858   2.011   7.330 -2.5865 -0.6971 -2.5138
  135OSM    H7G14693   0.775   2.153   7.282 -0.0771 -0.8700  0.3761
  135OSM    C8F14694   0.963   2.211   7.390 -0.5685  0.3224 -0.0256
  135OSM    H8F14695   0.980   2.307   7.338  3.7332  0.4152  1.1807
  135OSM    H8G14696   1.053   2.149   7.412 -0.7050  0.0782 -0.1487
  135OSM    C9F14697   0.892   2.239   7.518 -0.0693 -1.0035 -0.1991
  135OSM    H9F14698   0.815   2.318   7.515 -0.0792 -1.0442 -1.0528
  135OSM   C10F14699   0.926   2.174   7.635 -0.2540  0.0053 -0.4175
  135OSM   H10F14700   0.878   2.201   7.730  2.4519  0.7297  0.8602
  135OSM   C11F14701   1.032   2.068   7.649  0.0279 -0.3332 -0.2511
  135OSM   H11F14702   1.124   2.130   7.640 -3.2730  4.9751 -2.2448
  135OSM   H11G14703   1.033   1.991   7.570 -2.7372  2.5234 -3.4081
  135OSM   C12F14704   1.026   1.997   7.786  0.0420 -0.0405 -0.0176
  135OSM   H12F14705   1.073   1.897   7.774 -0.1092 -0.4819  2.5389
  135OSM   H12G14706   0.924   1.976   7.826  1.1435 -1.4654  2.2515
  135OSM   C13F14707   1.098   2.086   7.892 -0.0706 -0.2676  0.0807
  135OSM   H13F14708   1.067   2.192   7.882 -2.6805 -1.1299 -2.4221
  135OSM   H13G14709   1.208   2.089   7.879 -0.2663  1.5938 -1.6739
  135OSM   C14F14710   1.063   2.023   8.035  0.5170 -0.1185 -0.5184
  135OSM   H14F14711   1.114   1.927   8.058 -1.0803 -0.5070  1.7903
  135OSM   H14G14712   0.955   2.007   8.058  0.7287 -3.9741 -1.4780
  135OSM   C15F14713   1.104   2.135   8.133  0.1498  0.3217 -0.3064
  135OSM   H15F14714   1.055   2.234   8.125 -1.7365 -0.3612  1.7823
  135OSM   H15G14715   1.209   2.155   8.102 -0.3434 -1.8029 -3.8665
  135OSM   C16F14716   1.096   2.090   8.279  0.1822 -0.1065 -0.3572
  135OSM   H16F14717   1.170   2.012   8.307  0.3340  0.6237  1.4039
  135OSM   H16G14718   0.997   2.042   8.298 -1.8140  3.7070 -0.1195
  135OSM   C17F14719   1.108   2.215   8.375 -0.5197 -0.3886  0.2559
  135OSM   H17F14720   1.038   2.299   8.355  3.1326  2.4060 -1.9297
  135OSM   H17G14721   1.207   2.255   8.343 -1.1348  0.5843 -0.4946
  135OSM   C18F14722   1.115   2.183   8.524  0.4341 -0.2812 -0.4073
  135OSM   H18F14723   1.194   2.238   8.579 -2.2821  2.0868  1.4634
  135OSM   H18G14724   1.158   2.081   8.533  1.3875  0.0113 -1.4546
  135OSM   H18H14725   1.024   2.199   8.585  1.4181 -0.6462  1.1992
  136OSM      N14726   6.263   2.700   5.878 -0.5545 -0.0884  0.5335
  136OSM    C1514727   6.161   2.612   5.817  0.3648  0.5374 -0.1901
  136OSM   H15A14728   6.146   2.618   5.710 -2.8401  0.2248  0.1433
  136OSM   H15B14729   6.059   2.618   5.852  0.6772 -1.5947  1.3206
  136OSM   H15C14730   6.184   2.508   5.836 -0.4313  0.2663 -0.6444
  136OSM    C1414731   6.394   2.633   5.865  0.0614 -0.3193 -0.7367
  136OSM   H14A14732   6.416   2.605   5.763  0.5840  1.1017 -1.0386
  136OSM   H14B14733   6.398   2.537   5.914  0.1342 -1.5865 -3.0919
  136OSM   H14C14734   6.479   2.695   5.890  1.0314 -1.7108 -0.5036
  136OSM    C1314735   6.274   2.835   5.805 -0.3377 -0.0162  0.7810
  136OSM   H13A14736   6.179   2.887   5.811 -0.1334  0.5141 -0.3620
  136OSM   H13B14737   6.295   2.825   5.700 -0.3910  3.1798  0.3461
  136OSM   H13C14738   6.354   2.888   5.854  1.6763 -0.2226 -2.0710
  136OSM    C1214739   6.231   2.731   6.024 -0.1954 -0.0314  0.0599
  136OSM   H12A14740   6.312   2.784   6.071 -0.5867  1.2090 -0.6345
  136OSM   H12B14741   6.237   2.635   6.074  3.9806  1.0334  2.0511
  136OSM    C1114742   6.102   2.813   6.052 -0.2412 -0.2904 -0.0897
  136OSM   H11A14743   6.097   2.899   5.982 -1.2996 -0.5802 -0.3914
  136OSM   H11B14744   6.113   2.851   6.156 -2.1464  1.2422 -0.3884
  136OSM      P14745   5.937   2.642   6.148  0.0481  0.2177 -0.2453
  136OSM    O1314746   5.826   2.565   6.091 -0.1461  0.2688  0.2569
  136OSM    O1414747   6.055   2.575   6.210  0.1516 -0.3876  0.0966
  136OSM    O1114748   5.875   2.753   6.245  0.6975  0.3330 -0.1427
  136OSM    O1214749   5.984   2.735   6.028  0.1778 -0.6814 -0.2440
  136OSM    C1S14750   5.920   2.745   6.385  0.1805 -0.2676  0.5031
  136OSM    H1S14751   6.023   2.786   6.392  0.2643 -0.4201  0.1890
  136OSM    H1T14752   5.927   2.642   6.427 -2.2306  0.2030  2.2411
  136OSM     NF14753   5.886   2.814   6.620 -0.1427 -0.1814 -0.1497
  136OSM    HNF14754   5.860   2.733   6.673 -0.4176  0.0695  0.1071
  136OSM    C2S14755   5.826   2.824   6.487  0.1409  0.5125 -0.7811
  136OSM    H2S14756   5.816   2.931   6.459  0.4507  0.2486 -1.9630
  136OSM    C3S14757   5.679   2.765   6.472 -1.2613  0.1249 -0.1595
  136OSM    H3S14758   5.694   2.655   6.479  1.9726  0.3637 -1.5196
  136OSM     O314759   5.623   2.787   6.343  0.0282  0.3228  0.4329
  136OSM    HO314760   5.700   2.777   6.286  0.0051  0.2225  0.4188
  136OSM    C4S14761   5.587   2.810   6.583  0.0326 -0.6425  0.1637
  136OSM    H4S14762   5.546   2.724   6.638 -0.4148 -1.2680 -1.1145
  136OSM    C5S14763   5.543   2.935   6.611 -0.1248 -0.1516  0.3357
  136OSM    H5S14764   5.560   3.014   6.536 -0.1722  0.2440  0.7369
  136OSM    C6S14765   5.441   2.963   6.714  0.4293 -0.1262 -0.6264
  136OSM    H6S14766   5.334   2.938   6.694 -0.1441  0.6759  1.1813
  136OSM    H6T14767   5.440   3.073   6.725  1.0188  0.0381 -1.9722
  136OSM    C7S14768   5.478   2.900   6.851  1.0023 -0.2733  0.4362
  136OSM    H7S14769   5.576   2.935   6.888  0.7246 -0.1061  1.0269
  136OSM    H7T14770   5.469   2.790   6.840 -0.6431 -0.1013 -0.3158
  136OSM    C8S14771   5.365   2.936   6.957  0.1082 -0.1995  0.2875
  136OSM    H8S14772   5.260   2.921   6.923 -1.0556  0.0133  3.4435
  136OSM    H8T14773   5.373   3.046   6.966 -0.3354  0.0807 -1.9906
  136OSM    C9S14774   5.381   2.874   7.087 -0.1075 -0.2820 -0.3254
  136OSM    H9S14775   5.476   2.912   7.128  0.5896  2.0035 -3.6605
  136OSM    H9T14776   5.397   2.765   7.071 -0.9684 -0.6010  0.8621
  136OSM   C10S14777   5.263   2.881   7.177 -0.0180  0.0296 -0.3125
  136OSM   H10S14778   5.168   2.838   7.141 -0.0141  0.0519 -0.3490
  136OSM   H10T14779   5.236   2.987   7.197  1.2921  0.1501  0.9935
  136OSM   C11S14780   5.287   2.813   7.319 -0.0819 -0.8639  0.4749
  136OSM   H11S14781   5.234   2.872   7.397 -0.2789  0.7030 -0.7937
  136OSM   H11T14782   5.393   2.806   7.350  0.4535  0.5502 -0.8986
  136OSM   C12S14783   5.229   2.666   7.328  0.2450 -0.0675  0.4349
  136OSM   H12S14784   5.296   2.597   7.271 -0.6912 -0.5363 -0.1326
  136OSM   H12T14785   5.138   2.661   7.265  0.9271 -0.8322 -0.5467
  136OSM   C13S14786   5.202   2.609   7.462 -0.1185  0.4237 -0.2849
  136OSM   H13S14787   5.166   2.688   7.531  1.2129 -1.8249  3.2661
  136OSM   H13T14788   5.297   2.575   7.509 -0.4141  1.3082  1.0158
  136OSM   C14S14789   5.101   2.490   7.469 -0.4412 -0.2495  0.2464
  136OSM   H14S14790   5.136   2.401   7.414 -0.6295  0.3011 -0.7954
  136OSM   H14T14791   5.009   2.533   7.422  0.0392  1.0135  0.4110
  136OSM   C15S14792   5.076   2.460   7.616 -0.5505 -0.0091 -0.4298
  136OSM   H15S14793   5.173   2.466   7.670 -1.6933 -2.1229  2.0920
  136OSM   H15T14794   5.035   2.358   7.606 -0.4147 -0.2079  0.8572
  136OSM   C16S14795   4.967   2.550   7.677 -0.0582 -0.0008  0.0680
  136OSM   H16S14796   4.869   2.546   7.624  0.2317 -0.2719 -0.4572
  136OSM   H16T14797   5.014   2.651   7.670  1.4728 -0.6701  0.1929
  136OSM   C17S14798   4.953   2.514   7.823  0.3474  0.1515  0.2067
  136OSM   H17S14799   4.911   2.609   7.861 -0.5000  0.1008 -0.5759
  136OSM   H17T14800   5.050   2.489   7.873  0.9798 -0.5575 -1.3183
  136OSM   C18S14801   4.852   2.400   7.850  0.1894 -0.2562 -0.0213
  136OSM   H18S14802   4.861   2.307   7.790 -1.8018 -0.3180 -0.2876
  136OSM   H18T14803   4.748   2.430   7.823  0.6474  1.6545  0.1955
  136OSM   H18U14804   4.864   2.389   7.960 -1.4407  0.2815  0.2432
  136OSM    C1F14805   5.989   2.883   6.666 -0.7634  0.9258 -0.0233
  136OSM     OF14806   6.007   2.997   6.625  0.4353  0.4774 -0.1994
  136OSM    C2F14807   6.079   2.816   6.769 -0.1191 -0.0894  0.5303
  136OSM    H2F14808   6.186   2.833   6.744 -0.4752  1.1302 -0.2331
  136OSM    H2G14809   6.054   2.708   6.770 -0.4027 -0.0235  0.5385
  136OSM    C3F14810   6.060   2.875   6.914  0.2748  0.4747  0.3994
  136OSM    H3F14811   5.953   2.901   6.928  0.5636  1.3970  1.0007
  136OSM    H3G14812   6.111   2.974   6.908  1.6488 -0.2476 -0.1449
  136OSM    C4F14813   6.111   2.789   7.029 -0.0002  0.0476  1.3302
  136OSM    H4F14814   6.220   2.772   7.021  0.1026  1.1077  0.2544
  136OSM    H4G14815   6.056   2.692   7.024 -1.2879  0.8072  0.2453
  136OSM    C5F14816   6.074   2.855   7.164  0.1899 -0.4117 -0.4329
  136OSM    H5F14817   5.965   2.870   7.177  0.7080  3.1946  1.0585
  136OSM    H5G14818   6.118   2.956   7.154 -2.3210  0.8615  0.4900
  136OSM    C6F14819   6.142   2.785   7.284 -0.5804 -0.3401 -0.2411
  136OSM    H6F14820   6.248   2.764   7.259 -0.3003  0.5601  0.1634
  136OSM    H6G14821   6.095   2.687   7.309 -0.1545 -1.0653 -2.1158
  136OSM    C7F14822   6.126   2.878   7.408  0.9660  0.2502  0.4286
  136OSM    H7F14823   6.017   2.900   7.409  0.7888 -0.6076  1.1018
  136OSM    H7G14824   6.174   2.975   7.384 -0.8462  1.0598 -0.0739
  136OSM    C8F14825   6.160   2.810   7.539 -0.2691 -0.2480 -0.3207
  136OSM    H8F14826   6.252   2.749   7.524 -0.7290 -0.8569 -0.7429
  136OSM    H8G14827   6.074   2.745   7.568  0.1832 -0.8067 -0.2130
  136OSM    C9F14828   6.182   2.904   7.656 -0.4811 -0.0005  0.3443
  136OSM    H9F14829   6.253   2.986   7.638  1.1847 -1.8506 -2.2276
  136OSM   C10F14830   6.145   2.888   7.782 -0.7684 -0.5969  0.5959
  136OSM   H10F14831   6.163   2.968   7.856 -0.3027 -1.8175  1.8581
  136OSM   C11F14832   6.071   2.771   7.842  0.4372  0.7239 -0.2766
  136OSM   H11F14833   6.105   2.677   7.793 -2.2550 -0.3179 -0.3560
  136OSM   H11G14834   5.962   2.773   7.821 -0.0979 -1.5911  1.8092
  136OSM   C12F14835   6.092   2.755   7.991  0.7043 -0.1577  0.2326
  136OSM   H12F14836   6.072   2.851   8.043 -1.9171 -0.4900 -0.0206
  136OSM   H12G14837   6.198   2.726   8.006  0.2447 -1.1854  1.6095
  136OSM   C13F14838   5.998   2.653   8.044  0.6256  0.3078 -0.3984
  136OSM   H13F14839   6.014   2.552   8.002  0.4805 -0.7611  1.9177
  136OSM   H13G14840   5.889   2.674   8.036  0.5725  1.6473  2.6339
  136OSM   C14F14841   6.013   2.648   8.197 -0.2810 -0.2657 -0.4907
  136OSM   H14F14842   6.017   2.754   8.231  1.2709 -0.4528 -0.0345
  136OSM   H14G14843   6.111   2.615   8.237 -0.0196  0.2265 -0.7107
  136OSM   C15F14844   5.903   2.559   8.276 -0.4719  0.6338  0.5605
  136OSM   H15F14845   5.879   2.480   8.201  0.4422  2.3427 -1.6627
  136OSM   H15G14846   5.815   2.622   8.298  0.1509  1.2461  1.3456
  136OSM   C16F14847   5.950   2.490   8.408  0.3719 -1.1418  0.7179
  136OSM   H16F14848   6.008   2.398   8.385 -2.1979 -2.4656 -1.0152
  136OSM   H16G14849   5.859   2.449   8.457 -1.0145 -2.5983 -2.7089
  136OSM   C17F14850   6.018   2.580   8.511 -0.3970  0.7013  0.2409
  136OSM   H17F14851   6.118   2.604   8.470 -0.2420 -0.3895 -0.0559
  136OSM   H17G14852   6.024   2.510   8.597  0.1604 -2.4564 -2.1550
  136OSM   C18F14853   5.947   2.706   8.563 -0.7718  0.4420 -0.3516
  136OSM   H18F14854   5.848   2.674   8.603 -1.5206  0.1280 -2.3467
  136OSM   H18G14855   5.936   2.778   8.480 -0.4294  1.5487  0.5335
  136OSM   H18H14856   6.010   2.750   8.644  1.5883  2.1494 -2.9168
  137OSM      N14857   6.769   6.035   6.175  0.3910 -0.5674 -0.1034
  137OSM    C1514858   6.712   6.168   6.145  0.2784  0.3905 -0.7129
  137OSM   H15A14859   6.622   6.172   6.206 -1.1697 -4.1151 -2.1598
  137OSM   H15B14860   6.666   6.181   6.049  0.3653 -0.5104 -0.8862
  137OSM   H15C14861   6.773   6.254   6.167  0.9696  0.0433 -1.2490
  137OSM    C1414862   6.789   6.015   6.327 -0.0260  0.0390  0.8485
  137OSM   H14A14863   6.696   6.034   6.380 -1.4036 -0.4429 -1.2648
  137OSM   H14B14864   6.868   6.082   6.357 -0.6423  1.8097 -1.1695
  137OSM   H14C14865   6.810   5.911   6.345 -0.4628 -0.0300  0.9793
  137OSM    C1314866   6.661   5.938   6.126  0.6260  0.6525 -0.6197
  137OSM   H13A14867   6.611   5.962   6.033 -2.0006 -3.3417 -0.5122
  137OSM   H13B14868   6.577   5.924   6.193  2.8515  1.0694  2.4493
  137OSM   H13C14869   6.702   5.838   6.119  0.0835  0.2857  0.9611
  137OSM    C1214870   6.902   6.007   6.097  0.8033  0.0117  0.3837
  137OSM   H12A14871   6.983   6.071   6.129  0.3180  1.0315 -0.3802
  137OSM   H12B14872   6.870   6.036   5.998 -2.8012 -2.9599  0.4339
  137OSM    C1114873   6.952   5.861   6.079 -0.2918  0.4130  0.0147
  137OSM   H11A14874   7.034   5.848   6.005  1.6115 -3.8254  2.4970
  137OSM   H11B14875   6.867   5.802   6.039  0.1031  0.1925 -0.5175
  137OSM      P14876   7.149   5.847   6.235  0.0463  0.3264 -0.3458
  137OSM    O1314877   7.202   5.711   6.271  0.0401  0.0165 -0.3489
  137OSM    O1414878   7.215   5.917   6.127 -0.6318 -0.4893  0.4702
  137OSM    O1114879   7.138   5.944   6.369 -0.0767 -0.1211  0.0628
  137OSM    O1214880   6.998   5.814   6.206 -0.5256  0.4407  0.3041
  137OSM    C1S14881   7.150   5.868   6.491  0.6222  0.1320 -0.0842
  137OSM    H1S14882   7.247   5.813   6.492  1.3595  1.3943 -0.6990
  137OSM    H1T14883   7.053   5.817   6.505 -0.5386  1.7609 -1.7822
  137OSM     NF14884   7.202   5.872   6.730  0.3222  0.3165  0.4869
  137OSM    HNF14885   7.129   5.838   6.787 -0.7451  1.9023  0.1247
  137OSM    C2S14886   7.176   5.959   6.621 -0.2838 -0.4655 -0.2222
  137OSM    H2S14887   7.268   6.019   6.606 -0.6238 -0.2723 -1.7756
  137OSM    C3S14888   7.055   6.053   6.642 -0.4163  0.0529 -0.0380
  137OSM    H3S14889   6.968   5.984   6.656  0.2291 -0.8353 -0.3405
  137OSM     O314890   7.006   6.118   6.527  0.0149 -0.3395  0.3821
  137OSM    HO314891   7.056   6.085   6.452  0.2968 -0.8819  0.8053
  137OSM    C4S14892   7.083   6.146   6.745  0.2619  0.3301 -0.0568
  137OSM    H4S14893   7.000   6.140   6.817 -1.0701 -1.3376 -1.6273
  137OSM    C5S14894   7.185   6.239   6.754 -0.2023  0.1615 -0.8392
  137OSM    H5S14895   7.261   6.243   6.674  2.1505  4.5146  1.2840
  137OSM    C6S14896   7.208   6.350   6.856  0.1479 -0.9008  0.4048
  137OSM    H6S14897   7.284   6.423   6.819  0.1307 -1.1712 -0.1666
  137OSM    H6T14898   7.255   6.315   6.950  1.7692 -0.4081 -0.1885
  137OSM    C7S14899   7.082   6.426   6.891  0.4649 -0.5295  0.0491
  137OSM    H7S14900   7.016   6.352   6.940 -0.7005  1.4647  1.6386
  137OSM    H7T14901   7.033   6.468   6.800  3.4823 -0.2453 -1.6029
  137OSM    C8S14902   7.114   6.536   6.992  0.0988  0.1810  0.1808
  137OSM    H8S14903   7.167   6.616   6.936 -0.1174  1.1923  1.3823
  137OSM    H8T14904   7.172   6.497   7.079  1.2826  1.5036  0.0241
  137OSM    C9S14905   6.989   6.611   7.028 -0.4173  0.5103 -0.3114
  137OSM    H9S14906   6.919   6.526   7.040  1.6586 -1.4823 -1.4453
  137OSM    H9T14907   6.952   6.664   6.938  0.0461 -2.9464 -2.7367
  137OSM   C10S14908   7.001   6.690   7.149  0.1598 -0.3933 -0.9772
  137OSM   H10S14909   7.067   6.779   7.146 -1.8010  1.0755 -2.4710
  137OSM   H10T14910   7.024   6.621   7.234  0.7216  2.0137  0.9398
  137OSM   C11S14911   6.866   6.752   7.196 -0.0805 -0.2433  0.2115
  137OSM   H11S14912   6.792   6.677   7.232 -1.1159  0.3605 -0.6262
  137OSM   H11T14913   6.818   6.810   7.115 -1.1706  1.2946  1.8987
  137OSM   C12S14914   6.861   6.843   7.319 -0.8820 -0.0131  0.0297
  137OSM   H12S14915   6.766   6.901   7.315 -0.9246 -0.0479  0.4577
  137OSM   H12T14916   6.956   6.900   7.309 -0.4926 -0.6745 -0.0936
  137OSM   C13S14917   6.863   6.771   7.454 -0.5031  0.0180 -0.1824
  137OSM   H13S14918   6.928   6.681   7.448 -1.4863 -0.6229 -2.2093
  137OSM   H13T14919   6.761   6.730   7.469  0.3938 -2.3148  0.0029
  137OSM   C14S14920   6.895   6.868   7.572  0.5398  0.3370 -0.3877
  137OSM   H14S14921   6.826   6.955   7.570 -0.0892 -0.1609 -0.6872
  137OSM   H14T14922   6.991   6.923   7.562 -0.3966  1.7509 -2.2310
  137OSM   C15S14923   6.880   6.794   7.703 -0.1210 -0.1318  0.0562
  137OSM   H15S14924   6.961   6.718   7.708  0.6503  0.7432  1.4010
  137OSM   H15T14925   6.777   6.755   7.712 -0.7045  1.4883  0.6530
  137OSM   C16S14926   6.907   6.892   7.825  0.3005 -0.4857  0.1304
  137OSM   H16S14927   6.845   6.984   7.825  1.9210  0.6466 -0.3566
  137OSM   H16T14928   7.009   6.933   7.820  0.3573 -0.3752  1.8552
  137OSM   C17S14929   6.881   6.818   7.958 -0.1827  0.0849 -0.6705
  137OSM   H17S14930   6.783   6.766   7.947  0.4587 -1.8870  1.8362
  137OSM   H17T14931   6.868   6.885   8.046 -2.1960 -1.2323  0.1150
  137OSM   C18S14932   6.978   6.698   7.981  0.0579 -0.1373 -0.4076
  137OSM   H18S14933   7.077   6.741   7.955 -0.8350  0.9661 -2.2017
  137OSM   H18T14934   6.965   6.616   7.907  2.1607 -0.8663 -0.0328
  137OSM   H18U14935   6.976   6.647   8.079  0.3181 -0.8827 -0.7771
  137OSM    C1F14936   7.319   5.822   6.752  0.2714  0.2778  0.3297
  137OSM     OF14937   7.416   5.838   6.680 -0.6161  0.0841 -0.0731
  137OSM    C2F14938   7.327   5.722   6.863 -0.1211  0.7993 -0.3356
  137OSM    H2F14939   7.392   5.646   6.815  1.8889  2.8726 -1.0980
  137OSM    H2G14940   7.229   5.673   6.883 -0.0911  0.9826  0.2634
  137OSM    C3F14941   7.390   5.771   6.991  0.6116 -0.2095  0.3090
  137OSM    H3F14942   7.317   5.783   7.074 -0.1220 -0.3278 -0.3139
  137OSM    H3G14943   7.443   5.867   6.970  1.7325 -0.4921  1.6882
  137OSM    C4F14944   7.491   5.676   7.052 -0.5947 -0.1842 -0.0402
  137OSM    H4F14945   7.598   5.709   7.049 -0.4313 -0.5386  1.1158
  137OSM    H4G14946   7.488   5.577   7.004  0.9191 -0.5968  0.6596
  137OSM    C5F14947   7.461   5.642   7.200  0.4464  0.9961  0.0666
  137OSM    H5F14948   7.520   5.553   7.231 -1.3329  0.4545  2.2012
  137OSM    H5G14949   7.356   5.607   7.204  1.1139 -1.0736  0.6693
  137OSM    C6F14950   7.485   5.749   7.302  0.5818  0.5523  0.3469
  137OSM    H6F14951   7.431   5.843   7.275  0.3407  0.2245 -0.3473
  137OSM    H6G14952   7.595   5.767   7.302  0.3123  2.4439  0.6721
  137OSM    C7F14953   7.452   5.707   7.441  0.2786 -0.5612  0.2202
  137OSM    H7F14954   7.521   5.625   7.472  1.1469  0.3439  0.7361
  137OSM    H7G14955   7.351   5.661   7.436  0.2505 -0.4528 -0.2505
  137OSM    C8F14956   7.484   5.827   7.529 -0.2307  0.1377  0.2205
  137OSM    H8F14957   7.429   5.918   7.499 -0.6535 -1.0636 -3.1153
  137OSM    H8G14958   7.592   5.850   7.518 -0.6396  1.8713 -0.4477
  137OSM    C9F14959   7.463   5.784   7.672  0.3095 -0.9424  0.1688
  137OSM    H9F14960   7.461   5.676   7.692  0.1462 -1.0540 -0.4565
  137OSM   C10F14961   7.461   5.871   7.775 -0.2950 -0.0932 -0.2408
  137OSM   H10F14962   7.430   5.824   7.869 -0.3940  0.5903  0.0680
  137OSM   C11F14963   7.483   6.018   7.760  0.2359 -0.2537 -0.2386
  137OSM   H11F14964   7.385   6.067   7.778 -0.0889 -0.8924 -0.2350
  137OSM   H11G14965   7.525   6.043   7.660  0.2583 -2.9603 -0.9908
  137OSM   C12F14966   7.572   6.088   7.863  1.0161 -0.2041 -0.2466
  137OSM   H12F14967   7.591   6.195   7.838 -1.1698  0.1563 -0.5969
  137OSM   H12G14968   7.675   6.046   7.867  1.3137  0.4257 -0.9831
  137OSM   C13F14969   7.509   6.092   8.001 -0.3310 -0.0511 -0.5545
  137OSM   H13F14970   7.515   5.985   8.031 -1.0198  0.1928  0.4559
  137OSM   H13G14971   7.406   6.132   8.002 -0.2181  0.4119 -2.5070
  137OSM   C14F14972   7.580   6.186   8.100  0.4734  0.0640  0.1096
  137OSM   H14F14973   7.569   6.292   8.066  2.4555  0.6265  1.0529
  137OSM   H14G14974   7.687   6.157   8.092  0.1827 -0.9836 -0.0128
  137OSM   C15F14975   7.545   6.172   8.248  0.2744  0.1319  0.1321
  137OSM   H15F14976   7.585   6.071   8.272  0.5579  0.2927  0.3364
  137OSM   H15G14977   7.434   6.170   8.242  0.3368  0.0869 -1.3495
  137OSM   C16F14978   7.592   6.286   8.335  0.2659 -0.3502 -0.0784
  137OSM   H16F14979   7.516   6.365   8.356  0.6324 -0.2618  0.9566
  137OSM   H16G14980   7.671   6.342   8.280  0.2086  1.2681  1.3892
  137OSM   C17F14981   7.646   6.241   8.474 -0.3427 -0.4978  0.3662
  137OSM   H17F14982   7.700   6.328   8.516  1.1624 -0.5279 -1.3443
  137OSM   H17G14983   7.713   6.152   8.470 -1.3369 -1.2376 -0.2809
  137OSM   C18F14984   7.539   6.204   8.574 -0.4470  0.5331 -0.3437
  137OSM   H18F14985   7.460   6.280   8.559 -1.3295 -0.7819 -2.7698
  137OSM   H18G14986   7.583   6.207   8.676  0.9859  2.4868 -0.9468
  137OSM   H18H14987   7.498   6.103   8.559 -0.9176  0.7629 -0.6118
  138OSM      N14988   3.113   3.165   6.143  0.0127 -0.2852  0.6283
  138OSM    C1514989   3.216   3.105   6.229 -0.4719  0.2738  0.0762
  138OSM   H15A14990   3.173   3.037   6.301 -2.4892  0.3522 -1.0040
  138OSM   H15B14991   3.275   3.178   6.283  0.5995 -0.0314 -0.6325
  138OSM   H15C14992   3.298   3.050   6.185 -1.1107 -0.5017 -0.1695
  138OSM    C1414993   3.171   3.266   6.055 -0.3663 -0.0826  0.4386
  138OSM   H14A14994   3.235   3.331   6.113 -2.5285 -0.7802  3.8619
  138OSM   H14B14995   3.094   3.321   6.003 -0.6094 -0.3693  0.4929
  138OSM   H14C14996   3.225   3.222   5.972 -1.1769 -3.1409  1.4310
  138OSM    C1314997   3.062   3.049   6.052  0.3063 -0.6752  0.1237
  138OSM   H13A14998   3.017   2.977   6.118 -1.9309  3.2280  3.3737
  138OSM   H13B14999   3.137   3.007   5.986 -0.2836  0.0647 -1.0518
  138OSM   H13C15000   2.980   3.088   5.993 -1.3526 -1.2709  1.9296
  138OSM    C1215001   3.001   3.225   6.219 -0.3810  0.0597  0.0942
  138OSM   H12A15002   2.937   3.274   6.147  0.7488  1.3224 -0.1032
  138OSM   H12B15003   3.041   3.313   6.268 -1.7076  0.3711  0.6799
  138OSM    C1115004   2.909   3.150   6.318  0.2506 -0.0485 -0.9135
  138OSM   H11A15005   2.840   3.224   6.365  0.5746 -0.2265 -0.1314
  138OSM   H11B15006   2.978   3.125   6.402  0.0603  0.4577 -0.5986
  138OSM      P15007   2.711   3.081   6.169 -0.4027  0.3857  0.3340
  138OSM    O1315008   2.725   3.200   6.080 -0.0292 -0.3894  0.1677
  138OSM    O1415009   2.670   2.952   6.109  0.6154 -0.6262  0.1151
  138OSM    O1115010   2.609   3.105   6.282  0.0319 -0.1615  0.0298
  138OSM    O1215011   2.842   3.044   6.251  0.2620 -0.2361 -0.4863
  138OSM    C1S15012   2.566   3.011   6.383 -0.9442 -0.8630 -0.0057
  138OSM    H1S15013   2.622   2.917   6.366 -0.2176 -0.4825  0.2512
  138OSM    H1T15014   2.456   2.998   6.372 -0.7636 -0.8724 -2.3194
  138OSM     NF15015   2.574   2.971   6.628  0.1958 -0.2823 -0.1504
  138OSM    HNF15016   2.492   2.985   6.683  1.2533 -0.4799  1.5480
  138OSM    C2S15017   2.598   3.072   6.519 -0.2752  0.3466 -0.2191
  138OSM    H2S15018   2.702   3.112   6.522 -0.5485  1.0451  1.3469
  138OSM    C3S15019   2.522   3.203   6.546 -0.8444 -0.6534  0.3357
  138OSM    H3S15020   2.414   3.182   6.555 -1.3029  1.5931  0.5821
  138OSM     O315021   2.553   3.307   6.450 -0.2585 -0.4283  0.4782
  138OSM    HO315022   2.579   3.254   6.375 -0.3909  0.0527  0.0885
  138OSM    C4S15023   2.571   3.255   6.678 -0.6676 -0.9329  0.3671
  138OSM    H4S15024   2.674   3.293   6.677 -1.4211  1.2131 -0.8407
  138OSM    C5S15025   2.502   3.269   6.790  0.4750  0.3618 -0.8988
  138OSM    H5S15026   2.398   3.232   6.783  0.0834  1.2832 -0.0773
  138OSM    C6S15027   2.548   3.319   6.923 -0.0782 -0.7741  0.1133
  138OSM    H6S15028   2.489   3.411   6.944  0.3264 -0.4625 -0.0927
  138OSM    H6T15029   2.658   3.336   6.919 -0.3672  1.0352 -1.9656
  138OSM    C7S15030   2.537   3.213   7.047  0.0481  0.9296 -0.5964
  138OSM    H7S15031   2.605   3.129   7.021 -2.6901 -1.1431 -1.5345
  138OSM    H7T15032   2.431   3.181   7.049  0.4372 -0.4106 -0.4395
  138OSM    C8S15033   2.578   3.283   7.174  0.4249 -0.4136  0.7613
  138OSM    H8S15034   2.494   3.355   7.185  1.1185  0.6081 -0.2887
  138OSM    H8T15035   2.679   3.330   7.164  1.4348 -2.9553 -4.1051
  138OSM    C9S15036   2.587   3.192   7.298  0.6330 -0.2102  0.1614
  138OSM    H9S15037   2.674   3.123   7.292  1.0708  0.3074  0.5276
  138OSM    H9T15038   2.496   3.129   7.301 -0.7071  1.6474  0.0016
  138OSM   C10S15039   2.605   3.260   7.429  0.7407  0.7786  0.4379
  138OSM   H10S15040   2.617   3.369   7.417  0.5329  0.7063 -0.5720
  138OSM   H10T15041   2.704   3.227   7.467  0.2461 -1.5243 -0.0760
  138OSM   C11S15042   2.507   3.226   7.542 -0.0950 -0.0962  0.7480
  138OSM   H11S15043   2.410   3.202   7.494  0.4312 -0.7082 -0.0186
  138OSM   H11T15044   2.482   3.321   7.596  0.7271  1.7308 -1.9065
  138OSM   C12S15045   2.551   3.113   7.636  0.4446 -0.0074  0.5017
  138OSM   H12S15046   2.659   3.102   7.611  0.0958  0.7018 -1.4608
  138OSM   H12T15047   2.493   3.020   7.618  1.6899 -0.8445  0.6519
  138OSM   C13S15048   2.541   3.168   7.776  0.1131  0.7258  0.7628
  138OSM   H13S15049   2.441   3.210   7.800 -1.3382 -3.5702  3.4408
  138OSM   H13T15050   2.609   3.256   7.777  0.1149  0.8093 -1.4870
  138OSM   C14S15051   2.567   3.064   7.893  0.0125 -0.6675  0.7134
  138OSM   H14S15052   2.655   3.006   7.858  1.6101  2.8091 -1.6588
  138OSM   H14T15053   2.479   3.002   7.921  0.2437 -1.3004  0.0723
  138OSM   C15S15054   2.610   3.142   8.024  0.7660  0.0634  0.4986
  138OSM   H15S15055   2.523   3.210   8.039  0.8643  0.1833  0.5284
  138OSM   H15T15056   2.696   3.212   8.011 -0.9470  2.0669 -0.7685
  138OSM   C16S15057   2.621   3.044   8.142 -0.0291 -0.3614  0.4957
  138OSM   H16S15058   2.533   2.976   8.142  0.9099 -1.6211 -0.0747
  138OSM   H16T15059   2.631   3.088   8.244  2.2712 -0.3119  0.2922
  138OSM   C17S15060   2.741   2.956   8.123 -0.3568  0.4766 -0.1446
  138OSM   H17S15061   2.823   3.030   8.113  1.4098 -1.0332  2.1737
  138OSM   H17T15062   2.725   2.895   8.032  0.8623  0.3613 -0.3020
  138OSM   C18S15063   2.781   2.862   8.234 -0.6836  0.5309 -0.3295
  138OSM   H18S15064   2.889   2.841   8.225 -1.1459 -1.6482 -1.4544
  138OSM   H18T15065   2.733   2.763   8.221  1.2231 -0.9491  2.8096
  138OSM   H18U15066   2.747   2.886   8.337  0.3661 -3.6347  1.1698
  138OSM    C1F15067   2.641   2.860   6.646 -0.5938 -0.7706  0.8400
  138OSM     OF15068   2.752   2.845   6.587  0.4838  0.0997  0.0754
  138OSM    C2F15069   2.595   2.746   6.731  0.4588 -0.3731  0.5008
  138OSM    H2F15070   2.684   2.681   6.732 -0.6142 -2.0684 -2.2257
  138OSM    H2G15071   2.503   2.697   6.692 -0.2610 -0.2852  2.0387
  138OSM    C3F15072   2.560   2.795   6.870  1.0078  0.0323  0.1989
  138OSM    H3F15073   2.506   2.713   6.923 -0.8470  2.3627  2.1835
  138OSM    H3G15074   2.482   2.874   6.876  0.4176 -0.6416  3.5220
  138OSM    C4F15075   2.666   2.845   6.955  0.7878 -0.2179  0.3791
  138OSM    H4F15076   2.679   2.950   6.922 -0.8691  0.4832  1.7585
  138OSM    H4G15077   2.762   2.796   6.929  1.1611  1.9535 -2.8869
  138OSM    C5F15078   2.643   2.828   7.107 -0.0097 -0.3990 -0.3188
  138OSM    H5F15079   2.598   2.737   7.151  1.7783 -0.3295  1.7971
  138OSM    H5G15080   2.575   2.910   7.141  1.8600  1.6879 -1.3571
  138OSM    C6F15081   2.776   2.838   7.184  0.4142  0.2323  0.2378
  138OSM    H6F15082   2.826   2.933   7.156 -2.8039  2.5243  1.7205
  138OSM    H6G15083   2.835   2.744   7.173  0.9131  0.6128 -0.3540
  138OSM    C7F15084   2.742   2.846   7.335 -0.4664  0.3058  0.1090
  138OSM    H7F15085   2.715   2.742   7.364 -3.3168  0.7882 -0.4712
  138OSM    H7G15086   2.654   2.911   7.352 -0.6861  0.7915 -2.4289
  138OSM    C8F15087   2.868   2.897   7.412 -0.6548  0.3335  0.7207
  138OSM    H8F15088   2.873   3.008   7.415 -2.8630  0.5035 -0.0258
  138OSM    H8G15089   2.960   2.853   7.368 -1.6623 -2.6913  1.4407
  138OSM    C9F15090   2.841   2.845   7.552 -0.4132  0.1728 -0.6499
  138OSM    H9F15091   2.801   2.742   7.553  0.9130 -0.3897 -1.9279
  138OSM   C10F15092   2.853   2.901   7.673 -0.0393  0.4707 -0.4880
  138OSM   H10F15093   2.807   2.854   7.761  1.1211 -0.1817 -0.2094
  138OSM   C11F15094   2.918   3.035   7.695 -0.1085 -0.4532  0.2809
  138OSM   H11F15095   2.842   3.108   7.730 -2.0993 -2.1416 -0.2783
  138OSM   H11G15096   2.951   3.087   7.603  0.2675 -0.6566  0.3013
  138OSM   C12F15097   3.035   3.027   7.794 -0.1575  0.1067  0.4403
  138OSM   H12F15098   3.106   2.944   7.772 -0.3319 -0.9953  3.5948
  138OSM   H12G15099   3.004   2.997   7.896 -0.3060  1.7120  0.8821
  138OSM   C13F15100   3.117   3.153   7.805  0.3296  0.1385  0.5699
  138OSM   H13F15101   3.046   3.235   7.825 -1.5505 -1.7556  2.0717
  138OSM   H13G15102   3.169   3.177   7.709 -0.9163 -1.3982 -0.5455
  138OSM   C14F15103   3.223   3.154   7.915  0.3718 -0.1385  0.1033
  138OSM   H14F15104   3.281   3.248   7.912  3.3465 -1.7344  2.2899
  138OSM   H14G15105   3.295   3.073   7.891 -0.3859 -0.4754 -1.0964
  138OSM   C15F15106   3.159   3.131   8.049  0.5904 -0.1346 -0.4268
  138OSM   H15F15107   3.141   3.023   8.070 -1.8229 -0.4488 -3.4796
  138OSM   H15G15108   3.057   3.174   8.043 -1.0753 -3.8958 -1.9741
  138OSM   C16F15109   3.231   3.206   8.163 -0.6049  0.0489 -0.0384
  138OSM   H16F15110   3.215   3.316   8.161  1.0310  0.3012 -1.5208
  138OSM   H16G15111   3.340   3.193   8.147 -0.1017  2.2777  1.1276
  138OSM   C17F15112   3.174   3.175   8.302 -0.1948 -0.1922  0.0774
  138OSM   H17F15113   3.253   3.200   8.377  1.7307 -2.3384 -1.1065
  138OSM   H17G15114   3.159   3.065   8.305  2.5837 -0.6586  2.8985
  138OSM   C18F15115   3.039   3.232   8.335  0.2693 -0.1773 -0.1235
  138OSM   H18F15116   3.001   3.197   8.434 -0.5359  1.3302  0.1313
  138OSM   H18G15117   2.961   3.199   8.263 -1.6820  3.6410 -0.0272
  138OSM   H18H15118   3.051   3.342   8.332  0.6869 -0.1780  0.9066
  139OSM      N15119   1.660   3.467   6.023 -0.2231 -0.8353 -0.8703
  139OSM    C1515120   1.783   3.423   5.945  0.4866  0.9319 -0.1533
  139OSM   H15A15121   1.765   3.413   5.839  1.5260 -4.1164 -0.1255
  139OSM   H15B15122   1.796   3.318   5.965  1.0599  0.7381 -1.4268
  139OSM   H15C15123   1.862   3.490   5.976 -0.3291  1.1590  1.5578
  139OSM    C1415124   1.542   3.396   5.966 -0.3158 -0.5154 -0.5265
  139OSM   H14A15125   1.554   3.295   6.001  3.4918 -0.2789 -0.7745
  139OSM   H14B15126   1.540   3.407   5.859 -0.7626  1.3798 -0.3635
  139OSM   H14C15127   1.447   3.433   6.002  0.4606  1.4399 -0.3535
  139OSM    C1315128   1.671   3.434   6.167 -0.2483  0.3038  0.3439
  139OSM   H13A15129   1.578   3.424   6.220 -0.1928 -0.4368  0.3206
  139OSM   H13B15130   1.732   3.501   6.225  1.5083 -0.7346 -0.2032
  139OSM   H13C15131   1.720   3.339   6.185 -1.1574 -0.0999  0.7208
  139OSM    C1215132   1.641   3.622   6.003 -0.4282 -0.4554  0.2280
  139OSM   H12A15133   1.624   3.639   5.897 -0.0675 -3.7744 -0.4864
  139OSM   H12B15134   1.738   3.667   6.017 -0.0138 -0.9346 -0.9586
  139OSM    C1115135   1.543   3.698   6.095 -0.4844 -0.1526  0.3713
  139OSM   H11A15136   1.568   3.803   6.069  0.4658 -0.4045  0.2325
  139OSM   H11B15137   1.575   3.699   6.202 -0.2863  0.3619  0.3112
  139OSM      P15138   1.310   3.617   6.175 -0.0146 -0.3470  0.1357
  139OSM    O1315139   1.183   3.575   6.109  0.1309  0.4374 -0.0204
  139OSM    O1415140   1.380   3.516   6.254  0.1056  0.3797  0.0015
  139OSM    O1115141   1.298   3.756   6.253 -0.0084  0.4372  0.4678
  139OSM    O1215142   1.410   3.660   6.061 -0.2511 -0.0086  0.0753
  139OSM    C1S15143   1.224   3.766   6.374  0.0750 -0.3144  0.2134
  139OSM    H1S15144   1.157   3.679   6.396  1.6447 -1.8280 -0.7358
  139OSM    H1T15145   1.159   3.854   6.358  1.0170  0.3851  0.1728
  139OSM     NF15146   1.252   3.778   6.621  0.5007  0.3497  0.0232
  139OSM    HNF15147   1.183   3.847   6.638  1.0077  1.2117 -1.2362
  139OSM    C2S15148   1.323   3.811   6.492  1.3488 -0.0878 -0.3861
  139OSM    H2S15149   1.418   3.756   6.477  0.3075 -2.6295  1.6054
  139OSM    C3S15150   1.339   3.960   6.472  1.0219 -0.0127 -0.0808
  139OSM    H3S15151   1.234   3.994   6.473  1.0352  0.0224  0.7922
  139OSM     O315152   1.379   4.002   6.347 -0.5928 -0.0279 -0.3510
  139OSM    HO315153   1.350   3.933   6.286 -0.8085 -0.4997  0.2701
  139OSM    C4S15154   1.427   4.003   6.585  0.6854  0.1783 -0.2588
  139OSM    H4S15155   1.510   3.934   6.608  1.1908 -0.1200 -2.7340
  139OSM    C5S15156   1.399   4.117   6.654 -0.0539  0.3616  0.1102
  139OSM    H5S15157   1.319   4.182   6.615  0.0623 -0.2718 -1.2395
  139OSM    C6S15158   1.472   4.155   6.779 -0.3230 -0.4546 -0.0083
  139OSM    H6S15159   1.503   4.262   6.783  1.0085 -0.8593  3.0405
  139OSM    H6T15160   1.564   4.093   6.781 -1.1768 -1.7529  1.6598
  139OSM    C7S15161   1.407   4.118   6.920  0.0790 -0.5957  0.4009
  139OSM    H7S15162   1.302   4.152   6.921  0.3722  0.3412  1.3293
  139OSM    H7T15163   1.469   4.171   6.996 -1.5813  0.9672  0.7169
  139OSM    C8S15164   1.409   3.966   6.953 -0.2133  0.4704  0.7527
  139OSM    H8S15165   1.516   3.939   6.944  0.5726  3.0575  1.3312
  139OSM    H8T15166   1.345   3.910   6.882 -1.6980 -0.3370  2.6420
  139OSM    C9S15167   1.353   3.920   7.088  0.4200  0.4528  0.3157
  139OSM    H9S15168   1.355   3.809   7.085  0.6612  0.4739 -0.6244
  139OSM    H9T15169   1.245   3.944   7.087  0.1549 -0.6906  0.4876
  139OSM   C10S15170   1.418   3.981   7.202 -0.5195 -1.1052  0.3709
  139OSM   H10S15171   1.386   4.087   7.205 -0.1410 -0.9593 -0.4513
  139OSM   H10T15172   1.528   3.981   7.189 -0.3855  2.3354  0.6685
  139OSM   C11S15173   1.383   3.916   7.340  0.8545 -0.3968 -0.0146
  139OSM   H11S15174   1.412   3.810   7.334  3.1393  0.2685 -1.7722
  139OSM   H11T15175   1.272   3.917   7.349  0.8006  0.2275 -0.6167
  139OSM   C12S15176   1.452   3.987   7.455  0.2651  0.3459  0.3543
  139OSM   H12S15177   1.422   4.094   7.464  0.9923  0.7610 -1.6392
  139OSM   H12T15178   1.561   3.977   7.440 -0.0402 -1.7208 -0.8997
  139OSM   C13S15179   1.408   3.915   7.583 -0.3528 -0.3386  0.1074
  139OSM   H13S15180   1.443   3.810   7.597 -0.5457 -0.1183  2.7602
  139OSM   H13T15181   1.298   3.910   7.589 -0.3374 -2.6789 -0.5541
  139OSM   C14S15182   1.461   3.999   7.705  0.7143  0.6382 -0.0406
  139OSM   H14S15183   1.436   4.106   7.686 -2.7253  0.4893  2.5678
  139OSM   H14T15184   1.567   3.978   7.728  0.2565 -1.1302  0.6298
  139OSM   C15S15185   1.389   3.971   7.841 -0.0126 -0.9233 -0.6272
  139OSM   H15S15186   1.283   3.975   7.807 -0.3561  1.0277  0.5342
  139OSM   H15T15187   1.407   4.056   7.910 -1.4789 -1.0923 -0.0128
  139OSM   C16S15188   1.418   3.837   7.907 -0.2408 -0.2477  0.3305
  139OSM   H16S15189   1.528   3.842   7.926 -0.2277 -0.6457  0.3737
  139OSM   H16T15190   1.393   3.752   7.840 -0.7568 -0.4421  0.7575
  139OSM   C17S15191   1.350   3.819   8.041  0.0270 -0.5227  0.0691
  139OSM   H17S15192   1.247   3.786   8.015 -0.6393  1.4825 -0.0797
  139OSM   H17T15193   1.350   3.919   8.090 -1.2003 -0.4814  0.0090
  139OSM   C18S15194   1.431   3.713   8.126 -0.1007 -0.1270 -0.0536
  139OSM   H18S15195   1.428   3.615   8.074  0.0212  0.5726 -1.4080
  139OSM   H18T15196   1.387   3.715   8.228 -2.4648 -1.0739 -0.9780
  139OSM   H18U15197   1.535   3.748   8.140 -0.3943  1.1667 -0.9148
  139OSM    C1F15198   1.245   3.656   6.665  0.2302 -0.7205 -0.2716
  139OSM     OF15199   1.306   3.563   6.614 -0.1648 -0.1308 -0.0375
  139OSM    C2F15200   1.153   3.633   6.777  0.2215  0.1622 -0.9442
  139OSM    H2F15201   1.078   3.555   6.750  0.4641  0.0184 -1.2147
  139OSM    H2G15202   1.105   3.731   6.800  1.7478  0.6804  0.1607
  139OSM    C3F15203   1.229   3.569   6.897  0.2344  0.1078  0.5935
  139OSM    H3F15204   1.328   3.610   6.927  0.6826  0.0434 -0.7477
  139OSM    H3G15205   1.237   3.458   6.887 -0.3656  0.0704  0.5045
  139OSM    C4F15206   1.144   3.598   7.020 -0.2673 -0.4657  0.3392
  139OSM    H4F15207   1.041   3.558   7.008 -0.6840  0.5566  0.3998
  139OSM    H4G15208   1.134   3.709   7.029 -0.3110 -0.4380 -0.0219
  139OSM    C5F15209   1.194   3.538   7.157  0.6429 -0.1238  0.2660
  139OSM    H5F15210   1.298   3.576   7.163  1.2951 -1.8425  0.5919
  139OSM    H5G15211   1.186   3.428   7.146  1.6373 -0.0327 -1.9037
  139OSM    C6F15212   1.113   3.590   7.282  0.1876  0.1443  0.5853
  139OSM    H6F15213   1.012   3.545   7.272  0.8211 -1.5612  1.4720
  139OSM    H6G15214   1.106   3.701   7.273  0.3751  0.1787  0.8662
  139OSM    C7F15215   1.172   3.541   7.413  0.0546 -0.1561 -0.0615
  139OSM    H7F15216   1.274   3.584   7.410 -0.9775  2.4160 -0.4147
  139OSM    H7G15217   1.177   3.430   7.418 -1.8033 -0.4055 -2.1095
  139OSM    C8F15218   1.094   3.597   7.534  0.1092  0.2730  0.7074
  139OSM    H8F15219   0.994   3.551   7.548 -0.6713  1.8451  0.5983
  139OSM    H8G15220   1.060   3.703   7.533  0.1649  0.4156  4.1004
  139OSM    C9F15221   1.178   3.580   7.662 -0.8041 -0.4384  0.0697
  139OSM    H9F15222   1.284   3.606   7.653 -0.7418 -1.0231 -1.1123
  139OSM   C10F15223   1.143   3.525   7.779 -0.1765 -0.3181  0.3377
  139OSM   H10F15224   1.224   3.505   7.850  0.5962 -1.1692 -0.7483
  139OSM   C11F15225   1.002   3.477   7.824 -0.4966 -0.1512  0.0544
  139OSM   H11F15226   0.987   3.377   7.778 -2.1394  0.2560 -0.3690
  139OSM   H11G15227   0.929   3.553   7.787 -1.2555 -0.7916  0.2212
  139OSM   C12F15228   0.970   3.475   7.976 -0.3630 -0.2268 -0.4437
  139OSM   H12F15229   0.862   3.450   7.983 -0.1050 -1.2298  0.2649
  139OSM   H12G15230   0.971   3.574   8.025 -3.2121 -0.7194  0.8000
  139OSM   C13F15231   1.064   3.386   8.046 -0.7334 -0.0197 -0.5472
  139OSM   H13F15232   1.165   3.432   8.051  0.6211 -2.8240  3.1669
  139OSM   H13G15233   1.066   3.290   7.991  1.6727 -1.1226  1.2960
  139OSM   C14F15234   1.018   3.354   8.189  0.1141  0.5123  0.1639
  139OSM   H14F15235   1.008   3.456   8.232 -0.4780  0.2536  0.6512
  139OSM   H14G15236   1.100   3.304   8.246  0.7778  2.9339  1.4497
  139OSM   C15F15237   0.895   3.267   8.203 -0.7550  0.3712  0.3972
  139OSM   H15F15238   0.802   3.324   8.184 -1.8648 -0.6464  2.4221
  139OSM   H15G15239   0.887   3.231   8.308  1.2916 -1.8400 -0.1157
  139OSM   C16F15240   0.889   3.131   8.127  0.2034 -0.4950 -0.6885
  139OSM   H16F15241   0.880   3.161   8.021  2.6014  1.6280 -0.3695
  139OSM   H16G15242   0.793   3.077   8.145  1.2967 -2.0475  0.8374
  139OSM   C17F15243   1.009   3.047   8.171  0.8162 -0.5430 -0.1327
  139OSM   H17F15244   1.012   3.039   8.282  0.6069  2.1922  0.1339
  139OSM   H17G15245   1.096   3.108   8.139 -0.2469  0.4105 -1.3040
  139OSM   C18F15246   1.011   2.915   8.098  0.4076 -0.5042 -0.0041
  139OSM   H18F15247   0.920   2.861   8.130 -0.4725  0.5585 -0.6520
  139OSM   H18G15248   1.106   2.859   8.113  2.4006  3.0162  1.8009
  139OSM   H18H15249   0.999   2.941   7.991 -1.4038  0.8296  0.4821
  140OSM      N15250   0.287   5.435   6.008  0.2575  0.4996  0.4932
  140OSM    C1515251   0.152   5.492   6.035  0.1792  0.4919 -0.7437
  140OSM   H15A15252   0.140   5.595   6.004 -0.4883  1.1218  1.4586
  140OSM   H15B15253   0.123   5.499   6.139  0.8683  0.6907 -0.5545
  140OSM   H15C15254   0.069   5.446   5.985  0.0351 -1.3457  1.0603
  140OSM    C1415255   0.284   5.411   5.860 -0.6866  0.3007  0.2368
  140OSM   H14A15256   0.252   5.508   5.825 -0.6610  0.3302  0.2967
  140OSM   H14B15257   0.212   5.336   5.831 -0.5109  0.5173 -0.8095
  140OSM   H14C15258   0.378   5.381   5.816 -0.4959  0.9717  0.1812
  140OSM    C1315259   0.401   5.530   6.039  0.7513 -0.1699  0.0536
  140OSM   H13A15260   0.398   5.615   5.974  3.6184 -1.5197 -2.0647
  140OSM   H13B15261   0.495   5.478   6.022 -0.3294 -1.8065 -1.1834
  140OSM   H13C15262   0.405   5.563   6.142 -0.7184  0.2625 -0.0079
  140OSM    C1215263   0.298   5.313   6.094  0.1143  0.0632  0.7365
  140OSM   H12A15264   0.276   5.335   6.197  0.4054  1.2387  0.5683
  140OSM   H12B15265   0.400   5.278   6.102  0.5001  0.9194 -0.1784
  140OSM    C1115266   0.222   5.178   6.063 -0.2062  0.0509 -0.9332
  140OSM   H11A15267   0.261   5.106   6.138 -0.4983  0.1004 -0.7336
  140OSM   H11B15268   0.259   5.142   5.964  2.7307  0.7653 -0.1804
  140OSM      P15269  -0.022   5.204   6.175  0.0944 -0.1644 -0.3522
  140OSM    O1315270  -0.137   5.287   6.134  0.0792 -0.5754 -0.4830
  140OSM    O1415271  -0.046   5.069   6.232 -0.1824 -0.0387  0.0035
  140OSM    O1115272   0.063   5.287   6.279 -0.3693  0.2706 -0.2082
  140OSM    O1215273   0.079   5.191   6.059  0.2242 -0.1829  0.4455
  140OSM    C1S15274  -0.008   5.326   6.404 -0.5797 -0.3457  0.4310
  140OSM    H1S15275  -0.112   5.361   6.390 -0.6403 -0.3555  0.8680
  140OSM    H1T15276   0.038   5.417   6.447  0.4418 -0.8034  0.3391
  140OSM     NF15277  -0.059   5.277   6.639 -0.2065  0.0751 -0.2076
  140OSM    HNF15278  -0.002   5.310   6.714  0.4401 -0.5496 -0.4124
  140OSM    C2S15279  -0.000   5.219   6.518  0.9357 -0.0796 -1.0566
  140OSM    H2S15280  -0.056   5.126   6.494  0.5891 -0.0149 -0.5375
  140OSM    C3S15281   0.150   5.175   6.538 -0.3099  0.2576 -0.0987
  140OSM    H3S15282   0.207   5.269   6.556  0.8797 -0.3763 -0.4614
  140OSM     O315283   0.229   5.136   6.427  0.2980  0.4916  0.6058
  140OSM    HO315284   0.168   5.159   6.357 -0.9221 -4.8671 -0.5259
  140OSM    C4S15285   0.157   5.082   6.650  0.4345  0.2533  0.1475
  140OSM    H4S15286   0.207   5.130   6.736 -0.8255  2.8084 -0.4741
  140OSM    C5S15287   0.138   4.950   6.651 -0.1010  0.7230 -0.2524
  140OSM    H5S15288   0.095   4.899   6.563 -1.0331 -1.8256  1.5690
  140OSM    C6S15289   0.156   4.849   6.765 -0.0254 -0.3394  0.0921
  140OSM    H6S15290   0.237   4.775   6.746  0.1392 -0.3613  0.8359
  140OSM    H6T15291   0.067   4.785   6.784  1.2440 -1.7759  1.5299
  140OSM    C7S15292   0.193   4.922   6.900 -0.1104  0.1153  0.6062
  140OSM    H7S15293   0.121   5.002   6.926 -0.4059 -0.7587  2.5825
  140OSM    H7T15294   0.288   4.981   6.894  0.0010  0.1021  1.9071
  140OSM    C8S15295   0.199   4.825   7.013 -0.1342 -0.2123 -0.5126
  140OSM    H8S15296   0.246   4.730   6.978 -0.9504 -0.8127  0.0025
  140OSM    H8T15297   0.097   4.805   7.051  0.6440  2.6527  3.7274
  140OSM    C9S15298   0.278   4.884   7.128  0.0382  0.1631 -1.2097
  140OSM    H9S15299   0.224   4.972   7.169  0.7177  0.2264 -0.4180
  140OSM    H9T15300   0.378   4.922   7.096  0.4960 -0.7171 -0.8484
  140OSM   C10S15301   0.278   4.789   7.254 -0.0327 -0.0031  0.1742
  140OSM   H10S15302   0.314   4.685   7.236  0.7095  0.5196 -1.5011
  140OSM   H10T15303   0.173   4.780   7.291  0.1048  1.3207  0.9605
  140OSM   C11S15304   0.354   4.838   7.376  0.0980 -0.1689  0.8661
  140OSM   H11S15305   0.347   4.948   7.369 -2.1235 -0.3672 -2.0206
  140OSM   H11T15306   0.456   4.793   7.369  0.5840  1.1355 -1.7342
  140OSM   C12S15307   0.285   4.801   7.508  0.1002 -0.6040  0.4849
  140OSM   H12S15308   0.264   4.692   7.517 -2.0824 -0.1027  2.5200
  140OSM   H12T15309   0.188   4.853   7.514  0.4957  0.3284 -0.7031
  140OSM   C13S15310   0.362   4.860   7.630 -0.1651  0.9445 -0.5626
  140OSM   H13S15311   0.374   4.970   7.614  1.0931  0.6210 -2.2042
  140OSM   H13T15312   0.468   4.828   7.635 -0.1217  1.2415  0.5474
  140OSM   C14S15313   0.306   4.829   7.770 -0.2496  0.1075 -0.3442
  140OSM   H14S15314   0.302   4.721   7.798  0.0195  0.3060  0.4678
  140OSM   H14T15315   0.202   4.869   7.776  0.3262  1.4241  1.1677
  140OSM   C15S15316   0.397   4.896   7.876  0.5538  1.0977 -0.4209
  140OSM   H15S15317   0.401   5.000   7.838 -0.8106  1.4570  0.3511
  140OSM   H15T15318   0.494   4.843   7.881 -0.1960 -0.4246 -1.4304
  140OSM   C16S15319   0.325   4.912   8.011  0.0285 -0.3053 -0.0966
  140OSM   H16S15320   0.336   4.828   8.083 -0.2489  0.4213  0.8110
  140OSM   H16T15321   0.215   4.917   7.996 -0.2408  2.1746  1.9656
  140OSM   C17S15322   0.379   5.026   8.090  0.0139 -0.5985  0.7339
  140OSM   H17S15323   0.317   5.033   8.182 -0.6750  2.0369  0.1450
  140OSM   H17T15324   0.384   5.111   8.020  0.1918 -1.1606  0.0556
  140OSM   C18S15325   0.521   4.995   8.132 -0.0825  0.2552  0.2410
  140OSM   H18S15326   0.519   4.901   8.191 -2.1989 -0.7215 -1.2277
  140OSM   H18T15327   0.552   5.071   8.206  0.6199 -1.1927  1.4903
  140OSM   H18U15328   0.589   4.981   8.045 -1.8851 -0.3078 -1.1529
  140OSM    C1F15329  -0.188   5.283   6.658  0.5190 -0.1016  0.1200
  140OSM     OF15330  -0.261   5.235   6.573  0.0896  0.0252 -0.0986
  140OSM    C2F15331  -0.233   5.363   6.774  0.0372  0.1597 -0.1911
  140OSM    H2F15332  -0.229   5.472   6.756 -2.0814  0.6294  1.7151
  140OSM    H2G15333  -0.167   5.334   6.859 -1.8273 -2.3863  0.5023
  140OSM    C3F15334  -0.387   5.320   6.809 -0.7656 -0.1673  0.2404
  140OSM    H3F15335  -0.386   5.213   6.836 -1.4107  0.1955  1.8334
  140OSM    H3G15336  -0.457   5.341   6.725 -0.3950  1.5673  0.3182
  140OSM    C4F15337  -0.434   5.404   6.927  0.9821 -0.0502 -0.2496
  140OSM    H4F15338  -0.544   5.389   6.935  1.2718 -3.6143 -1.3420
  140OSM    H4G15339  -0.410   5.513   6.925  0.7413  0.0109  0.1238
  140OSM    C5F15340  -0.390   5.350   7.058 -0.9199  0.0157 -0.9211
  140OSM    H5F15341  -0.286   5.384   7.078 -1.2361  1.5651 -1.7477
  140OSM    H5G15342  -0.380   5.240   7.055 -0.7016  0.0327 -0.8428
  140OSM    C6F15343  -0.484   5.401   7.172 -0.1209 -0.2356  0.0078
  140OSM    H6F15344  -0.593   5.385   7.154 -0.9110  2.3883  1.9114
  140OSM    H6G15345  -0.470   5.510   7.181  0.2646 -0.1490 -1.3627
  140OSM    C7F15346  -0.454   5.331   7.298 -0.3136  0.7468  0.3601
  140OSM    H7F15347  -0.355   5.364   7.335  1.3971 -1.4637 -1.8799
  140OSM    H7G15348  -0.433   5.223   7.281 -1.3135  0.3443  1.4957
  140OSM    C8F15349  -0.565   5.352   7.401  0.3413 -0.6605 -1.0940
  140OSM    H8F15350  -0.666   5.321   7.367 -0.7473  0.7101  0.7124
  140OSM    H8G15351  -0.564   5.460   7.428  1.1825 -1.4051  2.3506
  140OSM    C9F15352  -0.541   5.265   7.521  0.0171  0.2021  0.0287
  140OSM    H9F15353  -0.501   5.169   7.486  0.6682  0.6407 -0.4372
  140OSM   C10F15354  -0.548   5.292   7.657 -0.4458 -0.0654 -0.9176
  140OSM   H10F15355  -0.541   5.216   7.737 -0.3453  0.8181 -0.0609
  140OSM   C11F15356  -0.581   5.431   7.716 -0.4671 -0.2568  0.7699
  140OSM   H11F15357  -0.652   5.417   7.800 -0.9617  1.4999  0.6900
  140OSM   H11G15358  -0.617   5.504   7.640  1.5117 -0.5532 -0.5184
  140OSM   C12F15359  -0.457   5.497   7.785  0.1852 -0.2990 -0.4004
  140OSM   H12F15360  -0.496   5.595   7.822  2.3557 -0.2124  1.9111
  140OSM   H12G15361  -0.371   5.517   7.718  0.0016 -0.3173 -0.6446
  140OSM   C13F15362  -0.420   5.427   7.921 -0.2189  0.1373 -0.1925
  140OSM   H13F15363  -0.354   5.338   7.912 -0.2914 -0.1433  1.5815
  140OSM   H13G15364  -0.520   5.407   7.966 -0.1080 -0.2121 -0.0986
  140OSM   C14F15365  -0.347   5.513   8.024 -0.1642  0.0485  0.7475
  140OSM   H14F15366  -0.406   5.604   8.043 -0.7567  0.3884 -2.2417
  140OSM   H14G15367  -0.253   5.544   7.974 -0.0197  0.3477  1.2005
  140OSM   C15F15368  -0.318   5.430   8.147 -0.2357  0.4698 -0.1333
  140OSM   H15F15369  -0.249   5.346   8.122 -1.0337 -1.0811  2.4908
  140OSM   H15G15370  -0.405   5.378   8.192  0.2454 -1.6183 -1.4603
  140OSM   C16F15371  -0.248   5.504   8.264 -0.4605  0.4400 -0.1539
  140OSM   H16F15372  -0.169   5.565   8.216  1.1756 -1.3045  0.2114
  140OSM   H16G15373  -0.206   5.419   8.322 -1.9809 -1.1419 -1.2512
  140OSM   C17F15374  -0.345   5.587   8.353  0.5952 -0.3087  0.5629
  140OSM   H17F15375  -0.451   5.555   8.347  0.5191 -0.4720  2.2733
  140OSM   H17G15376  -0.351   5.684   8.299 -2.6413 -1.8320 -2.1194
  140OSM   C18F15377  -0.310   5.589   8.505 -0.6402 -1.0512  0.0643
  140OSM   H18F15378  -0.203   5.618   8.507 -0.4789 -1.3370 -1.7815
  140OSM   H18G15379  -0.315   5.486   8.546  1.4400 -1.4460 -0.5181
  140OSM   H18H15380  -0.369   5.667   8.558  0.5926 -0.5147  0.6804
  141OSM      N15381   1.366   2.325   6.268  0.0689  0.1999  0.4451
  141OSM    C1515382   1.400   2.248   6.145 -0.8761  0.2375 -0.2311
  141OSM   H15A15383   1.319   2.192   6.100 -0.7279  0.4695 -0.8004
  141OSM   H15B15384   1.478   2.178   6.171 -0.4425  0.5813 -0.6007
  141OSM   H15C15385   1.441   2.303   6.061  1.2726 -1.2908 -0.2679
  141OSM    C1415386   1.244   2.400   6.245 -0.0049  0.3907 -0.7417
  141OSM   H14A15387   1.156   2.339   6.261 -0.1765  0.8491  0.1611
  141OSM   H14B15388   1.255   2.443   6.147  1.4972  0.8013 -0.4117
  141OSM   H14C15389   1.239   2.485   6.312  2.0869  0.0686 -0.1171
  141OSM    C1315390   1.349   2.213   6.371  0.0708 -0.2960 -0.3045
  141OSM   H13A15391   1.281   2.236   6.452  1.6113 -0.4575  1.0738
  141OSM   H13B15392   1.441   2.178   6.416  0.7955  3.2481  1.3116
  141OSM   H13C15393   1.304   2.126   6.325  1.3275 -1.5234  0.7167
  141OSM    C1215394   1.483   2.422   6.305 -0.1283 -0.0964  0.0985
  141OSM   H12A15395   1.564   2.363   6.345 -0.5520 -1.0817 -0.4681
  141OSM   H12B15396   1.441   2.486   6.381  0.3332  0.1769  0.1316
  141OSM    C1115397   1.545   2.512   6.196 -0.6953 -0.0262  0.6668
  141OSM   H11A15398   1.589   2.454   6.112  1.6065 -0.4188  2.0464
  141OSM   H11B15399   1.632   2.564   6.243  1.2642  0.1101 -2.7669
  141OSM      P15400   1.394   2.723   6.227  0.1719 -0.1183 -0.1040
  141OSM    O1315401   1.470   2.849   6.192 -0.2413  0.5142  0.1292
  141OSM    O1415402   1.250   2.732   6.198  0.0188 -0.4251 -0.3801
  141OSM    O1115403   1.409   2.678   6.378 -0.5297  0.0092  0.0870
  141OSM    O1215404   1.452   2.605   6.143  0.2115  0.3127 -0.1366
  141OSM    C1S15405   1.343   2.756   6.478  0.2047  0.2545 -0.4748
  141OSM    H1S15406   1.237   2.729   6.494  0.1628  2.0762  3.6181
  141OSM    H1T15407   1.353   2.864   6.456  1.9137  0.2938  0.3326
  141OSM     NF15408   1.328   2.770   6.730  0.5036 -0.0481 -0.2615
  141OSM    HNF15409   1.358   2.860   6.761  0.4007 -0.7877  2.1190
  141OSM    C2S15410   1.408   2.719   6.617 -0.3017 -0.3381  0.5817
  141OSM    H2S15411   1.412   2.609   6.624  1.7792 -0.2634  1.2024
  141OSM    C3S15412   1.559   2.762   6.618 -0.3841  0.7632  0.2267
  141OSM    H3S15413   1.566   2.873   6.612 -1.2903  0.9581  2.0878
  141OSM     O315414   1.636   2.690   6.513 -0.0000 -0.3957 -0.3181
  141OSM    HO315415   1.568   2.642   6.466  1.0312 -0.9038 -1.3163
  141OSM    C4S15416   1.619   2.726   6.749  0.5088  0.4251  0.2988
  141OSM    H4S15417   1.607   2.806   6.823  1.5150 -0.4034  1.3948
  141OSM    C5S15418   1.687   2.614   6.785 -0.1868  0.8068  0.1696
  141OSM    H5S15419   1.700   2.530   6.715 -0.2946  0.0502  1.0375
  141OSM    C6S15420   1.743   2.583   6.922  0.1935 -0.2498  0.0412
  141OSM    H6S15421   1.854   2.574   6.917  0.1814  0.1321 -3.1224
  141OSM    H6T15422   1.696   2.491   6.965 -0.2299  0.6320  1.5358
  141OSM    C7S15423   1.721   2.700   7.025 -0.3005  0.1635  0.2118
  141OSM    H7S15424   1.613   2.724   7.035 -0.4043 -1.0174  2.8105
  141OSM    H7T15425   1.774   2.796   7.007  1.7900 -0.8993  0.2907
  141OSM    C8S15426   1.785   2.663   7.157 -0.3134  0.2782  0.0212
  141OSM    H8S15427   1.895   2.654   7.147 -0.0813  2.9266 -0.5508
  141OSM    H8T15428   1.746   2.566   7.194  0.5843 -0.5024 -1.0104
  141OSM    C9S15429   1.774   2.765   7.276  1.0455 -0.3025 -0.3256
  141OSM    H9S15430   1.666   2.773   7.303  0.8439 -2.5843 -0.2307
  141OSM    H9T15431   1.822   2.862   7.253 -0.8655  1.2914  1.8948
  141OSM   C10S15432   1.860   2.736   7.402  0.8197  0.2710  1.1189
  141OSM   H10S15433   1.968   2.721   7.381  0.9406 -0.8335  2.3770
  141OSM   H10T15434   1.822   2.641   7.445 -0.3134  0.5163  0.7062
  141OSM   C11S15435   1.821   2.852   7.491  1.0536 -0.0364 -0.4273
  141OSM   H11S15436   1.711   2.845   7.507  1.3287 -1.9101  0.8449
  141OSM   H11T15437   1.854   2.950   7.450 -0.5499  0.2249 -1.1843
  141OSM   C12S15438   1.880   2.841   7.634  0.4671  0.3230  0.1999
  141OSM   H12S15439   1.831   2.921   7.693 -0.1958 -1.7387  2.6077
  141OSM   H12T15440   1.990   2.857   7.633  0.4551  0.4474  0.6075
  141OSM   C13S15441   1.836   2.723   7.722  0.5930 -0.2924 -0.2222
  141OSM   H13S15442   1.855   2.624   7.675  0.5670  0.0918 -1.0473
  141OSM   H13T15443   1.727   2.732   7.744  0.0472 -0.1936 -2.6419
  141OSM   C14S15444   1.896   2.733   7.868 -0.7052  0.1693 -0.1109
  141OSM   H14S15445   1.894   2.842   7.888  0.4192  0.4513 -1.4221
  141OSM   H14T15446   2.003   2.705   7.871 -0.6705  0.2014 -0.9878
  141OSM   C15S15447   1.814   2.650   7.973  0.3853 -0.4625 -0.6229
  141OSM   H15S15448   1.706   2.670   7.958 -0.2962 -2.1090  1.5147
  141OSM   H15T15449   1.838   2.686   8.075 -1.4779 -0.2599 -0.2229
  141OSM   C16S15450   1.818   2.497   7.956  0.1091  0.2539  0.3388
  141OSM   H16S15451   1.925   2.469   7.966 -0.4590 -1.2464  3.4700
  141OSM   H16T15452   1.785   2.472   7.853  1.1890  2.6705 -0.6583
  141OSM   C17S15453   1.745   2.424   8.064  0.4327  0.2492 -0.5778
  141OSM   H17S15454   1.651   2.475   8.094  0.7360  0.4652  0.0281
  141OSM   H17T15455   1.814   2.434   8.150  0.3670  0.1690 -0.5161
  141OSM   C18S15456   1.718   2.278   8.022  0.2006 -0.5209 -0.5058
  141OSM   H18S15457   1.684   2.211   8.104  2.2255 -1.9260 -0.7311
  141OSM   H18T15458   1.811   2.231   7.985 -0.7268 -2.6593 -0.2781
  141OSM   H18U15459   1.646   2.285   7.938  2.4163  3.3623 -2.3683
  141OSM    C1F15460   1.204   2.724   6.759 -0.0892  1.1040 -0.2790
  141OSM     OF15461   1.174   2.614   6.710  0.1178  0.0648 -0.2338
  141OSM    C2F15462   1.112   2.797   6.847  0.2180  0.8661 -0.8401
  141OSM    H2F15463   1.027   2.839   6.789 -0.6243  0.4637  0.0836
  141OSM    H2G15464   1.169   2.880   6.894  0.4406  0.1571  0.1693
  141OSM    C3F15465   1.067   2.714   6.972  1.0290 -0.8229  0.5614
  141OSM    H3F15466   1.163   2.694   7.025  1.2754  1.7482  1.2236
  141OSM    H3G15467   1.016   2.623   6.933 -3.2760  0.4449  2.6558
  141OSM    C4F15468   0.982   2.791   7.078  0.7196  0.1943 -0.1894
  141OSM    H4F15469   0.912   2.862   7.030  0.5293  1.1847  1.4851
  141OSM    H4G15470   1.051   2.864   7.126 -0.2923  0.8410  0.3047
  141OSM    C5F15471   0.918   2.694   7.179 -0.4111 -0.2949  0.1226
  141OSM    H5F15472   1.002   2.636   7.222  2.3131  1.3814 -2.5475
  141OSM    H5G15473   0.843   2.637   7.119  1.1826 -3.8686  1.2672
  141OSM    C6F15474   0.850   2.781   7.289 -0.5966  0.2228  0.6963
  141OSM    H6F15475   0.766   2.841   7.249 -1.2440 -2.6948 -2.9473
  141OSM    H6G15476   0.926   2.849   7.332 -1.9665  2.3409 -0.0848
  141OSM    C7F15477   0.798   2.691   7.407 -0.2120  0.0886  0.4398
  141OSM    H7F15478   0.763   2.597   7.358 -0.2481  0.0131  0.6086
  141OSM    H7G15479   0.712   2.746   7.449 -0.4512  1.4378 -1.6779
  141OSM    C8F15480   0.901   2.653   7.515  0.7267  0.2736  1.0830
  141OSM    H8F15481   1.006   2.634   7.483  1.1746  2.2591  1.2447
  141OSM    H8G15482   0.867   2.558   7.562 -1.5645  0.7371  0.4459
  141OSM    C9F15483   0.912   2.755   7.619 -0.4004  0.1463  0.2283
  141OSM    H9F15484   0.987   2.830   7.589 -1.4718  0.9650 -0.4886
  141OSM   C10F15485   0.838   2.772   7.735 -0.1595 -0.0273  0.6082
  141OSM   H10F15486   0.882   2.828   7.819 -1.0318 -1.1473  1.8543
  141OSM   C11F15487   0.714   2.684   7.765 -0.1085  0.4193 -0.9397
  141OSM   H11F15488   0.708   2.589   7.708  1.2125 -1.1051  1.3263
  141OSM   H11G15489   0.633   2.758   7.745  0.9297  2.0170  0.5551
  141OSM   C12F15490   0.713   2.653   7.910  0.4589 -0.6136  1.1769
  141OSM   H12F15491   0.620   2.593   7.922 -0.9091  0.7552 -1.6610
  141OSM   H12G15492   0.684   2.743   7.968 -2.5264 -0.1910 -0.7827
  141OSM   C13F15493   0.834   2.574   7.964 -0.1740 -0.0643  0.5716
  141OSM   H13F15494   0.925   2.635   7.984 -0.5997  0.7270  0.0889
  141OSM   H13G15495   0.863   2.494   7.892  1.2152  1.9319 -1.1991
  141OSM   C14F15496   0.803   2.513   8.098  0.0991 -0.0788  0.2437
  141OSM   H14F15497   0.875   2.436   8.132  1.1609  0.4926 -0.6223
  141OSM   H14G15498   0.700   2.475   8.087 -0.6705  1.1591  2.4775
  141OSM   C15F15499   0.800   2.618   8.217  1.0757  0.4325  0.2256
  141OSM   H15F15500   0.729   2.700   8.190  3.1388  2.8210  1.6314
  141OSM   H15G15501   0.898   2.669   8.220  2.1610 -1.1903 -2.9353
  141OSM   C16F15502   0.778   2.546   8.347 -0.9654  0.4260 -0.3246
  141OSM   H16F15503   0.784   2.436   8.334  1.6090  0.4266  0.3048
  141OSM   H16G15504   0.679   2.559   8.395 -0.0668  0.8061  1.5256
  141OSM   C17F15505   0.880   2.580   8.453 -0.1176 -0.0494 -0.3554
  141OSM   H17F15506   0.877   2.690   8.470 -0.4219 -0.2668  1.1425
  141OSM   H17G15507   0.986   2.553   8.429  0.3930  0.7328  0.9071
  141OSM   C18F15508   0.840   2.499   8.578  0.2778  0.4542  0.1286
  141OSM   H18F15509   0.738   2.524   8.615  0.3920  2.1161 -0.5704
  141OSM   H18G15510   0.925   2.520   8.646  1.9305 -1.9443 -1.0747
  141OSM   H18H15511   0.850   2.391   8.557 -2.3880  0.3055 -0.8837
  142OSM      N15512   1.071   3.073   6.142 -0.5230  0.2625 -0.3934
  142OSM    C1515513   1.158   3.013   6.245 -0.3957 -0.3404 -0.9365
  142OSM   H15A15514   1.205   2.920   6.216  0.2654 -0.6854  1.0699
  142OSM   H15B15515   1.095   2.995   6.332  0.0049 -1.6016 -0.8944
  142OSM   H15C15516   1.237   3.081   6.276 -0.8692 -0.6031  0.9856
  142OSM    C1415517   1.154   3.103   6.022  0.4704  0.5461  0.3937
  142OSM   H14A15518   1.200   3.024   5.964 -0.9774 -1.1108  1.4024
  142OSM   H14B15519   1.235   3.168   6.052  1.6630 -0.8756  0.3989
  142OSM   H14C15520   1.085   3.152   5.954  0.2344  0.6599  0.7153
  142OSM    C1315521   0.967   2.970   6.097  0.2329 -0.6911 -0.0091
  142OSM   H13A15522   1.009   2.882   6.050  1.5661 -0.0108 -0.1134
  142OSM   H13B15523   0.898   3.016   6.028  0.6034 -0.2498 -0.0906
  142OSM   H13C15524   0.913   2.929   6.182  0.5707  0.6405  0.8728
  142OSM    C1215525   1.013   3.201   6.194 -0.5178  0.2751  0.3281
  142OSM   H12A15526   0.961   3.249   6.113 -0.3975 -2.2085 -1.3240
  142OSM   H12B15527   1.095   3.263   6.227 -1.1939  0.0974  2.5053
  142OSM    C1115528   0.915   3.195   6.311  0.0280 -0.7944  0.3709
  142OSM   H11A15529   0.880   3.298   6.334  0.8086 -0.2083 -0.9531
  142OSM   H11B15530   0.967   3.156   6.400  1.8567  0.1771 -0.2282
  142OSM      P15531   0.652   3.142   6.313 -0.0490 -0.0905 -0.1283
  142OSM    O1315532   0.619   3.258   6.224  0.1994 -0.5746 -0.0824
  142OSM    O1415533   0.564   3.026   6.289 -0.3592 -0.2262 -0.5403
  142OSM    O1115534   0.649   3.183   6.470  0.2825  0.0800  0.0445
  142OSM    O1215535   0.805   3.106   6.292 -0.3037  0.8708  0.2881
  142OSM    C1S15536   0.530   3.247   6.528  0.9031  0.3458 -0.0942
  142OSM    H1S15537   0.436   3.199   6.491  0.8958  1.6684 -1.9123
  142OSM    H1T15538   0.535   3.347   6.480 -1.1871 -0.2115 -1.6348
  142OSM     NF15539   0.417   3.310   6.746  0.3558  0.3079 -0.3262
  142OSM    HNF15540   0.416   3.408   6.763 -3.1695  0.2582  0.4726
  142OSM    C2S15541   0.537   3.262   6.687  0.3299 -0.3316  0.1622
  142OSM    H2S15542   0.562   3.167   6.738  1.2731 -0.0769  0.1987
  142OSM    C3S15543   0.662   3.348   6.731 -0.0901 -0.4052 -0.0650
  142OSM    H3S15544   0.617   3.444   6.699 -0.7287 -0.0366  1.7959
  142OSM     O315545   0.779   3.332   6.646 -0.9318 -0.0725  0.6699
  142OSM    HO315546   0.747   3.282   6.571 -2.0382 -0.3442  1.2970
  142OSM    C4S15547   0.698   3.339   6.874  0.5951 -0.5913 -0.0199
  142OSM    H4S15548   0.631   3.401   6.935 -2.2627 -1.7354 -1.7790
  142OSM    C5S15549   0.783   3.256   6.934  0.3010 -0.1688  0.3541
  142OSM    H5S15550   0.826   3.170   6.880 -1.4877 -0.5961 -0.4569
  142OSM    C6S15551   0.810   3.249   7.078 -0.5663  0.6966  0.4587
  142OSM    H6S15552   0.913   3.209   7.089 -0.7615  0.4168  1.3647
  142OSM    H6T15553   0.766   3.161   7.131  0.8754  0.9403  2.1602
  142OSM    C7S15554   0.792   3.378   7.167 -0.1243 -0.1508 -0.9455
  142OSM    H7S15555   0.684   3.406   7.172 -0.2117 -0.5063 -0.7849
  142OSM    H7T15556   0.843   3.461   7.115  1.9674 -1.6705 -1.4570
  142OSM    C8S15557   0.855   3.351   7.308  0.3186  0.2593 -0.2467
  142OSM    H8S15558   0.831   3.441   7.368 -1.4073  0.3058 -0.9577
  142OSM    H8T15559   0.961   3.317   7.305  0.2599  0.1207 -2.3177
  142OSM    C9S15560   0.782   3.237   7.382  0.8357 -0.5693  0.0077
  142OSM    H9S15561   0.809   3.140   7.336  3.3752  0.2181 -0.3349
  142OSM    H9T15562   0.672   3.248   7.370  0.8083 -1.6648 -0.9524
  142OSM   C10S15563   0.807   3.228   7.530 -0.0517  0.1807 -1.3480
  142OSM   H10S15564   0.767   3.319   7.580 -1.7951 -1.1404 -0.2429
  142OSM   H10T15565   0.912   3.203   7.555 -0.3110  0.6579  0.3640
  142OSM   C11S15566   0.711   3.122   7.599 -0.3090  0.0261 -0.1755
  142OSM   H11S15567   0.750   3.019   7.587  1.4728  0.3872  2.0053
  142OSM   H11T15568   0.608   3.128   7.556 -0.3532 -5.1841 -1.4252
  142OSM   C12S15569   0.703   3.141   7.751 -0.2460  0.3820  0.6973
  142OSM   H12S15570   0.695   3.250   7.772 -0.1201  0.3048  1.1646
  142OSM   H12T15571   0.798   3.104   7.796  0.4648 -0.4841 -1.3853
  142OSM   C13S15572   0.586   3.065   7.814  0.0967 -0.6332 -0.1932
  142OSM   H13S15573   0.578   2.976   7.749  1.6672  0.6726 -2.3306
  142OSM   H13T15574   0.501   3.132   7.788 -0.5616 -2.2593 -2.4600
  142OSM   C14S15575   0.612   3.047   7.966  0.2137 -0.5294 -0.4462
  142OSM   H14S15576   0.625   3.145   8.016  1.8303 -1.6455  1.5252
  142OSM   H14T15577   0.708   2.991   7.968 -0.2863 -1.4329 -1.0467
  142OSM   C15S15578   0.513   2.956   8.042  0.5867 -0.8345  0.3825
  142OSM   H15S15579   0.505   2.857   7.992 -1.0049 -0.8106  0.5118
  142OSM   H15T15580   0.411   3.002   8.044  0.3658 -1.2895 -0.1920
  142OSM   C16S15581   0.550   2.937   8.192 -0.2973 -0.1412  0.3999
  142OSM   H16S15582   0.563   3.038   8.238 -0.0008 -0.0056  0.0268
  142OSM   H16T15583   0.640   2.872   8.192  1.3646  2.0285  0.9177
  142OSM   C17S15584   0.443   2.846   8.262 -0.4390  0.4005 -1.0696
  142OSM   H17S15585   0.428   2.758   8.197  0.4679 -0.4985 -0.0879
  142OSM   H17T15586   0.343   2.894   8.267 -0.6083  0.3112 -2.8343
  142OSM   C18S15587   0.489   2.817   8.404  0.4453  0.6234  0.4319
  142OSM   H18S15588   0.516   2.908   8.462  0.9664 -0.2044  1.5301
  142OSM   H18T15589   0.575   2.747   8.398  0.0420  0.1493  0.0930
  142OSM   H18U15590   0.419   2.754   8.461  0.8001 -0.3506 -0.1815
  142OSM    C1F15591   0.307   3.240   6.753  0.1148  0.5462 -0.1089
  142OSM     OF15592   0.298   3.117   6.744 -0.3399 -0.0639 -0.0721
  142OSM    C2F15593   0.180   3.320   6.771 -0.3855 -0.2146 -0.0007
  142OSM    H2F15594   0.094   3.279   6.713 -0.9519  1.8950 -0.7306
  142OSM    H2G15595   0.196   3.423   6.734 -1.3029 -0.5883 -1.5272
  142OSM    C3F15596   0.140   3.323   6.920  0.2819 -0.0096 -0.0554
  142OSM    H3F15597   0.214   3.382   6.977  0.3778 -2.3937  2.5001
  142OSM    H3G15598   0.131   3.224   6.969 -1.6927  0.6631  1.0633
  142OSM    C4F15599  -0.007   3.367   6.929  0.3705 -0.1400 -0.9443
  142OSM    H4F15600  -0.078   3.294   6.883  0.8910 -0.0430 -1.9271
  142OSM    H4G15601  -0.013   3.460   6.869  1.1248 -0.1919 -1.1035
  142OSM    C5F15602  -0.053   3.401   7.070 -0.2342  0.4869  0.0623
  142OSM    H5F15603  -0.035   3.316   7.140 -2.0866  0.9550  1.1586
  142OSM    H5G15604  -0.161   3.422   7.058  0.3911  3.9307 -0.5357
  142OSM    C6F15605   0.011   3.528   7.129  0.2202  0.3884 -0.2592
  142OSM    H6F15606   0.019   3.606   7.051 -1.8478 -0.1521 -1.0633
  142OSM    H6G15607   0.112   3.501   7.166  0.7158  1.3400 -0.8738
  142OSM    C7F15608  -0.064   3.585   7.249 -0.2202 -0.3051 -0.2984
  142OSM    H7F15609   0.004   3.656   7.300 -1.6479 -0.1060  1.4386
  142OSM    H7G15610  -0.088   3.506   7.323 -0.2706 -1.4404 -1.4795
  142OSM    C8F15611  -0.195   3.669   7.225  0.6237 -0.0755 -0.0316
  142OSM    H8F15612  -0.279   3.605   7.189  0.2431  0.6430 -0.4400
  142OSM    H8G15613  -0.173   3.742   7.145 -0.8037  0.7628  0.3106
  142OSM    C9F15614  -0.228   3.755   7.347 -0.6762 -0.0480  0.5878
  142OSM    H9F15615  -0.136   3.779   7.403  1.3745 -1.8451 -1.7499
  142OSM   C10F15616  -0.345   3.787   7.401 -0.3040 -0.7337  0.1327
  142OSM   H10F15617  -0.337   3.859   7.484  2.7097 -1.2073  0.3564
  142OSM   C11F15618  -0.487   3.764   7.351 -0.6556  0.1690  0.5935
  142OSM   H11F15619  -0.559   3.716   7.421 -2.7166  0.7030 -1.0842
  142OSM   H11G15620  -0.474   3.702   7.260  0.0720 -0.1886  0.9297
  142OSM   C12F15621  -0.560   3.894   7.303  0.4443  0.2540 -0.1225
  142OSM   H12F15622  -0.659   3.871   7.259  1.5768 -3.4613 -1.0208
  142OSM   H12G15623  -0.502   3.940   7.221  1.5646  3.2475  2.1527
  142OSM   C13F15624  -0.586   3.995   7.417  0.0570 -0.4130  0.0365
  142OSM   H13F15625  -0.653   4.078   7.384  1.6761  1.2165  0.6809
  142OSM   H13G15626  -0.491   4.050   7.434 -0.1714 -0.6613  2.6143
  142OSM   C14F15627  -0.629   3.942   7.554 -0.2016 -0.9513 -0.0993
  142OSM   H14F15628  -0.566   3.853   7.577 -0.2618 -1.2769 -1.1463
  142OSM   H14G15629  -0.737   3.919   7.539 -1.1830  2.3658  0.9691
  142OSM   C15F15630  -0.612   4.055   7.654 -0.6143 -0.0572 -0.2147
  142OSM   H15F15631  -0.648   4.146   7.602  2.0421 -0.5492 -3.2804
  142OSM   H15G15632  -0.503   4.075   7.658 -0.3723 -0.8237 -1.9619
  142OSM   C16F15633  -0.652   4.011   7.794  0.0484  0.0543  0.5494
  142OSM   H16F15634  -0.607   3.909   7.799  1.1366  0.5662  1.6803
  142OSM   H16G15635  -0.762   3.999   7.803 -0.1759  1.3206 -0.2889
  142OSM   C17F15636  -0.587   4.097   7.899  1.2478 -0.3519  0.0282
  142OSM   H17F15637  -0.480   4.113   7.873  0.8298 -1.3142 -2.5695
  142OSM   H17G15638  -0.591   4.058   8.003  0.2426  4.1416  1.9475
  142OSM   C18F15639  -0.663   4.238   7.901  0.3210 -0.4754  0.2162
  142OSM   H18F15640  -0.770   4.235   7.931  0.4946  0.5022  0.9711
  142OSM   H18G15641  -0.653   4.286   7.801  1.1818 -0.7056  0.1865
  142OSM   H18H15642  -0.621   4.308   7.976  2.6230  0.7193 -2.0550
  143OSM      N15643   1.485   4.772   6.286  0.1847 -0.5924  0.2175
  143OSM    C1515644   1.376   4.832   6.370 -0.5381  0.3734 -0.6201
  143OSM   H15A15645   1.396   4.826   6.476  0.6447  0.5003 -0.8262
  143OSM   H15B15646   1.286   4.773   6.360 -1.3171  0.9656  2.0315
  143OSM   H15C15647   1.342   4.932   6.344 -2.1814 -0.3781 -1.5311
  143OSM    C1415648   1.605   4.855   6.308 -0.2155 -0.0718  0.3395
  143OSM   H14A15649   1.597   4.944   6.248 -1.2978 -0.1797  0.3183
  143OSM   H14B15650   1.689   4.807   6.259 -1.0137  1.0476 -2.3122
  143OSM   H14C15651   1.625   4.872   6.413 -1.7600  0.9453  0.4843
  143OSM    C1315652   1.522   4.637   6.334 -0.2398  0.2294  0.3866
  143OSM   H13A15653   1.452   4.565   6.293 -1.0433  0.5663  1.1265
  143OSM   H13B15654   1.510   4.632   6.442  2.2925  1.6973  0.8193
  143OSM   H13C15655   1.623   4.603   6.318 -1.2019 -2.7055 -0.1572
  143OSM    C1215656   1.437   4.755   6.144 -0.5091 -0.9073  0.4602
  143OSM   H12A15657   1.520   4.725   6.081 -1.0020  0.3412 -0.8533
  143OSM   H12B15658   1.405   4.847   6.097 -0.3069 -0.8122  0.5073
  143OSM    C1115659   1.328   4.650   6.114 -0.7351  0.5940 -0.1868
  143OSM   H11A15660   1.371   4.550   6.134  1.8994  1.7043 -0.0243
  143OSM   H11B15661   1.310   4.661   6.004 -3.7392  0.8975  0.2438
  143OSM      P15662   1.090   4.762   6.143  0.0216  0.0400 -0.1945
  143OSM    O1315663   1.137   4.856   6.040 -0.5806  0.5808  0.0458
  143OSM    O1415664   0.987   4.664   6.106  0.7814 -0.4118  0.3982
  143OSM    O1115665   1.043   4.841   6.272 -0.3823  0.9019 -0.5490
  143OSM    O1215666   1.210   4.665   6.187  0.0974  0.0684  0.2017
  143OSM    C1S15667   0.982   4.765   6.372  0.5559 -0.3602 -0.6399
  143OSM    H1S15668   0.995   4.655   6.368 -0.5252 -0.5090 -0.4454
  143OSM    H1T15669   0.872   4.781   6.365  0.0838 -1.3757  2.7578
  143OSM     NF15670   0.979   4.702   6.609 -0.6200 -0.3024  0.0135
  143OSM    HNF15671   0.908   4.724   6.676  0.4736 -0.8632  1.4096
  143OSM    C2S15672   1.028   4.799   6.518 -0.2584 -0.4605  0.2919
  143OSM    H2S15673   1.139   4.800   6.520 -0.1958 -2.7216  1.0655
  143OSM    C3S15674   0.972   4.942   6.553 -0.5058 -0.4762 -0.2564
  143OSM    H3S15675   0.863   4.933   6.573 -0.0127 -1.0298  2.7031
  143OSM     O315676   0.988   5.039   6.452 -0.4076 -0.1029  0.1630
  143OSM    HO315677   1.026   4.982   6.384  1.7947 -0.9979  2.0323
  143OSM    C4S15678   1.042   4.982   6.683 -0.0302  0.1337  0.1296
  143OSM    H4S15679   0.963   4.964   6.758  0.7367 -2.4633  0.4095
  143OSM    C5S15680   1.169   5.029   6.704  0.0501  0.1977  0.2085
  143OSM    H5S15681   1.228   5.061   6.616 -2.3710  0.5808 -1.3795
  143OSM    C6S15682   1.218   5.063   6.845  0.5661  0.2516  0.3274
  143OSM    H6S15683   1.256   5.166   6.831  1.1826 -0.2401 -2.2340
  143OSM    H6T15684   1.293   4.986   6.873  0.0544 -0.1745  0.5440
  143OSM    C7S15685   1.109   5.078   6.954  0.0833  0.1561 -0.4543
  143OSM    H7S15686   1.041   4.989   6.952 -1.3890  1.2377 -0.4204
  143OSM    H7T15687   1.047   5.162   6.916  1.3937  0.1054 -2.8525
  143OSM    C8S15688   1.151   5.096   7.098  0.3788  0.5863  0.7719
  143OSM    H8S15689   1.236   5.167   7.109  0.1906  0.7783  1.0328
  143OSM    H8T15690   1.191   5.004   7.144  2.1502 -0.2473 -2.1888
  143OSM    C9S15691   1.030   5.131   7.184  0.1582  0.0301 -0.3760
  143OSM    H9S15692   0.962   5.046   7.206 -2.1606  2.3205  2.1328
  143OSM    H9T15693   0.971   5.205   7.127 -0.7763 -0.0554  0.4518
  143OSM   C10S15694   1.073   5.189   7.326  0.4867 -0.2427  0.0019
  143OSM   H10S15695   0.993   5.242   7.382  0.4433  0.0125 -0.3008
  143OSM   H10T15696   1.150   5.266   7.304 -1.0055  1.6965  1.2113
  143OSM   C11S15697   1.123   5.075   7.410  0.7739 -0.8641  0.1803
  143OSM   H11S15698   1.217   5.042   7.361  0.0963 -0.1795 -1.6600
  143OSM   H11T15699   1.058   4.987   7.392  1.4619 -1.2667 -0.3886
  143OSM   C12S15700   1.130   5.106   7.558  0.3241  1.1834 -0.2864
  143OSM   H12S15701   1.027   5.132   7.590  0.0456 -0.6035  0.3715
  143OSM   H12T15702   1.204   5.188   7.575  0.8849  0.4141  1.2427
  143OSM   C13S15703   1.171   4.980   7.641  0.6471  0.6528  0.4826
  143OSM   H13S15704   1.264   4.941   7.594 -0.3308  1.4160 -2.2991
  143OSM   H13T15705   1.092   4.902   7.638  1.8882 -0.6296 -0.1369
  143OSM   C14S15706   1.192   5.011   7.788 -0.5161  0.2669  0.6097
  143OSM   H14S15707   1.274   5.085   7.798 -1.7066  1.6125  0.9626
  143OSM   H14T15708   1.231   4.919   7.837 -0.8317  0.2388  0.8156
  143OSM   C15S15709   1.065   5.058   7.860 -0.5129  0.0240  0.2360
  143OSM   H15S15710   0.985   4.982   7.859  1.6028 -2.3149 -0.3902
  143OSM   H15T15711   1.028   5.139   7.793  2.2293 -1.5074 -3.4827
  143OSM   C16S15712   1.112   5.104   7.992 -0.2469 -0.4188 -0.1516
  143OSM   H16S15713   1.189   5.182   7.980 -2.1597  1.4205 -1.1854
  143OSM   H16T15714   1.140   5.011   8.046 -0.2560 -0.2211  0.1924
  143OSM   C17S15715   0.997   5.164   8.073  0.0366 -0.9051 -0.2064
  143OSM   H17S15716   0.918   5.211   8.010 -0.1732  2.0771  2.0533
  143OSM   H17T15717   1.043   5.237   8.144 -1.5499 -1.5598  1.5880
  143OSM   C18S15718   0.918   5.071   8.159 -0.4205 -0.3276 -0.6305
  143OSM   H18S15719   0.861   4.997   8.098 -1.9646 -2.2045  2.7781
  143OSM   H18T15720   0.849   5.122   8.229  0.8464  1.4190 -0.5866
  143OSM   H18U15721   0.977   4.998   8.219 -0.3468  0.3687  0.1579
  143OSM    C1F15722   1.033   4.578   6.622 -0.1516  0.0475 -0.0440
  143OSM     OF15723   1.130   4.548   6.549 -0.6839 -0.2420 -0.5636
  143OSM    C2F15724   0.973   4.474   6.721 -0.5057  0.1243  0.0030
  143OSM    H2F15725   0.878   4.440   6.675 -0.5802 -0.1151  0.3338
  143OSM    H2G15726   0.966   4.523   6.821  4.0225 -0.1281  0.6536
  143OSM    C3F15727   1.051   4.336   6.726 -0.1081  0.8066 -0.5604
  143OSM    H3F15728   1.157   4.342   6.760 -0.2923  0.2579  0.1628
  143OSM    H3G15729   1.055   4.281   6.630 -3.5118 -1.9139  0.6475
  143OSM    C4F15730   0.983   4.230   6.822 -0.3444  0.3372  0.8341
  143OSM    H4F15731   1.038   4.134   6.832  0.3526  0.2019 -2.8377
  143OSM    H4G15732   0.891   4.192   6.772  0.6353 -1.6294  0.4481
  143OSM    C5F15733   0.940   4.286   6.955  0.2159  0.0536 -0.1594
  143OSM    H5F15734   0.889   4.204   7.009  1.1835 -1.4662 -1.4522
  143OSM    H5G15735   0.865   4.368   6.945  0.1081 -0.2126 -1.8747
  143OSM    C6F15736   1.060   4.327   7.043 -0.0236 -0.3220  0.2055
  143OSM    H6F15737   1.106   4.416   6.995 -0.0929  0.5703  1.7371
  143OSM    H6G15738   1.133   4.243   7.051 -0.5614 -0.9369 -1.0764
  143OSM    C7F15739   1.006   4.381   7.181 -0.1581 -0.2790 -0.5005
  143OSM    H7F15740   0.922   4.452   7.164 -0.3953 -0.4450 -0.0246
  143OSM    H7G15741   1.092   4.438   7.220  0.5305 -0.2369 -2.0216
  143OSM    C8F15742   0.971   4.273   7.283  1.0363  0.7981  0.0728
  143OSM    H8F15743   0.921   4.186   7.235  1.3166  0.0009  1.1838
  143OSM    H8G15744   0.908   4.315   7.364 -0.3434  1.9750 -1.5474
  143OSM    C9F15745   1.094   4.209   7.344 -0.4206  0.2036  0.2074
  143OSM    H9F15746   1.143   4.138   7.275 -1.7663  0.2211 -0.7955
  143OSM   C10F15747   1.140   4.226   7.468 -0.4172  0.1106 -0.3623
  143OSM   H10F15748   1.229   4.165   7.491 -0.7024 -0.7047 -1.3261
  143OSM   C11F15749   1.084   4.319   7.576 -0.3211  0.5975 -0.1344
  143OSM   H11F15750   1.046   4.411   7.527 -1.3463 -0.2301 -0.9264
  143OSM   H11G15751   1.154   4.334   7.661  0.1431 -0.7467 -0.2701
  143OSM   C12F15752   0.957   4.250   7.640 -0.8048 -0.2554  0.6104
  143OSM   H12F15753   0.895   4.202   7.561  1.2521 -1.0452 -0.6063
  143OSM   H12G15754   0.894   4.327   7.690  1.9878  0.8271  2.6854
  143OSM   C13F15755   0.987   4.136   7.732 -0.3563  0.2124 -0.0838
  143OSM   H13F15756   1.052   4.065   7.676  0.5743  1.9177 -1.2295
  143OSM   H13G15757   0.894   4.075   7.744 -0.4015  0.0367 -1.2524
  143OSM   C14F15758   1.049   4.164   7.869  0.0101  0.6739  0.2102
  143OSM   H14F15759   0.998   4.251   7.916 -0.2304  0.0709  1.0819
  143OSM   H14G15760   1.155   4.193   7.856 -1.0602  4.0254 -2.8695
  143OSM   C15F15761   1.033   4.034   7.949  0.1281  0.3213  0.0822
  143OSM   H15F15762   1.110   4.037   8.028 -2.1894 -1.2733  2.6160
  143OSM   H15G15763   1.043   3.958   7.868 -0.9078  2.2352 -1.9681
  143OSM   C16F15764   0.901   4.031   8.030  0.3067  0.5104  0.5777
  143OSM   H16F15765   0.823   3.986   7.965  2.2259 -0.4504 -1.1644
  143OSM   H16G15766   0.867   4.131   8.065  0.8323  1.9226 -2.5871
  143OSM   C17F15767   0.913   3.928   8.143  0.0489 -0.1222 -1.0288
  143OSM   H17F15768   0.977   3.978   8.219 -0.6789 -0.3561 -0.2452
  143OSM   H17G15769   0.961   3.834   8.109  0.5254  0.0775 -0.9216
  143OSM   C18F15770   0.775   3.900   8.202  0.2914  0.3435 -0.5444
  143OSM   H18F15771   0.707   3.863   8.123  0.6640 -0.6176 -0.4303
  143OSM   H18G15772   0.732   3.996   8.238  1.8662  1.2478 -0.9789
  143OSM   H18H15773   0.771   3.828   8.286  1.3715 -0.5894 -1.2720
  144OSM      N15774   2.443   3.333   5.938  0.1412 -0.2364 -0.0770
  144OSM    C1515775   2.432   3.181   5.944 -0.5668 -0.5153  0.4096
  144OSM   H15A15776   2.335   3.150   5.981 -0.0879 -1.4954  0.8858
  144OSM   H15B15777   2.504   3.145   6.016 -1.3059  0.8346  1.8895
  144OSM   H15C15778   2.451   3.136   5.848 -1.0291  0.1587 -0.0044
  144OSM    C1415779   2.442   3.384   6.075 -0.1842 -0.1370  0.3614
  144OSM   H14A15780   2.467   3.489   6.076  1.0665 -0.4054 -0.5324
  144OSM   H14B15781   2.511   3.328   6.136 -1.4438 -0.0175  1.9591
  144OSM   H14C15782   2.344   3.386   6.120  0.5478  3.8214  2.2118
  144OSM    C1315783   2.576   3.368   5.875 -0.6578 -0.5125 -0.2167
  144OSM   H13A15784   2.587   3.337   5.773  0.6090  1.0200 -0.5685
  144OSM   H13B15785   2.651   3.312   5.928 -2.8036 -1.7673  1.7363
  144OSM   H13C15786   2.605   3.472   5.878 -1.7181 -0.2005 -0.1887
  144OSM    C1215787   2.340   3.397   5.854 -0.4822 -0.6689 -0.2597
  144OSM   H12A15788   2.346   3.357   5.753 -1.5106  2.5206 -1.7049
  144OSM   H12B15789   2.373   3.499   5.842 -1.6974 -0.3173 -0.8065
  144OSM    C1115790   2.191   3.391   5.894 -0.1210  0.0364  0.4551
  144OSM   H11A15791   2.163   3.284   5.898  2.7783 -0.8337 -0.0305
  144OSM   H11B15792   2.133   3.429   5.808  2.3335  2.4345 -0.2842
  144OSM      P15793   2.142   3.611   6.036  0.1106 -0.1258  0.5622
  144OSM    O1315794   2.270   3.674   6.054  0.2983  0.0106 -0.3972
  144OSM    O1415795   2.057   3.660   5.928  0.6760 -0.4379 -0.0174
  144OSM    O1115796   2.059   3.617   6.167  0.0328  0.6818  0.3094
  144OSM    O1215797   2.155   3.454   6.020 -0.1388 -0.0090 -0.0776
  144OSM    C1S15798   2.100   3.554   6.290 -0.2303  0.0233  0.7221
  144OSM    H1S15799   2.210   3.540   6.288 -0.5015 -2.4220  0.0288
  144OSM    H1T15800   2.052   3.454   6.299 -0.2399 -0.1343 -0.8245
  144OSM     NF15801   2.096   3.612   6.532  0.1783 -0.0093  0.0215
  144OSM    HNF15802   2.054   3.541   6.587  1.0995  0.4838  1.4007
  144OSM    C2S15803   2.039   3.642   6.404 -0.0552 -0.4210 -0.8195
  144OSM    H2S15804   2.068   3.747   6.383 -0.2519 -0.4498 -1.2367
  144OSM    C3S15805   1.884   3.633   6.403 -0.1374 -0.3253  0.1816
  144OSM    H3S15806   1.851   3.527   6.406  1.1293 -0.7441 -0.1386
  144OSM     O315807   1.828   3.686   6.289 -0.1079  0.3347  0.0130
  144OSM    HO315808   1.896   3.665   6.225 -0.8912  0.5014 -0.8936
  144OSM    C4S15809   1.822   3.710   6.508  0.0557 -0.0974 -0.6297
  144OSM    H4S15810   1.798   3.817   6.501  0.5376  0.4537  3.4627
  144OSM    C5S15811   1.766   3.655   6.617  0.9895  0.4947 -0.7059
  144OSM    H5S15812   1.762   3.547   6.641 -0.4375  0.7650  0.4039
  144OSM    C6S15813   1.688   3.738   6.718  0.2882  0.3112  1.0033
  144OSM    H6S15814   1.579   3.723   6.707  0.1887  0.6688  1.4568
  144OSM    H6T15815   1.691   3.848   6.699 -2.5065  0.0209 -1.8588
  144OSM    C7S15816   1.713   3.715   6.870  0.3116 -0.2732 -0.9314
  144OSM    H7S15817   1.667   3.801   6.923  0.0641  0.5818 -2.4575
  144OSM    H7T15818   1.822   3.709   6.891 -0.0452  1.0523  1.8737
  144OSM    C8S15819   1.648   3.580   6.918 -0.5115 -0.0074 -0.0148
  144OSM    H8S15820   1.674   3.497   6.849  2.8231  0.8116  0.0770
  144OSM    H8T15821   1.537   3.590   6.917 -0.6626  0.0538  3.3531
  144OSM    C9S15822   1.713   3.543   7.053  0.0164  0.1481 -0.1095
  144OSM    H9S15823   1.824   3.541   7.045  0.1829  1.5287  1.3039
  144OSM    H9T15824   1.682   3.440   7.081 -1.4628  0.3686 -0.8371
  144OSM   C10S15825   1.676   3.641   7.165 -0.0250 -0.1667 -0.3187
  144OSM   H10S15826   1.568   3.666   7.152  0.0492  0.0901 -0.4566
  144OSM   H10T15827   1.729   3.739   7.161  1.5119 -0.7728  2.6432
  144OSM   C11S15828   1.711   3.571   7.292 -0.3341 -0.4256  0.8460
  144OSM   H11S15829   1.813   3.528   7.282  0.3716  0.8964  2.1256
  144OSM   H11T15830   1.633   3.493   7.306 -1.9999  1.3328  1.8288
  144OSM   C12S15831   1.696   3.653   7.412 -0.6543  0.1448 -0.4257
  144OSM   H12S15832   1.592   3.692   7.405 -0.8735 -0.6579 -2.1952
  144OSM   H12T15833   1.773   3.732   7.411 -0.4440  0.1679  3.0437
  144OSM   C13S15834   1.721   3.577   7.543  0.1867  0.7875  0.9177
  144OSM   H13S15835   1.821   3.530   7.532  0.5466  1.6210  0.5486
  144OSM   H13T15836   1.640   3.502   7.553  0.3044  0.6371  0.7484
  144OSM   C14S15837   1.730   3.638   7.678  0.8178  0.5540 -0.5931
  144OSM   H14S15838   1.636   3.689   7.708 -0.4317 -1.9159 -0.1185
  144OSM   H14T15839   1.811   3.714   7.668  2.5177 -0.7810  1.9419
  144OSM   C15S15840   1.768   3.536   7.789 -0.0991 -0.7395 -0.5190
  144OSM   H15S15841   1.812   3.448   7.738  0.3482 -1.3623  0.9033
  144OSM   H15T15842   1.670   3.499   7.827  0.6418  0.0200  2.3578
  144OSM   C16S15843   1.857   3.589   7.904 -0.1391  0.1160 -0.5161
  144OSM   H16S15844   1.827   3.692   7.935 -0.9366 -0.9243  2.5141
  144OSM   H16T15845   1.964   3.593   7.874 -0.7977 -0.2778 -3.1325
  144OSM   C17S15846   1.834   3.490   8.032  0.4546 -0.3561 -0.6982
  144OSM   H17S15847   1.810   3.388   7.996  1.0498 -0.2832 -1.3125
  144OSM   H17T15848   1.742   3.515   8.089  0.9306  0.1964 -0.1462
  144OSM   C18S15849   1.946   3.486   8.135  0.2894  0.0388  0.3670
  144OSM   H18S15850   2.041   3.449   8.091  0.4658 -0.6886  1.3226
  144OSM   H18T15851   1.915   3.424   8.222 -0.4285 -1.8926 -1.1869
  144OSM   H18U15852   1.969   3.589   8.170  0.6016  0.1812 -0.2410
  144OSM    C1F15853   2.221   3.642   6.572  0.4738 -0.0538  0.6135
  144OSM     OF15854   2.302   3.692   6.490  0.1176 -0.4211  0.2935
  144OSM    C2F15855   2.248   3.616   6.720 -0.5358  0.4071  0.2008
  144OSM    H2F15856   2.317   3.529   6.719 -1.0819 -0.0163 -0.8535
  144OSM    H2G15857   2.153   3.587   6.769  0.2453 -0.8658  1.0407
  144OSM    C3F15858   2.308   3.740   6.789  0.0994 -0.2273  0.3185
  144OSM    H3F15859   2.226   3.814   6.789 -0.4912 -0.8717  0.6760
  144OSM    H3G15860   2.394   3.781   6.732  0.5241 -0.9709  0.4125
  144OSM    C4F15861   2.365   3.710   6.921 -0.2658  0.2280  0.1121
  144OSM    H4F15862   2.393   3.807   6.967  1.1767 -0.1868  0.1761
  144OSM    H4G15863   2.458   3.650   6.908  0.2710  1.0977 -0.1809
  144OSM    C5F15864   2.275   3.634   7.011 -0.1430  0.5444 -0.4138
  144OSM    H5F15865   2.261   3.530   6.976 -0.5172 -0.3589  2.1578
  144OSM    H5G15866   2.172   3.675   7.021 -0.0224  0.7176  0.1692
  144OSM    C6F15867   2.348   3.627   7.153  0.6080 -0.0477  0.9032
  144OSM    H6F15868   2.345   3.730   7.194  1.5635 -0.1684  1.2892
  144OSM    H6G15869   2.454   3.601   7.133  0.3621 -1.6149  1.4610
  144OSM    C7F15870   2.288   3.518   7.249  0.1028  0.6404 -0.4378
  144OSM    H7F15871   2.293   3.421   7.196 -1.6797  1.1138 -1.5921
  144OSM    H7G15872   2.177   3.528   7.257 -0.1926 -2.5019  0.6279
  144OSM    C8F15873   2.343   3.511   7.400 -0.5481  0.3904  0.3849
  144OSM    H8F15874   2.454   3.511   7.405 -0.5682 -0.1584  1.0171
  144OSM    H8G15875   2.306   3.414   7.438 -0.7375  0.6359  0.8459
  144OSM    C9F15876   2.300   3.631   7.472 -0.5769 -0.5633  0.1548
  144OSM    H9F15877   2.284   3.720   7.410  1.2410 -0.7366 -0.6324
  144OSM   C10F15878   2.300   3.647   7.608 -0.6701 -0.8818 -0.1410
  144OSM   H10F15879   2.270   3.742   7.654 -1.5031 -1.4009  0.4160
  144OSM   C11F15880   2.344   3.537   7.706  0.4158  0.3758  0.2043
  144OSM   H11F15881   2.453   3.526   7.725  0.0342  1.3955  3.7134
  144OSM   H11G15882   2.313   3.437   7.670 -2.3039  0.3716  2.2509
  144OSM   C12F15883   2.290   3.576   7.846  0.0242 -0.1037 -0.3173
  144OSM   H12F15884   2.180   3.562   7.835 -0.2827 -0.1313  2.1465
  144OSM   H12G15885   2.310   3.682   7.871 -2.0931 -0.3033  2.9018
  144OSM   C13F15886   2.358   3.489   7.959 -0.1168  0.9691 -0.2632
  144OSM   H13F15887   2.467   3.505   7.944  0.1613 -1.1709 -0.8431
  144OSM   H13G15888   2.335   3.383   7.935  2.5088  0.9042 -3.2031
  144OSM   C14F15889   2.324   3.514   8.109  0.1501 -0.0264  0.0436
  144OSM   H14F15890   2.233   3.457   8.139 -1.2333  1.6921 -0.7162
  144OSM   H14G15891   2.288   3.617   8.129 -1.1621 -0.4501  0.0248
  144OSM   C15F15892   2.436   3.490   8.210 -0.1105 -0.8006  0.4880
  144OSM   H15F15893   2.501   3.579   8.210 -0.7518 -0.3209  0.9719
  144OSM   H15G15894   2.494   3.402   8.176  0.8788  0.4891 -1.2980
  144OSM   C16F15895   2.372   3.470   8.352  0.5924 -0.4903  0.3851
  144OSM   H16F15896   2.287   3.542   8.351  0.3159 -0.8030 -0.9879
  144OSM   H16G15897   2.451   3.497   8.425  0.2013  3.0843 -0.3466
  144OSM   C17F15898   2.316   3.333   8.385 -0.0903 -0.4170 -0.5453
  144OSM   H17F15899   2.243   3.297   8.309 -0.1723  0.1384 -0.7399
  144OSM   H17G15900   2.258   3.336   8.479  1.7242 -3.5820  0.8193
  144OSM   C18F15901   2.421   3.225   8.399 -0.1650 -0.0808  0.1293
  144OSM   H18F15902   2.389   3.146   8.470  0.9000 -0.4012  0.2693
  144OSM   H18G15903   2.523   3.262   8.424  0.4601 -1.4678 -0.2637
  144OSM   H18H15904   2.439   3.181   8.298 -1.6667 -2.6833  0.9038
  145SAPE     N15905   2.374   5.533  10.491  0.0418 -0.2444  0.0475
  145SAPE   HN115906   2.420   5.555  10.581  1.0778 -1.5330 -0.1329
  145SAPE   HN215907   2.450   5.503  10.426 -0.4500  1.2881 -1.2851
  145SAPE   HN315908   2.311   5.608  10.455 -1.1853 -0.9800  0.5737
  145SAPE   C1215909   2.275   5.418  10.518 -0.0112  0.4471  0.2786
  145SAPE  H12A15910   2.210   5.441  10.605 -1.5629 -0.9412 -0.4599
  145SAPE  H12B15911   2.329   5.323  10.541 -0.7784 -1.0548 -3.4123
  145SAPE   C1115912   2.187   5.403  10.393 -0.4320 -0.4642 -0.4222
  145SAPE  H11A15913   2.124   5.314  10.414 -0.5598 -0.4241 -0.6216
  145SAPE  H11B15914   2.252   5.383  10.306 -0.6633 -1.1439 -0.4412
  145SAPE     P15915   1.960   5.534  10.400  0.0553  0.5488 -0.0211
  145SAPE   O1315916   1.923   5.418  10.485  0.5445  0.1230  0.1804
  145SAPE   O1415917   1.910   5.667  10.450  0.5202  0.0780 -0.6885
  145SAPE   O1215918   2.115   5.530  10.381  0.6413  0.0592  0.3130
  145SAPE   O1115919   1.886   5.516  10.268  0.5162  0.0611 -0.0674
  145SAPE    C115920   1.943   5.532  10.138  0.3869 -0.6473 -0.3867
  145SAPE    HA15921   1.964   5.639  10.118  0.3052 -0.5742 -0.0706
  145SAPE    HB15922   2.041   5.480  10.124  0.5147 -0.4455 -0.2359
  145SAPE    C215923   1.847   5.501  10.021 -0.5478 -0.9440  0.4372
  145SAPE    HS15924   1.884   5.537   9.923 -1.4887 -0.8954  0.0844
  145SAPE   O2115925   1.717   5.561  10.048  0.2766  0.6152  0.1443
  145SAPE   C2115926   1.704   5.684   9.999  0.4851  0.3775  0.2117
  145SAPE   O2215927   1.777   5.737   9.918 -0.1831  0.5098  0.8475
  145SAPE   C2215928   1.567   5.743  10.044 -0.5153  0.2629  0.0346
  145SAPE   H2R15929   1.583   5.775  10.150 -0.3340  0.4296 -0.0427
  145SAPE   H2S15930   1.547   5.842   9.997 -0.5736 -0.7230 -2.1236
  145SAPE    C315931   1.822   5.350  10.011  0.4852  0.1427 -0.0147
  145SAPE    HX15932   1.753   5.314  10.090 -2.7080 -2.3505 -3.5600
  145SAPE    HY15933   1.918   5.296  10.022  1.5001  1.9319  0.3514
  145SAPE   O3115934   1.760   5.325   9.881 -0.2551  0.6468 -0.4554
  145SAPE   C3115935   1.634   5.285   9.875  0.0410  0.4567  0.1510
  145SAPE   O3215936   1.565   5.268   9.973 -0.6595 -0.2247  1.0064
  145SAPE   C3215937   1.597   5.235   9.737 -0.1816  0.1498 -0.9854
  145SAPE   H2X15938   1.494   5.195   9.735  0.2183 -1.0334  0.4509
  145SAPE   H2Y15939   1.650   5.139   9.724  0.5015  0.2395  0.7535
  145SAPE   C2315940   1.441   5.653  10.022 -0.0910 -0.3642  0.1004
  145SAPE   H3R15941   1.437   5.574  10.100 -2.0329 -0.3306  0.0805
  145SAPE   H3S15942   1.463   5.600   9.927 -2.8244  0.7850 -1.2920
  145SAPE   C2415943   1.308   5.730  10.008 -0.9285 -0.7072  0.0436
  145SAPE   H4R15944   1.326   5.822   9.949 -1.0934  0.6455  2.0044
  145SAPE   H4S15945   1.287   5.772  10.109 -1.4326 -0.4602 -0.1598
  145SAPE   C2515946   1.192   5.651   9.954  0.7572  0.5052  0.0578
  145SAPE   H5R15947   1.112   5.615  10.020  0.6888 -0.5543 -0.5752
  145SAPE   C2615948   1.177   5.604   9.828 -0.4699  0.3733 -0.0056
  145SAPE   H6R15949   1.100   5.528   9.806 -0.7121  0.7067 -0.3165
  145SAPE   C2715950   1.271   5.625   9.709  0.0688  0.6510  0.0819
  145SAPE   H7R15951   1.279   5.527   9.659  2.0100  0.5537  0.5212
  145SAPE   H7S15952   1.373   5.665   9.727  0.2755  1.1463 -1.8902
  145SAPE   C2815953   1.207   5.714   9.611  0.6630 -0.5831 -0.1100
  145SAPE   H8R15954   1.192   5.811   9.660  1.5198 -1.0176  1.0553
  145SAPE   C2915955   1.159   5.702   9.484  0.0269 -0.1749 -0.1961
  145SAPE   H9R15956   1.115   5.789   9.433 -2.0854 -1.5230 -0.7895
  145SAPE  C21015957   1.149   5.577   9.400 -0.3995  0.0302 -0.6713
  145SAPE  H10R15958   1.075   5.593   9.318  0.0748  0.8142 -0.9485
  145SAPE  H10S15959   1.113   5.492   9.462  0.9153 -1.0564 -1.3254
  145SAPE  C21115960   1.271   5.523   9.335 -0.0343 -0.2915 -0.7278
  145SAPE  H11R15961   1.364   5.571   9.370  0.7656 -0.6969 -2.2180
  145SAPE  C21215962   1.287   5.423   9.249 -0.0075 -0.0899  0.0082
  145SAPE  H12R15963   1.389   5.392   9.222 -0.1959  0.4217 -1.3780
  145SAPE  C21315964   1.180   5.331   9.189  0.2935 -0.2043  0.3075
  145SAPE  H13R15965   1.128   5.292   9.279 -1.2598 -0.6575 -0.7473
  145SAPE  H13S15966   1.223   5.245   9.134 -1.7055 -1.6552  0.9147
  145SAPE  C21415967   1.073   5.401   9.104 -0.7250 -0.0766 -0.6659
  145SAPE  H14R15968   1.045   5.503   9.133 -1.2479 -0.1265 -0.9892
  145SAPE  C21515969   1.009   5.352   8.996 -0.9155 -0.2259  0.2860
  145SAPE  H15R15970   0.936   5.415   8.942 -0.6678 -1.2436 -1.3176
  145SAPE  C21615971   1.037   5.219   8.927  0.3147  0.4943 -0.0703
  145SAPE  H16R15972   0.937   5.171   8.923  0.4188  0.3398 -0.9517
  145SAPE  H16S15973   1.088   5.148   8.996 -0.9736  0.4619  0.8778
  145SAPE  C21715974   1.103   5.225   8.790 -0.1015 -0.0500 -0.1898
  145SAPE  H17R15975   1.114   5.120   8.755 -1.2212 -1.1814  2.5649
  145SAPE  H17S15976   1.206   5.265   8.807 -0.7215  1.5474  0.0269
  145SAPE  C21815977   1.034   5.319   8.684  0.0576  0.0649  0.2584
  145SAPE  H18R15978   1.031   5.430   8.694 -1.8933  0.0270  0.5973
  145SAPE  H18S15979   0.929   5.281   8.681 -0.2715  0.9343  0.4817
  145SAPE  C21915980   1.071   5.292   8.535  0.4890 -0.6155  0.2073
  145SAPE  H19R15981   1.168   5.341   8.513 -0.9777  1.2832 -2.6649
  145SAPE  H19S15982   1.012   5.354   8.465  1.2671 -1.0817 -0.8857
  145SAPE  C22015983   1.069   5.153   8.482 -0.1820  1.0178  0.1802
  145SAPE  H20R15984   0.965   5.113   8.486 -0.2641  1.3242  2.4714
  145SAPE  H20S15985   1.133   5.086   8.544 -0.3073  0.9578  0.2456
  145SAPE  H20T15986   1.104   5.147   8.377  0.7392  1.1376  0.4695
  145SAPE   C3315987   1.634   5.332   9.624  0.6102 -0.5547 -0.7714
  145SAPE   H3X15988   1.744   5.340   9.624  0.9705 -3.4509  2.0901
  145SAPE   H3Y15989   1.595   5.435   9.636 -1.4966 -1.1954 -1.5859
  145SAPE   C3415990   1.583   5.284   9.485  0.2111  0.5327 -0.1011
  145SAPE   H4X15991   1.608   5.364   9.411 -1.2706 -0.6399 -1.9719
  145SAPE   H4Y15992   1.474   5.265   9.477  0.2709  0.8418 -2.6300
  145SAPE   C3515993   1.649   5.152   9.442  0.1627  0.5429  0.4178
  145SAPE   H5X15994   1.590   5.073   9.494  1.1237  0.4314  1.3854
  145SAPE   H5Y15995   1.757   5.150   9.471  0.6460 -0.1108 -1.2711
  145SAPE   C3615996   1.670   5.124   9.294  0.0445  0.3996  0.3917
  145SAPE   H6X15997   1.749   5.047   9.281 -0.2095 -0.3222  2.6638
  145SAPE   H6Y15998   1.708   5.212   9.238 -1.3247 -0.3733 -1.8885
  145SAPE   C3715999   1.541   5.062   9.221 -0.1593 -0.6242 -1.0514
  145SAPE   H7X16000   1.465   5.137   9.251  0.1752 -0.4535 -0.6263
  145SAPE   H7Y16001   1.511   4.973   9.280  0.3428  0.1241  0.3837
  145SAPE   C3816002   1.558   5.032   9.075  1.2552  0.2723  0.0356
  145SAPE   H8X16003   1.655   4.979   9.065  1.3519  0.2720  0.9513
  145SAPE   H8Y16004   1.565   5.130   9.022 -2.4314  0.7430  0.1706
  145SAPE   C3916005   1.440   4.961   9.016  0.1370  0.0602  0.4539
  145SAPE   H9X16006   1.349   5.007   9.060 -0.9553 -0.8191 -0.8066
  145SAPE   H9Y16007   1.439   4.854   9.049 -1.1744 -0.1037 -0.0726
  145SAPE  C31016008   1.424   4.974   8.866  0.0948 -0.1937  0.5674
  145SAPE  H10X16009   1.520   4.965   8.812  0.0422 -0.6124  0.5434
  145SAPE  H10Y16010   1.387   5.075   8.836 -0.7743 -0.7022 -0.1537
  145SAPE  C31116011   1.317   4.875   8.815 -0.1160  0.4877  0.1578
  145SAPE  H11X16012   1.219   4.904   8.860 -1.0856 -0.8646 -0.9876
  145SAPE  H11Y16013   1.343   4.776   8.859  0.8678  0.8794  0.4918
  145SAPE  C31216014   1.306   4.868   8.660 -0.3444 -0.1134 -0.0684
  145SAPE  H12X16015   1.253   4.961   8.631  1.4409  1.0483  0.2547
  145SAPE  H12Y16016   1.243   4.783   8.626  0.3329 -0.5707 -0.2082
  145SAPE  C31316017   1.442   4.848   8.594 -0.0738 -0.0693 -0.3944
  145SAPE  H13X16018   1.494   4.762   8.643 -0.2851 -1.8324 -3.0823
  145SAPE  H13Y16019   1.501   4.942   8.595 -2.8708  1.8159  0.0520
  145SAPE  C31416020   1.424   4.807   8.446  0.2507  0.0328  0.0466
  145SAPE  H14X16021   1.392   4.893   8.384  3.3956  0.6592 -0.8931
  145SAPE  H14Y16022   1.346   4.729   8.438 -0.4246  0.4029  2.3448
  145SAPE  C31516023   1.563   4.763   8.394  0.3536 -0.2185  0.3561
  145SAPE  H15X16024   1.604   4.679   8.454 -0.6124 -2.3634 -1.8197
  145SAPE  H15Y16025   1.629   4.852   8.402  0.0090 -0.0134  0.9360
  145SAPE  C31616026   1.567   4.735   8.249 -0.4137  0.3292 -0.1561
  145SAPE  H16X16027   1.528   4.820   8.187 -1.2411 -1.1762 -1.7931
  145SAPE  H16Y16028   1.502   4.646   8.234 -0.3827  0.2306  0.3003
  145SAPE  C31716029   1.699   4.685   8.191 -0.1294 -0.1958 -0.5843
  145SAPE  H17X16030   1.684   4.634   8.093  0.0107  2.6710 -2.2339
  145SAPE  H17Y16031   1.756   4.613   8.254 -2.1153  0.1370  1.7277
  145SAPE  C31816032   1.790   4.802   8.152  0.5398  0.0793 -0.1243
  145SAPE  H18X16033   1.823   4.787   8.047 -1.7849 -0.1629 -0.8993
  145SAPE  H18Y16034   1.882   4.814   8.212 -1.0939  2.4539  2.1329
  145SAPE  H18Z16035   1.729   4.895   8.150  0.6506  0.1573  0.1310
  146SAPE     N16036   6.590   2.469  10.685 -0.4445  0.6410  0.4396
  146SAPE   HN116037   6.642   2.554  10.713 -1.7365  1.2607  1.0540
  146SAPE   HN216038   6.659   2.412  10.633 -2.0449  0.7153 -1.9346
  146SAPE   HN316039   6.515   2.488  10.616 -1.3092  1.2591  1.5145
  146SAPE   C1216040   6.552   2.382  10.797 -0.6653 -0.2144 -0.0426
  146SAPE  H12A16041   6.503   2.452  10.868  0.7819  1.2351 -0.4024
  146SAPE  H12B16042   6.638   2.342  10.855 -0.8960  0.1298  0.5463
  146SAPE   C1116043   6.458   2.268  10.767  0.3586 -0.0885 -0.0536
  146SAPE  H11A16044   6.438   2.218  10.864  1.8373 -0.8940 -0.1336
  146SAPE  H11B16045   6.505   2.189  10.705  0.7013 -1.1304  1.4946
  146SAPE     P16046   6.295   2.310  10.567 -0.3145  0.5155 -0.3314
  146SAPE   O1316047   6.149   2.315  10.562 -0.6468  0.3955  0.2508
  146SAPE   O1416048   6.369   2.420  10.494  0.3018  0.1362 -0.3708
  146SAPE   O1216049   6.336   2.319  10.721  0.0135 -0.0255 -0.0575
  146SAPE   O1116050   6.354   2.165  10.526 -0.0466 -0.0515  0.3695
  146SAPE    C116051   6.383   2.143  10.389  0.6916 -0.0105  0.0660
  146SAPE    HA16052   6.296   2.089  10.347 -0.6665  1.0906  1.3503
  146SAPE    HB16053   6.383   2.238  10.332  0.6813  0.6092  1.0779
  146SAPE    C216054   6.525   2.085  10.367 -0.0861 -0.2621 -0.4030
  146SAPE    HS16055   6.601   2.147  10.419  1.5673 -3.4759  1.2945
  146SAPE   O2116056   6.536   2.073  10.224 -0.3932 -0.1626  0.0226
  146SAPE   C2116057   6.613   2.167  10.174 -0.0635  0.5730 -0.3661
  146SAPE   O2216058   6.684   2.245  10.232 -0.0204  0.5082 -0.2523
  146SAPE   C2216059   6.598   2.156  10.021 -0.5851  0.5297  0.6031
  146SAPE   H2R16060   6.555   2.056  10.001 -1.9936  1.2032  0.0804
  146SAPE   H2S16061   6.507   2.216   9.997 -1.3181 -0.3596  1.1099
  146SAPE    C316062   6.524   1.946  10.438  0.7521  0.0925 -0.1388
  146SAPE    HX16063   6.423   1.901  10.427  1.8878 -2.5807 -0.3953
  146SAPE    HY16064   6.540   1.966  10.546 -0.2648  0.5193 -0.0608
  146SAPE   O3116065   6.620   1.853  10.383  0.8441 -0.1696  0.1749
  146SAPE   C3116066   6.748   1.900  10.394 -0.2081 -0.7653 -0.1621
  146SAPE   O3216067   6.787   1.980  10.473  0.4926  0.1634  0.1344
  146SAPE   C3216068   6.839   1.814  10.302  0.2030 -0.3833 -0.0105
  146SAPE   H2X16069   6.802   1.710  10.286 -0.5635 -0.2997  1.0524
  146SAPE   H2Y16070   6.943   1.802  10.338  0.6323 -0.1351 -1.1386
  146SAPE   C2316071   6.722   2.201   9.938 -0.4130 -0.0564  0.0649
  146SAPE   H3R16072   6.805   2.128   9.938 -1.6010 -1.4871  1.5326
  146SAPE   H3S16073   6.775   2.292   9.974 -1.2813  0.1874  0.7735
  146SAPE   C2416074   6.684   2.239   9.792  0.1606 -0.2743 -0.7359
  146SAPE   H4R16075   6.780   2.265   9.742  0.7995  0.4838  0.8142
  146SAPE   H4S16076   6.624   2.332   9.782 -2.8575 -2.0862 -0.8413
  146SAPE   C2516077   6.618   2.122   9.720  0.1889  0.3137 -0.6655
  146SAPE   H5R16078   6.635   2.019   9.754 -0.3246  1.0694  2.1641
  146SAPE   C2616079   6.534   2.129   9.615 -0.1298  0.4852  0.3422
  146SAPE   H6R16080   6.492   2.034   9.581  0.7790 -0.4435  1.6843
  146SAPE   C2716081   6.479   2.255   9.553 -0.3334  0.6180  0.2699
  146SAPE   H7R16082   6.541   2.343   9.581  0.3807  1.1879 -2.7294
  146SAPE   H7S16083   6.374   2.265   9.589 -0.6747  0.2397 -0.5844
  146SAPE   C2816084   6.482   2.238   9.403  0.6207  0.2593 -0.1233
  146SAPE   H8R16085   6.575   2.212   9.350  1.3293  0.4940  0.9823
  146SAPE   C2916086   6.367   2.244   9.332 -1.0521  0.4900  0.5298
  146SAPE   H9R16087   6.381   2.231   9.224 -0.1484 -3.4263  0.9566
  146SAPE  C21016088   6.230   2.263   9.383  0.3252  0.0965  0.7702
  146SAPE  H10R16089   6.214   2.319   9.478 -1.1212 -0.5452  0.9397
  146SAPE  H10S16090   6.191   2.164   9.414  0.2902  0.0955  0.7236
  146SAPE  C21116091   6.133   2.332   9.285  0.0331 -0.5744 -0.0661
  146SAPE  H11R16092   6.105   2.434   9.317  0.0261 -0.3710 -0.7109
  146SAPE  C21216093   6.088   2.295   9.167  0.0637  0.8182 -0.3227
  146SAPE  H12R16094   6.009   2.357   9.123 -0.8146  1.4829  2.0416
  146SAPE  C21316095   6.107   2.162   9.095  0.2138  0.1486 -0.4855
  146SAPE  H13R16096   6.173   2.091   9.149 -0.3229  1.4574  2.0351
  146SAPE  H13S16097   6.157   2.177   8.997 -1.6012  6.7702 -0.8787
  146SAPE  C21416098   5.970   2.092   9.066 -0.8739  0.2300 -0.1591
  146SAPE  H14R16099   5.887   2.130   9.128 -0.3604  1.1054  0.0073
  146SAPE  C21516100   5.939   1.992   8.987 -0.2141  0.9383 -0.7645
  146SAPE  H15R16101   5.836   1.953   8.985  0.1467 -0.0555 -0.7996
  146SAPE  C21616102   6.032   1.907   8.903  0.3291  0.0084  0.4717
  146SAPE  H16R16103   6.011   1.800   8.925 -1.2318 -0.1159 -1.3582
  146SAPE  H16S16104   6.137   1.940   8.922  0.3699  2.5072 -3.1305
  146SAPE  C21716105   6.008   1.922   8.754 -0.2745 -0.2107  0.2878
  146SAPE  H17R16106   6.021   2.029   8.727 -2.2144 -0.4922 -2.1050
  146SAPE  H17S16107   5.903   1.894   8.729  0.3696 -1.6598 -0.9605
  146SAPE  C21816108   6.097   1.833   8.669  0.4709 -0.1441  0.5442
  146SAPE  H18R16109   6.203   1.857   8.690  1.5565 -1.9040 -2.3615
  146SAPE  H18S16110   6.093   1.859   8.561 -0.0392 -0.4792  0.4787
  146SAPE  C21916111   6.069   1.680   8.676  0.1173 -0.2499 -0.4814
  146SAPE  H19R16112   5.978   1.668   8.613 -1.4194 -0.0788  1.5852
  146SAPE  H19S16113   6.048   1.659   8.783 -1.9275  2.3572 -0.2736
  146SAPE  C22016114   6.187   1.599   8.625 -0.1437  0.2237 -0.2640
  146SAPE  H20R16115   6.207   1.611   8.517  1.8790 -0.0243  0.0473
  146SAPE  H20S16116   6.168   1.489   8.621 -1.0270  0.3948 -1.2855
  146SAPE  H20T16117   6.289   1.610   8.666  0.3130 -2.9403 -0.2508
  146SAPE   C3316118   6.856   1.889  10.168 -0.2936  0.6556  0.0333
  146SAPE   H3X16119   6.830   1.997  10.170  1.9795  1.2979 -1.3246
  146SAPE   H3Y16120   6.781   1.852  10.095 -2.0523  1.8967  1.1387
  146SAPE   C3416121   6.995   1.861  10.105  0.0787 -0.0423 -0.0258
  146SAPE   H4X16122   6.995   1.752  10.084  0.3998 -0.0523  0.0189
  146SAPE   H4Y16123   7.081   1.884  10.172 -0.0035 -0.1580  0.1159
  146SAPE   C3516124   7.005   1.934   9.972  0.2620 -0.2588  0.2206
  146SAPE   H5X16125   7.000   2.044   9.987  1.3010  0.1444 -1.8948
  146SAPE   H5Y16126   6.914   1.899   9.918 -0.0154  0.3084  0.3170
  146SAPE   C3616127   7.128   1.899   9.891  0.1032  0.0058  0.3554
  146SAPE   H6X16128   7.112   1.797   9.850 -1.6561  1.1268 -2.0064
  146SAPE   H6Y16129   7.223   1.896   9.949  0.9780 -0.4094 -1.0496
  146SAPE   C3716130   7.137   1.996   9.762 -0.1100 -0.0436  0.3585
  146SAPE   H7X16131   7.220   1.962   9.697  1.8715 -0.3777  2.8861
  146SAPE   H7Y16132   7.160   2.097   9.803 -2.0172 -0.0341  1.5793
  146SAPE   C3816133   7.011   2.011   9.678 -0.7840  0.5634  0.6062
  146SAPE   H8X16134   7.021   2.078   9.590 -0.4814 -2.8140 -2.1416
  146SAPE   H8Y16135   6.930   2.063   9.734  0.3105  2.6011  0.3928
  146SAPE   C3916136   6.969   1.870   9.623 -0.0309 -0.3959 -0.3938
  146SAPE   H9X16137   6.872   1.873   9.569 -0.7806 -0.9627  0.8598
  146SAPE   H9Y16138   6.944   1.806   9.711  0.7134  0.2462  0.3070
  146SAPE  C31016139   7.074   1.811   9.536 -0.3781  0.6972 -0.5253
  146SAPE  H10X16140   7.026   1.712   9.519 -1.0747  0.6352  1.4706
  146SAPE  H10Y16141   7.175   1.792   9.579 -0.9415 -1.9693 -0.1834
  146SAPE  C31116142   7.087   1.889   9.406 -0.4536 -0.4631 -0.1028
  146SAPE  H11X16143   7.119   1.991   9.435  0.5029 -0.9191  0.4707
  146SAPE  H11Y16144   6.986   1.908   9.362  0.2026 -0.6019 -1.7278
  146SAPE  C31216145   7.179   1.829   9.301  0.2133  0.2012  0.2662
  146SAPE  H12X16146   7.151   1.723   9.285  1.1932  0.2455 -2.2093
  146SAPE  H12Y16147   7.284   1.832   9.335 -0.2585 -2.0802  2.1545
  146SAPE  C31316148   7.145   1.900   9.165  0.1772 -0.5904 -0.5018
  146SAPE  H13X16149   7.175   2.007   9.175  0.7585 -0.5706 -2.1654
  146SAPE  H13Y16150   7.037   1.892   9.143  0.2442 -2.1248 -0.4033
  146SAPE  C31416151   7.229   1.842   9.045  0.0003  0.1627 -0.4257
  146SAPE  H14X16152   7.180   1.745   9.019 -0.0406 -0.4220  1.6527
  146SAPE  H14Y16153   7.328   1.821   9.092 -0.6843 -0.8369  0.6471
  146SAPE  C31516154   7.231   1.934   8.925  0.4133  0.2223  0.2652
  146SAPE  H15X16155   7.275   2.029   8.963  2.4942  0.2328 -1.9413
  146SAPE  H15Y16156   7.125   1.936   8.890 -0.2613 -0.9404  2.1140
  146SAPE  C31616157   7.316   1.883   8.806 -0.4602 -0.2480 -0.1655
  146SAPE  H16X16158   7.293   1.779   8.775  1.1176 -0.0517 -2.2281
  146SAPE  H16Y16159   7.423   1.888   8.838  0.5601 -1.3761 -3.0587
  146SAPE  C31716160   7.299   1.975   8.687  0.0048 -0.1143  0.5245
  146SAPE  H17X16161   7.337   2.079   8.701  0.0421 -0.0912  0.2570
  146SAPE  H17Y16162   7.190   1.981   8.670  0.0122 -2.4233 -0.6809
  146SAPE  C31816163   7.354   1.929   8.555  0.6042 -0.1464  0.3588
  146SAPE  H18X16164   7.313   1.980   8.466  1.7962  1.0466  0.4709
  146SAPE  H18Y16165   7.333   1.819   8.557  0.0246 -0.0378  0.3649
  146SAPE  H18Z16166   7.462   1.953   8.544  0.3858  0.5257 -0.4248
  147SAPE     N16167   0.433   2.724  11.183 -0.2350  0.4077  0.8556
  147SAPE   HN116168   0.344   2.670  11.184  0.9271 -1.8396 -1.9779
  147SAPE   HN216169   0.463   2.750  11.280  1.2498  0.2347  0.4725
  147SAPE   HN316170   0.427   2.814  11.132  0.6971 -0.0115 -0.0314
  147SAPE   C1216171   0.534   2.636  11.118 -0.1321  0.2884 -0.5951
  147SAPE  H12A16172   0.501   2.604  11.017 -0.2637  1.1533 -0.8422
  147SAPE  H12B16173   0.535   2.543  11.177  0.8347  0.7675  0.1589
  147SAPE   C1116174   0.669   2.701  11.125 -0.4218  0.3144 -0.2771
  147SAPE  H11A16175   0.746   2.632  11.084 -1.1421 -0.1169 -0.9351
  147SAPE  H11B16176   0.686   2.708  11.235 -3.6766 -0.1714  0.3703
  147SAPE     P16177   0.690   2.857  10.913  0.3160  0.0831  0.0304
  147SAPE   O1316178   0.564   2.829  10.839 -0.7199  0.3328  1.3656
  147SAPE   O1416179   0.758   2.987  10.901  0.2080 -0.2091  0.2050
  147SAPE   O1216180   0.675   2.827  11.060  0.2400  0.1195  0.7551
  147SAPE   O1116181   0.794   2.745  10.868  0.1916  0.3231  0.8924
  147SAPE    C116182   0.927   2.742  10.916  0.3294 -0.3533 -0.6449
  147SAPE    HA16183   0.939   2.820  10.994 -1.1169 -0.1632 -0.5899
  147SAPE    HB16184   0.950   2.641  10.955 -0.5118 -0.3282 -0.0703
  147SAPE    C216185   1.024   2.790  10.801  0.3899 -0.4099  0.2719
  147SAPE    HS16186   0.993   2.895  10.781 -0.7345 -0.2641  2.4169
  147SAPE   O2116187   1.008   2.700  10.690  0.2766  0.1957  0.4141
  147SAPE   C2116188   1.002   2.748  10.570 -0.3699  0.2963  0.2013
  147SAPE   O2216189   0.973   2.864  10.541 -0.4414  0.8375 -0.2981
  147SAPE   C2216190   1.020   2.631  10.475 -0.6654 -1.1486 -0.3753
  147SAPE   H2R16191   1.116   2.580  10.498  0.5804  1.7773  1.5235
  147SAPE   H2S16192   0.935   2.563  10.498 -0.2428 -1.6933 -0.4039
  147SAPE    C316193   1.174   2.791  10.838  0.1899 -0.0358 -1.0178
  147SAPE    HX16194   1.210   2.691  10.868  0.2389 -0.1266 -1.3866
  147SAPE    HY16195   1.176   2.845  10.936 -1.2317 -0.0962 -0.9293
  147SAPE   O3116196   1.260   2.862  10.745 -0.2953  0.2861 -0.2425
  147SAPE   C3116197   1.334   2.785  10.664  0.1898  0.4028 -0.0978
  147SAPE   O3216198   1.324   2.663  10.663 -0.3864 -0.0733 -0.3416
  147SAPE   C3216199   1.423   2.874  10.578  0.3229 -0.0108 -0.6322
  147SAPE   H2X16200   1.528   2.839  10.585  0.2833  0.1844  1.5785
  147SAPE   H2Y16201   1.430   2.959  10.649 -0.0418 -1.9688  1.9383
  147SAPE   C2316202   1.012   2.687  10.333  0.5181  0.8772 -0.2153
  147SAPE   H3R16203   1.082   2.772  10.316  1.6236  0.2861  1.0868
  147SAPE   H3S16204   0.918   2.740  10.310  0.0089  0.5665  1.0594
  147SAPE   C2416205   1.032   2.583  10.217  1.3971 -0.2950  1.0496
  147SAPE   H4R16206   1.008   2.626  10.117 -1.5554 -2.5742  0.6255
  147SAPE   H4S16207   0.941   2.519  10.224  0.5726  0.6609 -0.4540
  147SAPE   C2516208   1.151   2.492  10.211  0.2284  0.5722  0.1117
  147SAPE   H5R16209   1.171   2.445  10.308 -4.1126 -1.7015  0.1285
  147SAPE   C2616210   1.203   2.450  10.099  0.1422 -0.4474 -0.8656
  147SAPE   H6R16211   1.289   2.382  10.102 -0.8098 -1.6552  0.3441
  147SAPE   C2716212   1.176   2.490   9.961  0.3539  1.0145  0.3431
  147SAPE   H7R16213   1.267   2.469   9.901 -0.8544 -1.7717 -0.7194
  147SAPE   H7S16214   1.175   2.601   9.965 -0.2716  0.9785  1.5831
  147SAPE   C2816215   1.048   2.432   9.894 -0.0282  0.0321 -0.5975
  147SAPE   H8R16216   0.956   2.436   9.953  0.6956 -0.7497  0.6239
  147SAPE   C2916217   1.042   2.369   9.779  0.1160  0.9741  0.0222
  147SAPE   H9R16218   0.944   2.330   9.748  0.0545 -0.0537  1.4309
  147SAPE  C21016219   1.151   2.348   9.675 -1.0750  0.3672 -0.5105
  147SAPE  H10R16220   1.239   2.403   9.713 -0.8460 -2.1253  3.0455
  147SAPE  H10S16221   1.123   2.398   9.580  1.3734  2.5860 -0.1791
  147SAPE  C21116222   1.195   2.206   9.650  0.5353 -0.0020 -0.5612
  147SAPE  H11R16223   1.200   2.153   9.746 -4.4997  0.1069  0.0366
  147SAPE  C21216224   1.232   2.149   9.533  0.0882  0.9329  0.8232
  147SAPE  H12R16225   1.265   2.045   9.540  0.4546  1.1057  2.0380
  147SAPE  C21316226   1.235   2.208   9.394 -0.4975 -0.2537 -0.8982
  147SAPE  H13R16227   1.336   2.250   9.375  0.2916 -2.0578 -0.9656
  147SAPE  H13S16228   1.155   2.285   9.387 -2.1087 -1.9162 -1.5491
  147SAPE  C21416229   1.212   2.097   9.297  0.1277 -0.0319 -0.2174
  147SAPE  H14R16230   1.114   2.049   9.307 -0.4517  0.9722 -0.8907
  147SAPE  C21516231   1.292   2.045   9.204  0.1480  0.0412  0.3816
  147SAPE  H15R16232   1.269   1.947   9.158  1.0993  0.2487 -0.5738
  147SAPE  C21616233   1.431   2.089   9.176 -0.8227  0.2823 -0.3156
  147SAPE  H16R16234   1.494   1.998   9.183  0.4441  1.0827 -0.9391
  147SAPE  H16S16235   1.468   2.158   9.255  1.7803  1.1060 -2.1341
  147SAPE  C21716236   1.435   2.155   9.035 -0.8169 -0.2930  0.0059
  147SAPE  H17R16237   1.535   2.200   9.016 -1.3732  0.4071 -1.4437
  147SAPE  H17S16238   1.362   2.239   9.036  1.0702  1.4550  0.2104
  147SAPE  C21816239   1.414   2.052   8.924 -0.2896  0.3972  0.7664
  147SAPE  H18R16240   1.326   1.986   8.942  0.2850 -0.2310  1.2755
  147SAPE  H18S16241   1.508   1.994   8.934  0.2417  1.1940  0.4965
  147SAPE  C21916242   1.417   2.126   8.787 -0.0647 -0.4585  0.1752
  147SAPE  H19R16243   1.487   2.211   8.800 -1.6857  0.5315  3.7024
  147SAPE  H19S16244   1.315   2.163   8.762 -0.5804 -2.3277 -0.6516
  147SAPE  C22016245   1.461   2.040   8.666 -0.0557 -0.0560 -0.4588
  147SAPE  H20R16246   1.424   1.937   8.686  0.1699 -0.2493 -1.0073
  147SAPE  H20S16247   1.572   2.037   8.662 -0.0737  0.2762 -1.5283
  147SAPE  H20T16248   1.410   2.078   8.575 -1.3785 -1.2018 -0.2436
  147SAPE   C3316249   1.363   2.892  10.439 -0.6896  0.4528  0.9809
  147SAPE   H3X16250   1.433   2.971  10.404  0.4184 -0.6129  0.7408
  147SAPE   H3Y16251   1.258   2.929  10.430 -0.8137  0.0170  0.6161
  147SAPE   C3416252   1.381   2.764  10.344  0.4413 -0.3261 -0.5052
  147SAPE   H4X16253   1.334   2.786  10.246 -0.8513  1.6300  0.4798
  147SAPE   H4Y16254   1.325   2.689  10.403 -0.1011  2.2486  2.5111
  147SAPE   C3516255   1.526   2.726  10.321 -0.6068 -0.1832 -0.2579
  147SAPE   H5X16256   1.565   2.685  10.417  0.1549 -0.5236 -0.7024
  147SAPE   H5Y16257   1.583   2.819  10.297 -1.1802  0.3096  0.2454
  147SAPE   C3616258   1.542   2.614  10.222  0.2160  0.0762  0.2706
  147SAPE   H6X16259   1.459   2.541  10.236  2.0323 -1.9518  0.9715
  147SAPE   H6Y16260   1.637   2.561  10.245 -0.0455 -1.2135 -1.4499
  147SAPE   C3716261   1.564   2.655  10.074  0.4496 -0.0244 -0.5073
  147SAPE   H7X16262   1.653   2.721  10.071  0.0082  0.5955 -0.1781
  147SAPE   H7Y16263   1.473   2.702  10.032 -1.1794 -3.6923 -1.4399
  147SAPE   C3816264   1.602   2.544   9.985 -0.0035 -0.0590  0.5224
  147SAPE   H8X16265   1.532   2.461  10.010  1.3959 -0.9641  1.6209
  147SAPE   H8Y16266   1.702   2.501  10.008 -0.4197 -1.0411  0.5730
  147SAPE   C3916267   1.580   2.584   9.844  0.2379  0.6416  0.2637
  147SAPE   H9X16268   1.616   2.689   9.833 -1.7026  1.5201  1.5104
  147SAPE   H9Y16269   1.469   2.593   9.838 -0.1296 -0.7434  3.2231
  147SAPE  C31016270   1.633   2.496   9.734 -0.4762 -0.0648 -0.3666
  147SAPE  H10X16271   1.594   2.392   9.738  1.1688 -0.6576  0.8866
  147SAPE  H10Y16272   1.744   2.494   9.730 -0.2738 -1.1839  3.0585
  147SAPE  C31116273   1.587   2.563   9.605  0.5274  0.2932 -0.3190
  147SAPE  H11X16274   1.595   2.673   9.614  0.0630  0.3119 -0.0275
  147SAPE  H11Y16275   1.477   2.548   9.597  0.2790  1.7390  0.1036
  147SAPE  C31216276   1.662   2.507   9.488 -1.0339 -0.3425 -0.6651
  147SAPE  H12X16277   1.656   2.396   9.489  0.2456 -0.4349 -1.3237
  147SAPE  H12Y16278   1.771   2.526   9.496 -0.8144 -1.4862 -0.7911
  147SAPE  C31316279   1.608   2.565   9.353  0.2323 -0.5342 -0.1949
  147SAPE  H13X16280   1.615   2.676   9.352  1.9178 -0.6251 -1.0327
  147SAPE  H13Y16281   1.499   2.541   9.347  0.1128  0.1947 -1.1869
  147SAPE  C31416282   1.674   2.505   9.236 -0.4142  0.2490  0.9312
  147SAPE  H14X16283   1.651   2.399   9.216 -1.6789  1.1057 -3.0960
  147SAPE  H14Y16284   1.784   2.516   9.242 -0.1214  0.9229 -3.0477
  147SAPE  C31516285   1.635   2.585   9.111 -0.7906 -0.8247 -0.0920
  147SAPE  H15X16286   1.649   2.694   9.133 -0.6398 -1.1227  1.4533
  147SAPE  H15Y16287   1.525   2.574   9.106 -0.7683 -1.6433  0.7789
  147SAPE  C31616288   1.692   2.536   8.980 -0.3954  0.1983  0.7912
  147SAPE  H16X16289   1.656   2.432   8.966  3.1479 -1.3702  2.0051
  147SAPE  H16Y16290   1.801   2.517   8.987 -0.1794 -1.2731 -3.7036
  147SAPE  C31716291   1.674   2.625   8.856  0.6215 -0.1142 -0.4746
  147SAPE  H17X16292   1.719   2.580   8.765  2.5997 -1.4352  1.0546
  147SAPE  H17Y16293   1.733   2.719   8.868 -0.6015  0.4362  1.6884
  147SAPE  C31816294   1.523   2.649   8.822 -0.1099  0.4088 -0.1114
  147SAPE  H18X16295   1.487   2.551   8.783  0.3057  0.7811 -1.4861
  147SAPE  H18Y16296   1.510   2.725   8.742  1.2282  0.0395 -0.7133
  147SAPE  H18Z16297   1.462   2.679   8.910 -1.1520 -0.0376 -0.6553
  148SAPE     N16298   3.224   4.907  10.622  0.1671  0.3307  0.1891
  148SAPE   HN116299   3.283   4.904  10.536  0.8245  1.5192  0.5753
  148SAPE   HN216300   3.156   4.983  10.606  1.6457  1.2023 -2.5336
  148SAPE   HN316301   3.289   4.946  10.694 -0.0434  1.7200 -0.3465
  148SAPE   C1216302   3.163   4.769  10.627 -0.2755  0.6927 -0.5040
  148SAPE  H12A16303   3.097   4.760  10.716  0.0142  0.2295 -0.3303
  148SAPE  H12B16304   3.242   4.690  10.633 -1.6741 -0.6368  2.4963
  148SAPE   C1116305   3.072   4.731  10.515  0.7125  0.0330 -0.2743
  148SAPE  H11A16306   3.037   4.629  10.541 -2.1550  1.0755  0.2975
  148SAPE  H11B16307   3.113   4.729  10.411 -2.6849  0.1439 -1.7795
  148SAPE     P16308   2.927   4.943  10.462  0.1325 -0.0801  0.6927
  148SAPE   O1316309   2.783   4.971  10.435  0.5141 -0.0760  0.3784
  148SAPE   O1416310   2.998   5.047  10.541  0.1097  0.4515  0.1788
  148SAPE   O1216311   2.946   4.799  10.525  0.4126  0.1017  0.6198
  148SAPE   O1116312   3.006   4.935  10.325  0.0301 -0.0508  0.7990
  148SAPE    C116313   2.935   4.872  10.210 -0.4219 -0.4819  0.2797
  148SAPE    HA16314   3.003   4.790  10.178  1.2136  0.9450 -0.0606
  148SAPE    HB16315   2.839   4.821  10.235  0.1994 -2.0968 -0.4628
  148SAPE    C216316   2.906   4.967  10.086 -1.3428 -1.3764 -0.0925
  148SAPE    HS16317   3.003   4.986  10.035  0.3708  0.6709  3.5026
  148SAPE   O2116318   2.851   5.094  10.134 -0.2528 -0.6944 -0.3956
  148SAPE   C2116319   2.940   5.196  10.136  0.7482  0.0790 -0.7966
  148SAPE   O2216320   3.034   5.209  10.062 -0.2944 -0.4685 -0.2551
  148SAPE   C2216321   2.892   5.288  10.250 -0.2916 -0.6984 -0.0049
  148SAPE   H2R16322   2.781   5.276  10.247 -0.1718 -3.6019  2.2599
  148SAPE   H2S16323   2.912   5.262  10.357  0.0440  0.0976  0.1321
  148SAPE    C316324   2.812   4.899   9.992  0.2079  0.4727 -0.4937
  148SAPE    HX16325   2.708   4.893  10.031 -0.1288 -0.7094 -1.4945
  148SAPE    HY16326   2.856   4.798   9.977 -2.0795 -0.8181  0.9032
  148SAPE   O3116327   2.805   4.967   9.860  0.3617 -0.1955  0.1022
  148SAPE   C3116328   2.902   4.942   9.770  0.3071 -0.1803  0.1986
  148SAPE   O3216329   3.000   4.884   9.793 -0.3108  0.1728 -0.4950
  148SAPE   C3216330   2.871   5.019   9.645  0.3597 -0.5947  0.4174
  148SAPE   H2X16331   2.932   5.112   9.654  1.7021 -1.4913  0.9781
  148SAPE   H2Y16332   2.765   5.050   9.647  0.6106  0.2311  1.2251
  148SAPE   C2316333   2.942   5.436  10.228  0.5443  0.5688 -0.2553
  148SAPE   H3R16334   3.052   5.426  10.238  0.4129 -1.3227 -0.2381
  148SAPE   H3S16335   2.914   5.492  10.319  0.5294  1.5012 -0.8245
  148SAPE   C2416336   2.890   5.498  10.102  0.0512 -0.1202 -0.9019
  148SAPE   H4R16337   2.956   5.464  10.020  0.8678 -0.4494 -0.1324
  148SAPE   H4S16338   2.909   5.607  10.105  0.0112 -0.1126 -0.9228
  148SAPE   C2516339   2.745   5.461  10.071  0.5152  0.2652 -0.2840
  148SAPE   H5R16340   2.681   5.487  10.156  1.1480  0.7687  0.0508
  148SAPE   C2616341   2.692   5.409   9.956  0.0469 -0.1004 -0.3704
  148SAPE   H6R16342   2.583   5.402   9.948  0.1384 -1.2319 -0.8821
  148SAPE   C2716343   2.760   5.373   9.827  0.0186  0.6023 -0.5889
  148SAPE   H7R16344   2.695   5.299   9.776 -0.0403 -0.2967  0.7623
  148SAPE   H7S16345   2.853   5.313   9.836 -0.6595 -0.5584 -1.1937
  148SAPE   C2816346   2.787   5.493   9.733  0.3286  0.1096 -0.7122
  148SAPE   H8R16347   2.800   5.590   9.784 -1.3287 -0.0912  0.1739
  148SAPE   C2916348   2.795   5.491   9.599 -0.3644  0.1155 -0.5413
  148SAPE   H9R16349   2.806   5.590   9.553 -0.8410  1.0436  1.2320
  148SAPE  C21016350   2.776   5.373   9.515  1.0136  0.1209  0.9385
  148SAPE  H10R16351   2.760   5.285   9.581 -1.5596 -0.2245 -0.0153
  148SAPE  H10S16352   2.872   5.351   9.464  0.8520  1.8837 -0.1982
  148SAPE  C21116353   2.654   5.392   9.429  0.2157  0.5999  0.6238
  148SAPE  H11R16354   2.558   5.402   9.482 -1.8410 -0.4294 -2.5861
  148SAPE  C21216355   2.644   5.406   9.296 -0.0168 -0.1269 -0.0000
  148SAPE  H12R16356   2.546   5.412   9.248 -0.6154 -0.0234  1.1873
  148SAPE  C21316357   2.770   5.403   9.213  0.7625  0.3911 -0.4836
  148SAPE  H13R16358   2.797   5.296   9.214 -2.4079 -0.5435 -1.8467
  148SAPE  H13S16359   2.849   5.470   9.255  0.2860  1.5211 -1.3453
  148SAPE  C21416360   2.745   5.454   9.077 -0.8926  0.5972  0.0490
  148SAPE  H14R16361   2.754   5.563   9.066 -0.5903  0.4642 -1.2341
  148SAPE  C21516362   2.708   5.384   8.971  0.5880 -0.2791 -0.3874
  148SAPE  H15R16363   2.700   5.422   8.868  0.0988 -1.5497 -0.8263
  148SAPE  C21616364   2.683   5.231   8.975 -0.4867 -0.1366  0.3069
  148SAPE  H16R16365   2.600   5.210   8.904 -1.2804 -1.5012  1.5954
  148SAPE  H16S16366   2.661   5.189   9.075 -0.0950  0.3192  0.5883
  148SAPE  C21716367   2.802   5.147   8.917 -0.0863 -0.2974 -0.1435
  148SAPE  H17R16368   2.783   5.037   8.925  0.1790 -0.3481 -0.2040
  148SAPE  H17S16369   2.883   5.181   8.985  2.1590 -0.1256 -2.7598
  148SAPE  C21816370   2.828   5.176   8.771 -0.2259 -0.2808  0.1005
  148SAPE  H18R16371   2.850   5.282   8.747  0.8310 -0.8723 -1.7080
  148SAPE  H18S16372   2.743   5.136   8.711  0.6156 -1.0050 -0.6435
  148SAPE  C21916373   2.938   5.088   8.702 -0.2934 -0.3020 -0.0792
  148SAPE  H19R16374   2.912   4.980   8.689  0.9276 -0.5269 -0.7651
  148SAPE  H19S16375   3.037   5.100   8.750 -0.2056  4.1393 -0.9655
  148SAPE  C22016376   2.965   5.141   8.563 -0.6766 -0.5084 -0.3325
  148SAPE  H20R16377   2.990   5.249   8.566  0.2042 -0.7247  0.3642
  148SAPE  H20S16378   2.872   5.124   8.505 -1.6098  1.7232  0.4302
  148SAPE  H20T16379   3.057   5.086   8.532 -0.4335  0.4451 -1.3802
  148SAPE   C3316380   2.888   4.938   9.515  0.2457 -0.4767 -0.4157
  148SAPE   H3X16381   2.842   4.837   9.520  0.6887 -0.6707 -0.1382
  148SAPE   H3Y16382   2.995   4.923   9.490  0.7857  3.0829 -0.6410
  148SAPE   C3416383   2.841   5.025   9.403  0.2229  0.0787  0.6172
  148SAPE   H4X16384   2.911   5.112   9.394  2.4008 -1.5566  0.9744
  148SAPE   H4Y16385   2.739   5.062   9.428 -1.4116 -3.1769 -0.6205
  148SAPE   C3516386   2.838   4.954   9.269 -0.0463  0.0098  0.6169
  148SAPE   H5X16387   2.940   4.951   9.225 -0.1643  0.3850  0.3170
  148SAPE   H5Y16388   2.787   5.035   9.214  3.3730  1.8495 -0.1404
  148SAPE   C3616389   2.756   4.820   9.264  0.2472  0.3201  0.5235
  148SAPE   H6X16390   2.659   4.834   9.316  1.8589  0.4735  3.6812
  148SAPE   H6Y16391   2.822   4.754   9.324  1.9231 -0.3066 -1.8493
  148SAPE   C3716392   2.747   4.766   9.114 -0.3046 -0.4403 -0.1036
  148SAPE   H7X16393   2.684   4.836   9.056  1.0344 -0.1752 -1.3106
  148SAPE   H7Y16394   2.697   4.668   9.131  0.4806 -0.8610 -0.1656
  148SAPE   C3816395   2.885   4.757   9.045 -0.3643 -0.3264  0.4468
  148SAPE   H8X16396   2.965   4.721   9.113 -1.5509  1.4349  2.9439
  148SAPE   H8Y16397   2.917   4.861   9.019  1.2256 -0.3734  1.9554
  148SAPE   C3916398   2.880   4.681   8.911  0.1207 -0.3792 -0.2617
  148SAPE   H9X16399   2.797   4.736   8.861 -1.8576 -0.4285  2.7427
  148SAPE   H9Y16400   2.854   4.574   8.920 -1.8721  0.1765  1.1937
  148SAPE  C31016401   3.010   4.689   8.828  0.0870 -0.1950  0.2703
  148SAPE  H10X16402   3.090   4.634   8.882  0.3464 -0.3483 -0.2586
  148SAPE  H10Y16403   3.038   4.796   8.816  0.5875 -0.1871  1.4096
  148SAPE  C31116404   2.999   4.631   8.683  0.0806 -0.3141  0.1787
  148SAPE  H11X16405   2.925   4.690   8.625  1.6619  0.9153 -0.6618
  148SAPE  H11Y16406   2.966   4.528   8.708 -1.0911  0.3604  1.5407
  148SAPE  C31216407   3.121   4.651   8.596 -0.3807 -0.4593 -0.1834
  148SAPE  H12X16408   3.199   4.600   8.657 -0.3463  0.8816  0.9541
  148SAPE  H12Y16409   3.144   4.758   8.575  0.1413 -0.0993  1.9087
  148SAPE  C31316410   3.114   4.582   8.455  0.1346 -0.3459  0.2460
  148SAPE  H13X16411   3.049   4.659   8.410 -2.3834 -1.2122  2.1086
  148SAPE  H13Y16412   3.054   4.488   8.468 -3.9140  1.9259 -0.2548
  148SAPE  C31416413   3.253   4.552   8.392  0.3405 -0.0755  1.1916
  148SAPE  H14X16414   3.310   4.481   8.455 -0.2700 -0.7931  0.9506
  148SAPE  H14Y16415   3.298   4.652   8.406  0.0856 -0.1748  2.8304
  148SAPE  C31516416   3.267   4.499   8.246  0.4027 -0.1346  0.9082
  148SAPE  H15X16417   3.376   4.507   8.226  0.6042 -0.5412  1.7875
  148SAPE  H15Y16418   3.220   4.559   8.165  1.6309 -0.9991 -0.5022
  148SAPE  C31616419   3.215   4.355   8.245  0.0705  1.6148  0.0118
  148SAPE  H16X16420   3.113   4.362   8.287 -0.2611  1.6915 -0.8004
  148SAPE  H16Y16421   3.268   4.290   8.318 -1.6435  1.8442  1.5258
  148SAPE  C31716422   3.192   4.290   8.106 -1.3108 -0.1726  0.1029
  148SAPE  H17X16423   3.129   4.346   8.033 -1.5447 -2.2262 -1.3491
  148SAPE  H17Y16424   3.153   4.190   8.133 -0.8819 -0.0599  1.1932
  148SAPE  C31816425   3.332   4.272   8.027 -0.2280 -0.4322  0.5051
  148SAPE  H18X16426   3.414   4.243   8.097 -0.1996  2.2945  1.7582
  148SAPE  H18Y16427   3.364   4.366   7.976  0.0110  0.4387  2.1767
  148SAPE  H18Z16428   3.316   4.191   7.954  0.7818  1.1364 -1.5749
  149SAPE     N16429   5.234   3.845  10.537  0.0082  0.9213 -0.3384
  149SAPE   HN116430   5.289   3.757  10.527  0.7500  1.4379 -0.9419
  149SAPE   HN216431   5.159   3.828  10.467 -1.1153 -0.1644  1.0645
  149SAPE   HN316432   5.293   3.927  10.510  0.9834  1.1905  2.2506
  149SAPE   C1216433   5.185   3.851  10.676  0.0842  0.2622 -0.7681
  149SAPE  H12A16434   5.137   3.753  10.696  2.1887 -1.4710 -3.5061
  149SAPE  H12B16435   5.101   3.924  10.687 -0.1963 -0.2968  1.1359
  149SAPE   C1116436   5.301   3.882  10.766  0.5194  0.0546  0.0921
  149SAPE  H11A16437   5.259   3.871  10.869 -0.1830  0.2760 -0.1619
  149SAPE  H11B16438   5.322   3.991  10.775 -1.8176  0.5971 -0.1793
  149SAPE     P16439   5.446   3.664  10.769 -0.2506  0.2688 -0.5079
  149SAPE   O1316440   5.592   3.638  10.751 -0.6503 -0.3397 -0.1331
  149SAPE   O1416441   5.376   3.612  10.884  0.8718  0.4800 -0.2657
  149SAPE   O1216442   5.427   3.820  10.752 -0.6443  0.0275 -0.0815
  149SAPE   O1116443   5.367   3.618  10.636 -0.1928  0.6635 -0.1343
  149SAPE    C116444   5.406   3.498  10.571  0.3996  0.6343  0.3653
  149SAPE    HA16445   5.515   3.503  10.548  0.3352 -1.7849 -0.7921
  149SAPE    HB16446   5.391   3.411  10.638 -0.4537 -0.2242 -0.8863
  149SAPE    C216447   5.330   3.491  10.434 -0.0484 -0.1329  0.4900
  149SAPE    HS16448   5.375   3.405  10.379  2.3768  0.7415  1.0172
  149SAPE   O2116449   5.356   3.621  10.363 -0.2510  0.0091 -0.5099
  149SAPE   C2116450   5.467   3.618  10.289  1.0376  0.0103 -0.0735
  149SAPE   O2216451   5.544   3.529  10.276  0.3932 -0.0337  0.4693
  149SAPE   C2216452   5.484   3.755  10.223 -0.7748 -1.5188 -0.2178
  149SAPE   H2R16453   5.389   3.808  10.203  1.9177  2.7002 -3.6415
  149SAPE   H2S16454   5.531   3.811  10.306  1.6004 -1.3019 -1.6037
  149SAPE    C316455   5.183   3.474  10.459  0.4022  0.1706  0.2348
  149SAPE    HX16456   5.139   3.567  10.499 -0.6226 -0.2066  0.0052
  149SAPE    HY16457   5.172   3.396  10.537  1.3718 -1.6236 -1.3284
  149SAPE   O3116458   5.117   3.429  10.336 -0.5675 -0.8878  0.1615
  149SAPE   C3116459   4.998   3.379  10.357  0.4065 -0.3728 -0.0873
  149SAPE   O3216460   4.938   3.390  10.468  0.0067 -0.6455  0.7095
  149SAPE   C3216461   4.947   3.320  10.228 -0.3378  0.2611  0.2294
  149SAPE   H2X16462   5.030   3.278  10.167 -1.0910  1.9918 -2.1577
  149SAPE   H2Y16463   4.892   3.385  10.157 -2.9997 -0.8154  1.1625
  149SAPE   C2316464   5.567   3.751  10.087  0.0489 -0.3818 -0.5041
  149SAPE   H3R16465   5.645   3.675  10.108 -0.3362 -0.5174  0.4944
  149SAPE   H3S16466   5.610   3.852  10.066 -0.9466  0.3614  0.8650
  149SAPE   C2416467   5.485   3.714   9.965  0.0062  0.4133  0.0376
  149SAPE   H4R16468   5.390   3.771   9.958  0.6777  1.3749 -2.5658
  149SAPE   H4S16469   5.459   3.607   9.980 -3.8376  0.8762 -2.0239
  149SAPE   C2516470   5.557   3.733   9.833 -0.2549 -0.7118  0.2096
  149SAPE   H5R16471   5.619   3.657   9.783  1.7462  1.1133 -0.2396
  149SAPE   C2616472   5.575   3.852   9.764 -0.4693  0.1896 -0.2897
  149SAPE   H6R16473   5.638   3.845   9.674  0.1323 -2.1898  0.2504
  149SAPE   C2716474   5.515   3.983   9.808  0.0023 -0.1340  0.4629
  149SAPE   H7R16475   5.598   4.056   9.816 -1.2584  1.3565  0.3377
  149SAPE   H7S16476   5.473   3.975   9.911  2.2357  0.9640  1.5159
  149SAPE   C2816477   5.413   4.033   9.708  0.1203 -0.1599 -0.0156
  149SAPE   H8R16478   5.309   4.020   9.741 -0.3291 -2.3916 -2.0285
  149SAPE   C2916479   5.438   4.110   9.599 -0.0318  0.3798 -0.2830
  149SAPE   H9R16480   5.349   4.121   9.536  0.2743 -0.2125 -0.8307
  149SAPE  C21016481   5.571   4.153   9.544  0.3054  0.1269  0.0574
  149SAPE  H10R16482   5.619   4.080   9.476 -1.6292 -1.2437  0.0686
  149SAPE  H10S16483   5.645   4.162   9.627 -0.0765 -1.5297  0.6177
  149SAPE  C21116484   5.576   4.288   9.476 -0.5939  0.0288  0.1826
  149SAPE  H11R16485   5.615   4.372   9.536 -0.5521 -0.0434  0.2565
  149SAPE  C21216486   5.533   4.318   9.354 -1.2625  0.5916  0.1105
  149SAPE  H12R16487   5.538   4.419   9.311  0.2689  0.1687 -0.7835
  149SAPE  C21316488   5.474   4.215   9.261 -0.5045  0.1404  0.0285
  149SAPE  H13R16489   5.396   4.257   9.194  0.1637  1.1200 -0.1476
  149SAPE  H13S16490   5.417   4.129   9.303 -1.9272 -0.0322 -2.0986
  149SAPE  C21416491   5.567   4.152   9.171 -0.8160 -0.4718  0.7380
  149SAPE  H14R16492   5.650   4.100   9.221  0.4786 -0.8125 -1.6232
  149SAPE  C21516493   5.576   4.175   9.042  0.8368 -0.2798  0.2753
  149SAPE  H15R16494   5.657   4.125   8.987  1.0206  0.0939  0.2034
  149SAPE  C21616495   5.495   4.259   8.946 -0.3182  0.4187 -0.4848
  149SAPE  H16R16496   5.413   4.311   8.999 -0.3080  0.5244 -0.5729
  149SAPE  H16S16497   5.445   4.197   8.869 -4.6348  0.2971  2.1047
  149SAPE  C21716498   5.573   4.388   8.888 -0.2364 -0.1222  0.0951
  149SAPE  H17R16499   5.597   4.449   8.977  1.1334 -1.4361  0.6759
  149SAPE  H17S16500   5.507   4.447   8.822 -0.6734 -1.4372 -0.6865
  149SAPE  C21816501   5.697   4.360   8.797  0.3662  0.2443  0.0032
  149SAPE  H18R16502   5.773   4.298   8.849  0.9168  2.3195  1.8569
  149SAPE  H18S16503   5.736   4.462   8.776 -0.2688  0.8578  1.6509
  149SAPE  C21916504   5.655   4.288   8.667  0.4383 -0.0685 -0.1662
  149SAPE  H19R16505   5.553   4.323   8.643  0.2542  1.3958  2.4130
  149SAPE  H19S16506   5.655   4.177   8.675 -0.9644  0.0577  2.6018
  149SAPE  C22016507   5.748   4.348   8.562 -0.1763  1.1219  0.2359
  149SAPE  H20R16508   5.719   4.320   8.459  0.2042 -1.4640  0.7433
  149SAPE  H20S16509   5.856   4.324   8.579  0.0769  1.0601 -1.3465
  149SAPE  H20T16510   5.746   4.458   8.556 -1.0663  1.1225  0.3719
  149SAPE   C3316511   4.843   3.215  10.258 -0.6564  0.1310  0.0210
  149SAPE   H3X16512   4.747   3.260  10.294  0.6231  2.0293  1.2583
  149SAPE   H3Y16513   4.889   3.164  10.345 -0.6279  3.0845  1.9059
  149SAPE   C3416514   4.812   3.114  10.151 -0.1988 -0.1427 -0.9093
  149SAPE   H4X16515   4.734   3.045  10.191  1.3717 -0.5050  1.8367
  149SAPE   H4Y16516   4.905   3.054  10.139 -1.3545 -2.7385  1.6956
  149SAPE   C3516517   4.759   3.162  10.018 -0.3236  0.0275  0.6174
  149SAPE   H5X16518   4.851   3.179   9.957  0.0851  0.5493  1.3597
  149SAPE   H5Y16519   4.709   3.260  10.037  0.0060  0.1491  0.8677
  149SAPE   C3616520   4.689   3.048   9.949  0.3243 -0.0719 -0.0258
  149SAPE   H6X16521   4.581   3.034   9.971  0.5295 -0.8791  0.5159
  149SAPE   H6Y16522   4.730   2.951   9.985 -1.8704 -0.8773  0.4731
  149SAPE   C3716523   4.705   3.051   9.795  0.1280 -0.7009  0.1614
  149SAPE   H7X16524   4.806   3.080   9.759 -1.1789  2.3377 -1.4256
  149SAPE   H7Y16525   4.639   3.129   9.751  3.0432  1.6211 -0.4284
  149SAPE   C3816526   4.684   2.918   9.744  0.1359  0.0419 -0.0648
  149SAPE   H8X16527   4.582   2.882   9.770  0.2595 -0.0875  0.2453
  149SAPE   H8Y16528   4.762   2.856   9.793  2.1051  0.6306 -2.3013
  149SAPE   C3916529   4.698   2.911   9.592 -0.2469  0.0616  0.1820
  149SAPE   H9X16530   4.798   2.954   9.571 -0.6526  0.3509 -1.3053
  149SAPE   H9Y16531   4.617   2.966   9.539  0.4350 -1.2807 -2.4078
  149SAPE  C31016532   4.706   2.766   9.545  1.1291  0.8446  0.8516
  149SAPE  H10X16533   4.619   2.716   9.594  1.9034 -1.5387 -0.0728
  149SAPE  H10Y16534   4.799   2.713   9.574  0.0648 -2.0322 -0.6054
  149SAPE  C31116535   4.696   2.753   9.396 -0.0372  0.1678 -0.0750
  149SAPE  H11X16536   4.613   2.820   9.364  0.0376 -0.3012 -1.2906
  149SAPE  H11Y16537   4.666   2.652   9.360 -2.5829  1.6096 -2.3512
  149SAPE  C31216538   4.817   2.799   9.311  0.1315 -0.5705 -0.4147
  149SAPE  H12X16539   4.909   2.764   9.364  1.5467  0.5094 -2.0592
  149SAPE  H12Y16540   4.826   2.909   9.318  3.1604 -0.8087  2.0585
  149SAPE  C31316541   4.810   2.748   9.170 -0.2912 -1.0663  0.1687
  149SAPE  H13X16542   4.706   2.770   9.136  0.2186  0.4870 -0.4541
  149SAPE  H13Y16543   4.834   2.640   9.168  1.2803 -0.7407  0.5030
  149SAPE  C31416544   4.901   2.839   9.090  0.3510 -0.5699 -0.0904
  149SAPE  H14X16545   5.001   2.794   9.106 -0.6641 -1.9702  3.1557
  149SAPE  H14Y16546   4.902   2.940   9.137  0.2933  0.2973 -1.8708
  149SAPE  C31516547   4.868   2.840   8.933 -0.5759  0.3627  0.3168
  149SAPE  H15X16548   4.761   2.861   8.910 -0.4068  0.9204  0.0277
  149SAPE  H15Y16549   4.898   2.743   8.889  0.4578  0.8381 -0.0750
  149SAPE  C31616550   4.959   2.948   8.853 -0.2710  0.6644 -0.0805
  149SAPE  H16X16551   4.931   2.940   8.745 -1.1050 -1.2086  0.2235
  149SAPE  H16Y16552   5.064   2.914   8.848 -0.5518 -0.2273 -0.1381
  149SAPE  C31716553   4.955   3.095   8.890 -0.0569  0.0525 -0.5112
  149SAPE  H17X16554   4.977   3.105   8.998 -1.3421 -1.7123 -0.0429
  149SAPE  H17Y16555   4.850   3.126   8.872 -0.1797  0.7434  1.1563
  149SAPE  C31816556   5.052   3.174   8.806  0.1353  0.3730  0.5974
  149SAPE  H18X16557   5.159   3.153   8.829 -0.0226 -1.1895  0.0142
  149SAPE  H18Y16558   5.040   3.284   8.811 -0.9267  0.2199  2.2154
  149SAPE  H18Z16559   5.040   3.132   8.704 -3.1134  1.0160  0.6210
  150SAPE     N16560   0.764   0.757  10.884  0.5236  0.0100  0.6196
  150SAPE   HN116561   0.754   0.836  10.817 -0.1112 -1.1272 -0.7041
  150SAPE   HN216562   0.748   0.791  10.981  1.8093  1.7670  0.2475
  150SAPE   HN316563   0.857   0.712  10.879  0.6834  0.0314  2.6053
  150SAPE   C1216564   0.656   0.648  10.852  0.2830  0.0030 -0.0728
  150SAPE  H12A16565   0.562   0.693  10.814  0.1371 -0.9218 -0.8529
  150SAPE  H12B16566   0.617   0.602  10.945 -1.3305 -1.2923 -1.3256
  150SAPE   C1116567   0.706   0.547  10.749  0.1462  0.0192 -0.6074
  150SAPE  H11A16568   0.722   0.609  10.658 -1.5004  1.1986 -0.1446
  150SAPE  H11B16569   0.624   0.473  10.739 -0.2666  0.4423 -0.4146
  150SAPE     P16570   0.965   0.497  10.747  0.1596 -0.7800 -0.0425
  150SAPE   O1316571   0.995   0.639  10.789  0.5288  0.0308 -0.1235
  150SAPE   O1416572   1.050   0.392  10.805  0.0562 -0.0365  0.0665
  150SAPE   O1216573   0.817   0.471  10.799 -0.3235  0.6106  0.0251
  150SAPE   O1116574   0.965   0.496  10.589 -0.0692  0.5223 -0.2796
  150SAPE    C116575   0.947   0.382  10.503 -0.0027  0.1906 -0.4668
  150SAPE    HA16576   1.009   0.292  10.523  0.3891  0.5691  0.0503
  150SAPE    HB16577   0.839   0.355  10.511 -0.1436  0.4516 -1.4141
  150SAPE    C216578   0.951   0.430  10.356  0.6288 -0.7867  0.1776
  150SAPE    HS16579   0.889   0.371  10.286 -0.3796  2.0132 -1.4664
  150SAPE   O2116580   1.088   0.435  10.308  0.4410 -0.2500  0.5698
  150SAPE   C2116581   1.131   0.317  10.259  0.2484 -0.1547  0.9929
  150SAPE   O2216582   1.059   0.217  10.263 -0.2396  0.0153  0.0126
  150SAPE   C2216583   1.277   0.324  10.203 -0.3780  0.1919 -0.0850
  150SAPE   H2R16584   1.286   0.423  10.155  2.1845  0.8397  1.5568
  150SAPE   H2S16585   1.336   0.320  10.297 -0.3541 -1.6058 -0.1344
  150SAPE    C316586   0.900   0.579  10.352 -0.3349 -0.2649  0.4727
  150SAPE    HX16587   0.970   0.643  10.410  1.5284  0.2499 -2.1542
  150SAPE    HY16588   0.802   0.577  10.404 -1.7993 -2.6910 -2.1552
  150SAPE   O3116589   0.878   0.619  10.215 -0.6093 -0.5244 -0.0987
  150SAPE   C3116590   0.928   0.738  10.175 -0.1722  0.7973 -0.0998
  150SAPE   O3216591   0.994   0.814  10.243  0.2262  0.6540 -0.0843
  150SAPE   C3216592   0.914   0.752  10.024 -0.2966 -1.0257  0.3530
  150SAPE   H2X16593   0.947   0.853   9.993 -0.9188 -0.2649  2.0635
  150SAPE   H2Y16594   0.811   0.725   9.994 -0.4750  0.1438 -0.1108
  150SAPE   C2316595   1.320   0.209  10.112 -0.3368  0.4595 -0.5952
  150SAPE   H3R16596   1.272   0.230  10.014 -1.4459 -0.8450 -0.3558
  150SAPE   H3S16597   1.305   0.110  10.158  0.7287  1.2613  1.6271
  150SAPE   C2416598   1.476   0.211  10.086 -0.4236  0.3230 -0.3444
  150SAPE   H4R16599   1.493   0.141  10.002 -1.7778 -0.2962 -0.1219
  150SAPE   H4S16600   1.526   0.170  10.177 -1.9012 -2.3554 -0.6596
  150SAPE   C2516601   1.517   0.353  10.051 -0.1742  0.0296  0.0627
  150SAPE   H5R16602   1.543   0.413  10.140 -2.1694 -0.8276  1.2893
  150SAPE   C2616603   1.523   0.401   9.926 -0.9200 -1.4540  0.3301
  150SAPE   H6R16604   1.550   0.508   9.917 -1.6076 -1.4261 -2.0669
  150SAPE   C2716605   1.489   0.333   9.794  0.0211  0.0525  0.2582
  150SAPE   H7R16606   1.441   0.399   9.717 -1.1500 -0.4090  0.5615
  150SAPE   H7S16607   1.413   0.254   9.811  0.3768 -0.2946  0.2392
  150SAPE   C2816608   1.614   0.262   9.741 -0.7885 -0.6409  0.0410
  150SAPE   H8R16609   1.693   0.239   9.814  0.5385 -1.2260 -1.5158
  150SAPE   C2916610   1.626   0.208   9.620 -0.1097  0.3791  0.3201
  150SAPE   H9R16611   1.729   0.175   9.599  0.1281  1.2093  0.1418
  150SAPE  C21016612   1.536   0.216   9.503  0.1389 -0.1163  0.2397
  150SAPE  H10R16613   1.431   0.213   9.539 -1.3107  2.7836 -3.1024
  150SAPE  H10S16614   1.557   0.124   9.444  1.2398 -0.9298  1.8369
  150SAPE  C21116615   1.544   0.344   9.424 -0.5853 -0.1862 -0.2319
  150SAPE  H11R16616   1.509   0.436   9.473  0.8367 -0.1251  0.7457
  150SAPE  C21216617   1.584   0.352   9.294  0.8832 -0.0491 -0.0137
  150SAPE  H12R16618   1.587   0.447   9.239 -0.0561 -0.1808 -0.3271
  150SAPE  C21316619   1.617   0.240   9.205  0.7000  1.0364  0.2723
  150SAPE  H13R16620   1.569   0.144   9.236 -0.0910  1.3007 -0.1056
  150SAPE  H13S16621   1.728   0.228   9.201  0.6872  1.1729 -2.3834
  150SAPE  C21416622   1.578   0.269   9.060 -0.6573  0.5129  0.4242
  150SAPE  H14R16623   1.529   0.366   9.042 -0.9884  0.0757 -1.2453
  150SAPE  C21516624   1.600   0.185   8.956  0.1032  1.6427 -0.1973
  150SAPE  H15R16625   1.572   0.216   8.854  1.0750 -1.3049 -1.4764
  150SAPE  C21616626   1.668   0.048   8.969 -1.1953  0.3794  0.4038
  150SAPE  H16R16627   1.729   0.040   9.061  0.9403 -6.1480 -1.0478
  150SAPE  H16S16628   1.745   0.032   8.890 -1.3974  0.5292  0.1743
  150SAPE  C21716629   1.590  -0.082   8.962 -0.3382 -0.0386 -0.2740
  150SAPE  H17R16630   1.513  -0.077   9.042  0.7659  3.4414  0.7499
  150SAPE  H17S16631   1.646  -0.175   8.984 -2.1037 -0.8955  0.7813
  150SAPE  C21816632   1.534  -0.104   8.817  0.3540 -0.4726 -0.1618
  150SAPE  H18R16633   1.618  -0.115   8.746  1.4876 -0.4332  1.1389
  150SAPE  H18S16634   1.478  -0.012   8.786  0.7746 -0.0137  0.4031
  150SAPE  C21916635   1.437  -0.222   8.793  0.2087 -0.1020 -0.3862
  150SAPE  H19R16636   1.393  -0.227   8.691  1.0357 -1.3393 -0.7023
  150SAPE  H19S16637   1.358  -0.219   8.871 -0.0421 -1.3078 -0.5672
  150SAPE  C22016638   1.508  -0.359   8.820  0.2590  0.2885  0.2059
  150SAPE  H20R16639   1.438  -0.445   8.815  1.2638 -0.5842  0.8156
  150SAPE  H20S16640   1.552  -0.351   8.922 -0.4609  2.6311  0.4069
  150SAPE  H20T16641   1.592  -0.373   8.750  0.2973  1.2287  0.0496
  150SAPE   C3316642   1.030   0.662   9.951  0.5796 -0.0243  0.3832
  150SAPE   H3X16643   1.130   0.670   9.998  1.1268 -1.2738 -0.5119
  150SAPE   H3Y16644   1.044   0.684   9.843  0.5475 -1.5382  0.0451
  150SAPE   C3416645   0.987   0.513   9.937 -0.1604  0.0768 -0.3992
  150SAPE   H4X16646   0.887   0.506   9.889 -0.5859 -0.4123  0.5474
  150SAPE   H4Y16647   0.974   0.463  10.035 -2.6125  2.6995  0.7690
  150SAPE   C3516648   1.094   0.433   9.857 -0.3057  0.0824  0.2141
  150SAPE   H5X16649   1.096   0.327   9.890 -1.2554 -0.1556 -0.4643
  150SAPE   H5Y16650   1.193   0.477   9.881  0.3533 -1.0419 -0.4200
  150SAPE   C3616651   1.075   0.440   9.705 -0.4028  0.4258  0.2748
  150SAPE   H6X16652   1.112   0.531   9.655  0.3066  0.8287  1.5065
  150SAPE   H6Y16653   0.967   0.424   9.684 -0.7264  1.3861  1.1088
  150SAPE   C3716654   1.138   0.321   9.626  0.0527  0.0454  0.9518
  150SAPE   H7X16655   1.126   0.223   9.678 -0.2294  0.7644  2.2552
  150SAPE   H7Y16656   1.249   0.332   9.616 -0.1786  1.0212 -0.9308
  150SAPE   C3816657   1.094   0.305   9.478  0.5194  0.3665 -0.2414
  150SAPE   H8X16658   1.136   0.390   9.421 -1.6570  0.6782 -1.4771
  150SAPE   H8Y16659   0.983   0.302   9.478  0.5330 -0.5949 -0.6470
  150SAPE   C3916660   1.144   0.186   9.398 -0.1228 -0.2115  0.2963
  150SAPE   H9X16661   1.112   0.099   9.460 -0.6700  0.5344  1.0743
  150SAPE   H9Y16662   1.255   0.187   9.387 -0.2951  0.9367 -1.7198
  150SAPE  C31016663   1.098   0.181   9.248 -0.7536  0.2005 -0.1297
  150SAPE  H10X16664   1.135   0.091   9.195 -2.5175 -0.0689 -0.9975
  150SAPE  H10Y16665   1.138   0.272   9.199 -0.1909  0.2161  0.3519
  150SAPE  C31116666   0.948   0.166   9.220 -0.2397 -0.4730 -0.5302
  150SAPE  H11X16667   0.906   0.265   9.250  1.7278  0.3503 -0.3751
  150SAPE  H11Y16668   0.905   0.083   9.279  1.0497 -0.8085 -0.0377
  150SAPE  C31216669   0.904   0.144   9.069  0.2910  0.3374  0.3557
  150SAPE  H12X16670   0.794   0.131   9.065  0.1977 -0.7817  3.2912
  150SAPE  H12Y16671   0.935   0.039   9.050 -0.8903  0.3357 -1.7874
  150SAPE  C31316672   0.966   0.239   8.961  0.2724  0.1194  0.0173
  150SAPE  H13X16673   1.077   0.240   8.961  0.3509 -1.1628 -2.0006
  150SAPE  H13Y16674   0.937   0.343   8.984  0.9736  0.3656 -0.2105
  150SAPE  C31416675   0.920   0.222   8.817 -0.2990 -0.1969  0.0448
  150SAPE  H14X16676   0.810   0.232   8.828 -0.3060  0.7540 -0.7770
  150SAPE  H14Y16677   0.942   0.122   8.775 -0.2157 -0.2375  0.1844
  150SAPE  C31516678   0.967   0.333   8.720  0.1595  0.6710 -0.0372
  150SAPE  H15X16679   1.071   0.316   8.685 -0.0550 -2.3055  0.5475
  150SAPE  H15Y16680   0.952   0.433   8.766  1.9053  0.9398  0.0435
  150SAPE  C31616681   0.872   0.342   8.600 -0.4876 -0.3165  0.1492
  150SAPE  H16X16682   0.899   0.434   8.543 -0.9278 -1.3941 -1.8738
  150SAPE  H16Y16683   0.773   0.367   8.643 -1.1409 -2.0123 -0.3060
  150SAPE  C31716684   0.867   0.221   8.505 -0.6019  0.2160  0.1855
  150SAPE  H17X16685   0.850   0.125   8.558  1.0696 -0.4545 -0.4319
  150SAPE  H17Y16686   0.962   0.211   8.449  0.1503  0.4248  1.3951
  150SAPE  C31816687   0.767   0.245   8.402  0.4057  0.3337  0.7615
  150SAPE  H18X16688   0.663   0.261   8.438  0.2782  1.3159 -0.0003
  150SAPE  H18Y16689   0.771   0.162   8.329  2.0405 -0.1261  1.3359
  150SAPE  H18Z16690   0.783   0.339   8.344 -2.6344  0.6972  0.3281
  151SAPE     N16691   3.039   2.869  10.788  0.1728 -0.3082 -0.2397
  151SAPE   HN116692   2.985   2.931  10.851  0.6335 -1.2597  1.1277
  151SAPE   HN216693   3.031   2.896  10.687 -0.5615  0.1082 -0.0788
  151SAPE   HN316694   2.996   2.775  10.800  0.0842 -0.2357  0.0082
  151SAPE   C1216695   3.182   2.850  10.841 -0.8089  0.1170  0.0735
  151SAPE  H12A16696   3.193   2.743  10.869 -3.3114 -0.2229  0.0709
  151SAPE  H12B16697   3.196   2.917  10.928  1.1155  2.4934 -1.9193
  151SAPE   C1116698   3.289   2.879  10.732 -0.2588  0.1106 -0.6365
  151SAPE  H11A16699   3.392   2.892  10.771  0.3501  1.4907 -2.6024
  151SAPE  H11B16700   3.282   2.982  10.692  0.2040  0.3211 -0.1855
  151SAPE     P16701   3.406   2.693  10.597  0.0575 -0.1625  0.3100
  151SAPE   O1316702   3.477   2.668  10.717  0.4658 -0.6702  0.3353
  151SAPE   O1416703   3.369   2.571  10.522 -0.2919 -0.1141  0.3519
  151SAPE   O1216704   3.281   2.779  10.623 -0.2554 -0.2337  0.4229
  151SAPE   O1116705   3.497   2.787  10.507  0.3193 -0.3078  0.7434
  151SAPE    C116706   3.449   2.823  10.377 -0.2585  0.4155 -0.3499
  151SAPE    HA16707   3.537   2.836  10.310  0.1803  0.6693  0.2636
  151SAPE    HB16708   3.391   2.741  10.330  0.7539 -0.1751 -0.5972
  151SAPE    C216709   3.363   2.948  10.366 -0.5721 -0.6990 -0.1094
  151SAPE    HS16710   3.273   2.940  10.432 -1.5395  0.1618 -1.2865
  151SAPE   O2116711   3.312   2.959  10.230 -0.1114  0.6719 -0.0386
  151SAPE   C2116712   3.198   3.025  10.221  0.0660 -0.7331 -0.4845
  151SAPE   O2216713   3.142   3.088  10.315 -0.2346  0.4226 -0.1375
  151SAPE   C2216714   3.163   3.040  10.076 -0.2628  0.1459  0.2232
  151SAPE   H2R16715   3.249   3.020  10.008 -1.4040  0.3997 -1.3432
  151SAPE   H2S16716   3.084   2.964  10.058  0.0053 -0.3242  0.9645
  151SAPE    C316717   3.452   3.065  10.418 -0.4739  0.0939  0.1335
  151SAPE    HX16718   3.502   3.025  10.509  1.0894 -0.7946 -1.0676
  151SAPE    HY16719   3.395   3.156  10.445 -0.3383  0.1885  0.1041
  151SAPE   O3116720   3.557   3.097  10.321  0.2201  1.1142 -0.3847
  151SAPE   C3116721   3.530   3.186  10.227 -0.3651 -0.7055  0.4491
  151SAPE   O3216722   3.427   3.254  10.225  0.5505 -0.0500  0.3693
  151SAPE   C3216723   3.644   3.209  10.137 -0.3649 -0.2682 -0.0463
  151SAPE   H2X16724   3.673   3.119  10.079 -1.2867 -0.8921  0.4444
  151SAPE   H2Y16725   3.734   3.216  10.201  0.8150 -1.5131 -1.4962
  151SAPE   C2316726   3.113   3.177  10.037  0.0611  0.0184  0.7710
  151SAPE   H3R16727   3.195   3.250  10.053  1.6727 -1.0688 -1.9241
  151SAPE   H3S16728   3.032   3.218  10.101 -1.2630 -0.3212 -0.6239
  151SAPE   C2416729   3.063   3.175   9.889  0.8895 -0.1067  0.1901
  151SAPE   H4R16730   3.050   3.278   9.849 -1.8502 -0.4540 -0.0371
  151SAPE   H4S16731   2.961   3.130   9.891  1.1393 -0.7109  2.6656
  151SAPE   C2516732   3.152   3.104   9.796  1.0876  0.4406  0.6183
  151SAPE   H5R16733   3.150   2.996   9.817  0.6552  0.3119 -0.0517
  151SAPE   C2616734   3.219   3.148   9.689  0.3019 -0.6687  0.3208
  151SAPE   H6R16735   3.275   3.075   9.628  0.7640  0.2499 -0.3807
  151SAPE   C2716736   3.224   3.295   9.641 -0.6704  0.2924 -0.1010
  151SAPE   H7R16737   3.268   3.357   9.722  1.7637  1.5154 -2.1908
  151SAPE   H7S16738   3.120   3.331   9.627 -0.8059  0.2957  0.8474
  151SAPE   C2816739   3.306   3.322   9.513  0.0630  0.0806  0.8143
  151SAPE   H8R16740   3.415   3.334   9.522  0.0651  2.4722 -1.2762
  151SAPE   C2916741   3.253   3.351   9.388  0.3040 -0.4234  0.4408
  151SAPE   H9R16742   3.324   3.365   9.305 -0.8832  2.1137 -0.2234
  151SAPE  C21016743   3.106   3.349   9.356 -0.5011  0.0497  0.2044
  151SAPE  H10R16744   3.087   3.455   9.328  2.3867  0.8035  0.7933
  151SAPE  H10S16745   3.039   3.328   9.443  0.2945  1.1013  1.1000
  151SAPE  C21116746   3.075   3.255   9.241 -0.8582 -0.2997 -0.1882
  151SAPE  H11R16747   3.068   3.147   9.260 -1.5222 -0.4196 -1.0339
  151SAPE  C21216748   3.048   3.289   9.114  0.7026 -0.3058  0.1117
  151SAPE  H12R16749   3.021   3.212   9.040  0.4258  0.3257 -0.4495
  151SAPE  C21316750   3.039   3.425   9.051 -1.3941 -0.1761 -0.2931
  151SAPE  H13R16751   2.999   3.505   9.118 -3.2429 -0.3762 -1.1037
  151SAPE  H13S16752   2.961   3.419   8.973 -0.4407  0.9047 -1.3685
  151SAPE  C21416753   3.175   3.462   8.982  0.1297 -0.0275  0.1939
  151SAPE  H14R16754   3.252   3.475   9.059 -0.9351  0.7986  1.1572
  151SAPE  C21516755   3.205   3.457   8.850 -0.5151 -0.6031 -0.0848
  151SAPE  H15R16756   3.305   3.489   8.818 -0.4954  1.3449  1.7098
  151SAPE  C21616757   3.114   3.411   8.743  0.0677 -0.2240  0.2110
  151SAPE  H16R16758   3.015   3.388   8.787 -0.2842 -0.8168 -0.8612
  151SAPE  H16S16759   3.153   3.320   8.692  3.4347  0.3401  1.5286
  151SAPE  C21716760   3.079   3.523   8.640 -0.6658  0.2193 -0.0539
  151SAPE  H17R16761   2.991   3.584   8.671 -0.8663 -0.2364  0.2906
  151SAPE  H17S16762   3.038   3.467   8.553  0.7213 -2.3348  0.8476
  151SAPE  C21816763   3.187   3.611   8.582  0.2101  0.1042  0.1832
  151SAPE  H18R16764   3.280   3.550   8.570 -1.1859 -1.8983 -1.0346
  151SAPE  H18S16765   3.223   3.687   8.655  0.8502 -0.0927  0.0854
  151SAPE  C21916766   3.158   3.670   8.441 -1.0175  0.3721  0.2610
  151SAPE  H19R16767   3.060   3.724   8.442  0.1149  2.5268  0.4094
  151SAPE  H19S16768   3.140   3.578   8.380  0.7502  0.2940 -0.1860
  151SAPE  C22016769   3.271   3.750   8.374 -0.0146 -0.1045  0.0592
  151SAPE  H20R16770   3.237   3.773   8.271  1.9550 -0.0110 -0.6064
  151SAPE  H20S16771   3.353   3.676   8.360 -1.6750 -1.9248 -0.4815
  151SAPE  H20T16772   3.304   3.840   8.431  1.5702 -0.9672  0.5846
  151SAPE   C3316773   3.634   3.327  10.035  0.1807 -0.3679 -0.0645
  151SAPE   H3X16774   3.648   3.413  10.103  1.3418 -1.7288  1.5144
  151SAPE   H3Y16775   3.540   3.343   9.979 -1.3586 -0.8112  2.2620
  151SAPE   C3416776   3.758   3.326   9.942  0.2591 -0.0973  0.8488
  151SAPE   H4X16777   3.779   3.223   9.905  4.0641 -0.1968  2.7583
  151SAPE   H4Y16778   3.847   3.340  10.007  0.2035 -0.3193  0.9755
  151SAPE   C3516779   3.743   3.422   9.821  0.1329  0.1507  0.2121
  151SAPE   H5X16780   3.746   3.532   9.840  0.0583  0.0732  0.6897
  151SAPE   H5Y16781   3.644   3.397   9.779  0.2305 -2.5950  1.4109
  151SAPE   C3616782   3.851   3.395   9.717 -1.0796  0.0335  0.2518
  151SAPE   H6X16783   3.948   3.405   9.771 -0.7292  1.4956 -0.5863
  151SAPE   H6Y16784   3.860   3.477   9.642  2.6254  1.0021  1.5173
  151SAPE   C3716785   3.845   3.265   9.640 -0.7281  0.3977  0.5574
  151SAPE   H7X16786   3.747   3.249   9.590 -0.0346  0.9284 -1.0541
  151SAPE   H7Y16787   3.858   3.182   9.712  1.1869  0.4066  0.2694
  151SAPE   C3816788   3.954   3.243   9.535 -0.0475 -0.1478  0.2768
  151SAPE   H8X16789   3.978   3.135   9.528  2.0977  0.0951  2.6685
  151SAPE   H8Y16790   4.045   3.290   9.578 -0.4748  0.1349  0.8640
  151SAPE   C3916791   3.914   3.287   9.390 -0.1046  0.4928  0.0695
  151SAPE   H9X16792   3.911   3.398   9.388 -1.2063  0.5179 -3.1484
  151SAPE   H9Y16793   3.812   3.251   9.365  1.0747 -3.1066 -0.0660
  151SAPE  C31016794   4.015   3.227   9.284  0.1186 -0.3838 -0.7145
  151SAPE  H10X16795   4.003   3.116   9.291 -0.3287 -0.2648  0.8625
  151SAPE  H10Y16796   4.115   3.254   9.325 -0.2112 -1.0232  0.5807
  151SAPE  C31116797   3.981   3.279   9.149  0.2655 -0.4901  0.2511
  151SAPE  H11X16798   3.967   3.388   9.161 -0.6214 -0.8848  4.0214
  151SAPE  H11Y16799   3.882   3.233   9.130 -0.5369  1.7232 -1.3070
  151SAPE  C31216800   4.079   3.227   9.045  0.1832 -0.1209  0.1799
  151SAPE  H12X16801   4.085   3.116   9.039  2.0064 -0.0374 -0.1700
  151SAPE  H12Y16802   4.184   3.256   9.066  0.8741 -1.2244 -1.5020
  151SAPE  C31316803   4.064   3.279   8.903  0.3346  0.1643 -0.0685
  151SAPE  H13X16804   3.969   3.243   8.858  1.6437 -0.3306 -2.6387
  151SAPE  H13Y16805   4.146   3.240   8.838 -0.1773  0.2134 -0.7558
  151SAPE  C31416806   4.083   3.431   8.878  0.6835 -0.0254  0.2199
  151SAPE  H14X16807   4.192   3.446   8.893  0.9723 -0.4840 -1.2597
  151SAPE  H14Y16808   4.031   3.485   8.959 -1.7584  1.7609 -2.3559
  151SAPE  C31516809   4.039   3.479   8.735 -0.2762 -0.3474 -0.3509
  151SAPE  H15X16810   3.931   3.454   8.733 -0.9251  2.1921 -0.2758
  151SAPE  H15Y16811   4.105   3.434   8.658 -1.9848  0.2617 -2.2532
  151SAPE  C31616812   4.045   3.634   8.712  0.5469 -0.9686  0.0275
  151SAPE  H16X16813   4.145   3.670   8.742  0.4096  0.1967 -0.8338
  151SAPE  H16Y16814   3.981   3.690   8.784  0.7282 -0.8565  0.1018
  151SAPE  C31716815   4.023   3.661   8.558 -0.5409 -0.0781  0.3617
  151SAPE  H17X16816   3.922   3.624   8.529 -1.0239  0.1217  1.7152
  151SAPE  H17Y16817   4.091   3.594   8.501 -0.9272 -0.3579  0.2246
  151SAPE  C31816818   4.045   3.807   8.517  0.4795  0.4903 -0.1036
  151SAPE  H18X16819   4.018   3.831   8.412 -1.1670  0.7123  0.3412
  151SAPE  H18Y16820   4.155   3.820   8.522  0.3943  0.7359  1.6986
  151SAPE  H18Z16821   4.009   3.875   8.597 -0.3725 -0.8388  0.6902
  152SAPE     N16822   3.900   3.240  10.617 -0.0871 -0.0389 -0.1244
  152SAPE   HN116823   3.849   3.191  10.541  0.4576  1.7026 -1.6902
  152SAPE   HN216824   3.832   3.274  10.689 -0.2467  0.0180 -0.3025
  152SAPE   HN316825   3.936   3.327  10.571 -2.2580  0.5497 -0.8482
  152SAPE   C1216826   4.002   3.150  10.686  0.5586 -0.4711 -0.1778
  152SAPE  H12A16827   3.952   3.051  10.693  1.7424 -1.2801 -2.2304
  152SAPE  H12B16828   4.009   3.198  10.786 -0.3342  0.8806 -0.7211
  152SAPE   C1116829   4.133   3.130  10.611 -0.8100  0.0022  0.5341
  152SAPE  H11A16830   4.199   3.219  10.612  0.9012 -1.2173  0.7775
  152SAPE  H11B16831   4.113   3.114  10.503  0.8080 -1.0312  0.3396
  152SAPE     P16832   4.226   2.878  10.615 -0.2247 -0.0176  0.1925
  152SAPE   O1316833   4.353   2.818  10.672  0.1984 -0.0218  0.3343
  152SAPE   O1416834   4.108   2.792  10.638  0.4019 -0.5682 -0.4364
  152SAPE   O1216835   4.208   3.020  10.678 -0.2752 -0.0159  0.5877
  152SAPE   O1116836   4.237   2.906  10.459  0.4683 -0.0317 -0.4159
  152SAPE    C116837   4.337   2.985  10.399 -0.0422 -0.1906  0.5580
  152SAPE    HA16838   4.326   3.095  10.411 -0.6209  0.5464 -4.4643
  152SAPE    HB16839   4.443   2.958  10.421  0.1195  0.5023  0.6562
  152SAPE    C216840   4.331   2.951  10.243 -0.5009 -1.1863 -0.1840
  152SAPE    HS16841   4.419   3.003  10.198 -2.0056  1.8267  0.1316
  152SAPE   O2116842   4.214   3.017  10.190 -0.2823 -0.3605  0.0201
  152SAPE   C2116843   4.218   3.144  10.168  0.6758 -0.4180 -0.0423
  152SAPE   O2216844   4.315   3.217  10.182  0.4213 -0.0829  0.5431
  152SAPE   C2216845   4.080   3.182  10.111 -0.9328 -0.2653  0.0880
  152SAPE   H2R16846   4.002   3.172  10.189 -0.9443  1.4687  0.3413
  152SAPE   H2S16847   4.095   3.286  10.073  0.0485 -0.3657  0.1647
  152SAPE    C316848   4.341   2.796  10.216  0.0528  1.0483  0.1942
  152SAPE    HX16849   4.239   2.754  10.233  0.3552 -1.6776 -3.4533
  152SAPE    HY16850   4.413   2.764  10.294  0.8716 -1.1138 -1.3600
  152SAPE   O3116851   4.380   2.764  10.081  0.0690 -0.4525 -0.7929
  152SAPE   C3116852   4.400   2.628  10.063 -0.5873  0.0136 -0.6818
  152SAPE   O3216853   4.371   2.545  10.147 -0.3841 -0.3555 -0.0004
  152SAPE   C3216854   4.455   2.599   9.928  0.2435  0.8061  0.4235
  152SAPE   H2X16855   4.564   2.591   9.945  0.4655  0.8034 -0.9286
  152SAPE   H2Y16856   4.436   2.690   9.868  1.9621 -0.1376 -1.6363
  152SAPE   C2316857   4.030   3.087   9.994 -0.5965  0.0207 -0.8062
  152SAPE   H3R16858   3.923   3.111   9.975 -1.0754 -0.3704  1.1787
  152SAPE   H3S16859   4.042   2.981  10.027  0.9456  0.0613 -1.2003
  152SAPE   C2416860   4.098   3.114   9.861  0.4746  0.3411  0.5373
  152SAPE   H4R16861   4.092   3.221   9.833 -0.0911 -0.2325 -1.6997
  152SAPE   H4S16862   4.043   3.060   9.781  0.1784  0.1855  0.8385
  152SAPE   C2516863   4.237   3.067   9.851 -0.1832 -0.0757 -0.2323
  152SAPE   H5R16864   4.276   3.013   9.938 -1.5186 -0.4025  0.1878
  152SAPE   C2616865   4.325   3.078   9.744 -0.0891  0.2046  0.1594
  152SAPE   H6R16866   4.424   3.038   9.773  0.4250  0.7453 -0.8001
  152SAPE   C2716867   4.312   3.126   9.607  0.0010  0.1140 -0.4759
  152SAPE   H7R16868   4.399   3.191   9.582 -0.6047  1.5247  0.9850
  152SAPE   H7S16869   4.213   3.171   9.588 -0.4863  0.2495  2.1077
  152SAPE   C2816870   4.317   3.000   9.525 -0.0803  0.1440  0.1855
  152SAPE   H8R16871   4.284   2.902   9.562 -0.6987 -0.3974 -1.6772
  152SAPE   C2916872   4.342   2.995   9.393 -0.3503 -0.7310  0.0372
  152SAPE   H9R16873   4.314   2.905   9.337  0.2506 -0.5950 -0.4927
  152SAPE  C21016874   4.372   3.113   9.302 -0.2194 -0.5418  0.4663
  152SAPE  H10R16875   4.351   3.211   9.351 -1.4327 -0.5961  0.0959
  152SAPE  H10S16876   4.300   3.104   9.218  1.5478 -0.1563 -1.1659
  152SAPE  C21116877   4.516   3.117   9.257 -0.4030 -0.3962  0.8915
  152SAPE  H11R16878   4.587   3.136   9.338  0.3833 -3.7442  1.1310
  152SAPE  C21216879   4.571   3.063   9.143  0.2117  0.2761  0.3748
  152SAPE  H12R16880   4.680   3.070   9.135  0.2788 -0.2170  0.8035
  152SAPE  C21316881   4.494   2.996   9.034 -0.4538  0.4157  0.5873
  152SAPE  H13R16882   4.406   2.942   9.075 -1.6670  0.7220 -1.4988
  152SAPE  H13S16883   4.557   2.915   8.992 -0.0510 -0.0503  2.0179
  152SAPE  C21416884   4.465   3.095   8.926 -0.1957  0.2957 -0.2248
  152SAPE  H14R16885   4.507   3.196   8.939 -0.1866  0.5331 -1.8272
  152SAPE  C21516886   4.379   3.090   8.826  0.4364  0.1078  0.0823
  152SAPE  H15R16887   4.381   3.175   8.756  0.1837  0.7857  0.8832
  152SAPE  C21616888   4.283   2.977   8.791 -0.3335  0.1459  0.4863
  152SAPE  H16R16889   4.183   3.023   8.800 -0.0957  1.0691 -1.1326
  152SAPE  H16S16890   4.302   2.890   8.857 -2.3692  0.5421  1.6857
  152SAPE  C21716891   4.296   2.941   8.641  0.0017 -0.0150  0.1893
  152SAPE  H17R16892   4.292   3.039   8.589 -1.1143  0.3941  1.0113
  152SAPE  H17S16893   4.206   2.881   8.616 -0.6160  1.0888 -0.2702
  152SAPE  C21816894   4.427   2.857   8.618 -0.3754  0.5475  0.1035
  152SAPE  H18R16895   4.435   2.770   8.688  0.0599 -1.2290 -2.0377
  152SAPE  H18S16896   4.514   2.923   8.631  0.5714 -0.7685  0.6977
  152SAPE  C21916897   4.421   2.805   8.475  0.6037  0.2600 -0.1075
  152SAPE  H19R16898   4.329   2.744   8.462  0.8731 -0.2260  0.2672
  152SAPE  H19S16899   4.503   2.737   8.445  0.1602  0.1740 -1.1930
  152SAPE  C22016900   4.426   2.903   8.362  0.2573  0.1786  0.7976
  152SAPE  H20R16901   4.487   2.993   8.383 -0.6395  1.1373 -0.5357
  152SAPE  H20S16902   4.322   2.940   8.349  0.3329 -0.3059 -1.8052
  152SAPE  H20T16903   4.456   2.856   8.265 -2.7962 -1.1366  0.3621
  152SAPE   C3316904   4.396   2.485   9.840  0.2888  0.2530  0.0524
  152SAPE   H3X16905   4.286   2.484   9.853  0.2476 -0.3053 -0.2930
  152SAPE   H3Y16906   4.447   2.391   9.872  1.5390  1.1883  0.8950
  152SAPE   C3416907   4.401   2.497   9.684 -0.1243  0.0612 -0.6619
  152SAPE   H4X16908   4.377   2.399   9.636 -1.2015 -0.3703  0.6924
  152SAPE   H4Y16909   4.501   2.535   9.655  1.0968 -1.0323  1.8029
  152SAPE   C3516910   4.303   2.594   9.616 -0.0936 -0.0767  0.1463
  152SAPE   H5X16911   4.336   2.690   9.661 -0.7480 -0.0713  0.6461
  152SAPE   H5Y16912   4.200   2.579   9.656  0.1584 -0.1933  0.7717
  152SAPE   C3616913   4.334   2.625   9.472  0.1529 -0.2415  0.3758
  152SAPE   H6X16914   4.424   2.690   9.473  1.3537 -1.7905 -1.2053
  152SAPE   H6Y16915   4.252   2.687   9.429 -0.5584 -2.4104 -1.5552
  152SAPE   C3716916   4.342   2.520   9.364 -0.4800  0.3244  0.3886
  152SAPE   H7X16917   4.261   2.444   9.356 -1.4730  1.5402 -5.0419
  152SAPE   H7Y16918   4.435   2.467   9.393  0.0511 -1.2605 -3.5687
  152SAPE   C3816919   4.371   2.586   9.225 -0.0203 -1.0028  0.4331
  152SAPE   H8X16920   4.461   2.649   9.239 -0.1509 -0.5156 -0.7808
  152SAPE   H8Y16921   4.285   2.647   9.191 -0.6885 -0.6724  2.5663
  152SAPE   C3916922   4.406   2.488   9.117 -1.0086  0.4755  0.1205
  152SAPE   H9X16923   4.318   2.440   9.070  0.5810 -2.3720 -0.2145
  152SAPE   H9Y16924   4.465   2.403   9.159 -0.9775 -0.4658 -1.7137
  152SAPE  C31016925   4.479   2.549   9.000 -0.5855  0.2223  0.8863
  152SAPE  H10X16926   4.584   2.582   9.012 -0.6070  1.1343 -1.0436
  152SAPE  H10Y16927   4.418   2.636   8.968 -1.2811 -0.6135 -0.1449
  152SAPE  C31116928   4.492   2.440   8.886  0.3167  0.0682 -0.5466
  152SAPE  H11X16929   4.387   2.413   8.860  0.4660  1.1144 -2.4391
  152SAPE  H11Y16930   4.547   2.353   8.929 -1.3316  0.4966  2.7356
  152SAPE  C31216931   4.562   2.496   8.759 -0.3602 -0.1070 -0.0947
  152SAPE  H12X16932   4.524   2.592   8.718  1.0708 -0.7254 -3.1528
  152SAPE  H12Y16933   4.551   2.422   8.678  1.0157 -1.4350  0.8866
  152SAPE  C31316934   4.715   2.504   8.776 -0.9877 -0.7801 -0.0563
  152SAPE  H13X16935   4.757   2.405   8.804  0.2766 -0.1765  0.2460
  152SAPE  H13Y16936   4.743   2.585   8.847  0.8712 -1.1178 -0.3558
  152SAPE  C31416937   4.785   2.546   8.642 -0.0618  0.3726  0.8751
  152SAPE  H14X16938   4.765   2.652   8.615 -0.5062  0.1289  0.2184
  152SAPE  H14Y16939   4.742   2.485   8.560 -1.2093  2.0587  0.1737
  152SAPE  C31516940   4.934   2.530   8.657  0.6356 -0.7399 -0.2719
  152SAPE  H15X16941   4.950   2.459   8.741 -1.3546 -4.6948 -2.9413
  152SAPE  H15Y16942   4.973   2.631   8.685  2.5407 -0.8923 -2.1550
  152SAPE  C31616943   5.011   2.475   8.537 -0.6209 -0.6414  0.2242
  152SAPE  H16X16944   4.970   2.377   8.506  1.0416 -1.1178 -0.5748
  152SAPE  H16Y16945   5.118   2.466   8.564 -1.1105  0.2735  2.7456
  152SAPE  C31716946   5.007   2.569   8.415  0.2031  0.0584  0.1199
  152SAPE  H17X16947   4.903   2.579   8.376 -0.2945  0.9977  1.5919
  152SAPE  H17Y16948   5.057   2.526   8.326 -4.6704 -2.4954 -1.7700
  152SAPE  C31816949   5.089   2.691   8.448  0.4627 -0.2335 -0.2467
  152SAPE  H18X16950   5.107   2.742   8.351 -0.5779  1.9953  0.6524
  152SAPE  H18Y16951   5.189   2.665   8.490 -0.1119  0.6472  1.8200
  152SAPE  H18Z16952   5.029   2.750   8.521  0.8356  2.0008 -1.6511
  153SAPE     N16953   5.835   5.380  10.806  0.2551  0.2285  0.6956
  153SAPE   HN116954   5.760   5.318  10.843  1.2261 -1.9224 -0.7530
  153SAPE   HN216955   5.898   5.384  10.888  0.6143 -1.8939  0.5849
  153SAPE   HN316956   5.799   5.476  10.787 -1.1327  0.0311  2.0752
  153SAPE   C1216957   5.892   5.316  10.679  0.3203 -0.1442 -0.5461
  153SAPE  H12A16958   5.953   5.227  10.704  0.5160 -0.1723 -1.1195
  153SAPE  H12B16959   5.953   5.393  10.627  2.3624  0.0643  1.9405
  153SAPE   C1116960   5.777   5.264  10.588 -0.7951 -1.0461 -0.2943
  153SAPE  H11A16961   5.834   5.228  10.500 -0.2004  0.9309 -0.7694
  153SAPE  H11B16962   5.715   5.351  10.561 -0.0354  0.8227  3.2788
  153SAPE     P16963   5.653   5.020  10.588  0.2573 -0.1053  0.2444
  153SAPE   O1316964   5.740   4.920  10.652  0.2716  0.4638  0.4675
  153SAPE   O1416965   5.512   5.004  10.614 -0.4797 -0.0764  0.8624
  153SAPE   O1216966   5.704   5.156  10.647 -0.0638  0.4325 -0.1494
  153SAPE   O1116967   5.681   5.032  10.432  0.0220  0.2262 -0.5601
  153SAPE    C116968   5.697   4.905  10.370  0.6837 -0.4824  0.2810
  153SAPE    HA16969   5.641   4.823  10.421  0.4450 -0.4272  0.1069
  153SAPE    HB16970   5.653   4.905  10.268  0.1338 -0.3713  0.5129
  153SAPE    C216971   5.848   4.852  10.350  0.6491 -0.4807 -0.4248
  153SAPE    HS16972   5.905   4.877  10.442 -1.0050  1.0027  0.2505
  153SAPE   O2116973   5.902   4.917  10.231  0.3365 -0.6430 -0.1597
  153SAPE   C2116974   6.038   4.903  10.207  0.5043 -0.8172 -0.7383
  153SAPE   O2216975   6.109   4.857  10.291 -0.1900  0.3862  0.6093
  153SAPE   C2216976   6.077   4.942  10.062  0.0810 -0.0266  0.2774
  153SAPE   H2R16977   6.075   4.849  10.001  1.5486  1.3043 -1.9564
  153SAPE   H2S16978   5.999   5.013  10.027 -0.1061 -0.6730 -0.6403
  153SAPE    C316979   5.829   4.693  10.325 -0.8045 -0.0034 -0.0029
  153SAPE    HX16980   5.786   4.656  10.421  0.7737 -0.8945  0.3964
  153SAPE    HY16981   5.919   4.629  10.318 -1.2151 -0.5374 -0.4974
  153SAPE   O3116982   5.734   4.663  10.216 -0.0631 -0.0988 -0.0216
  153SAPE   C3116983   5.769   4.646  10.093  0.9253  0.1396 -0.5149
  153SAPE   O3216984   5.882   4.628  10.055 -0.2513 -0.5650 -0.1674
  153SAPE   C3216985   5.641   4.671  10.005 -0.6906 -0.1239 -0.5774
  153SAPE   H2X16986   5.618   4.780  10.000 -0.9284 -0.1679 -0.4439
  153SAPE   H2Y16987   5.556   4.616  10.050 -2.2113 -0.9089 -4.0824
  153SAPE   C2316988   6.220   5.000  10.050  0.1599  0.8622 -0.9823
  153SAPE   H3R16989   6.289   4.932  10.103 -1.4182 -0.5534 -0.7000
  153SAPE   H3S16990   6.223   5.098  10.102  1.2050  2.0252 -3.0589
  153SAPE   C2416991   6.268   5.010   9.912 -0.6738  0.2101  0.9536
  153SAPE   H4R16992   6.256   4.911   9.862 -0.9570  1.6663 -2.0733
  153SAPE   H4S16993   6.376   5.031   9.905 -0.4675 -1.1040 -0.3304
  153SAPE   C2516994   6.191   5.120   9.848  0.3966 -0.1633  0.3665
  153SAPE   H5R16995   6.186   5.215   9.903  0.1917  0.4992 -0.7619
  153SAPE   C2616996   6.132   5.105   9.726  0.6115  0.4798 -0.9935
  153SAPE   H6R16997   6.084   5.194   9.684  0.1051  0.4606 -0.4565
  153SAPE   C2716998   6.132   4.987   9.637 -0.1787 -0.1238 -0.1150
  153SAPE   H7R16999   6.117   4.893   9.696  4.1938 -0.5430  0.6807
  153SAPE   H7S17000   6.231   4.963   9.593  0.1989  2.9769 -1.1875
  153SAPE   C2817001   6.014   4.997   9.541  0.1280 -0.2675  0.3518
  153SAPE   H8R17002   5.929   5.053   9.582 -0.0792 -0.0541 -0.3593
  153SAPE   C2917003   6.007   4.935   9.423  0.4507  0.0631  0.4345
  153SAPE   H9R17004   5.928   4.966   9.354  0.2397 -0.7064  0.3221
  153SAPE  C21017005   6.111   4.844   9.366 -0.3057  0.0845 -0.4648
  153SAPE  H10R17006   6.153   4.788   9.452  0.5619  2.2075  0.5928
  153SAPE  H10S17007   6.193   4.896   9.311  0.2470  1.1468  1.2710
  153SAPE  C21117008   6.041   4.742   9.277 -0.6357 -0.6271 -0.3182
  153SAPE  H11R17009   5.984   4.664   9.330  1.9221 -1.9414  0.6882
  153SAPE  C21217010   6.020   4.751   9.143 -0.5379 -0.3665 -0.6711
  153SAPE  H12R17011   5.962   4.671   9.094  0.2034 -2.6521  1.9142
  153SAPE  C21317012   6.065   4.857   9.048 -0.1148 -0.6406  0.2248
  153SAPE  H13R17013   6.119   4.806   8.966  0.9991  0.1446  0.4452
  153SAPE  H13S17014   6.129   4.934   9.097 -1.4874  1.0000 -0.4788
  153SAPE  C21417015   5.947   4.937   8.988 -0.2609  0.1403 -0.7770
  153SAPE  H14R17016   5.933   5.037   9.031  2.7584  0.4998 -0.3774
  153SAPE  C21517017   5.858   4.891   8.894 -0.0083 -0.1840 -0.8488
  153SAPE  H15R17018   5.769   4.953   8.875  0.1992  0.1454 -0.7541
  153SAPE  C21617019   5.846   4.761   8.826 -0.2370 -0.0452  0.0335
  153SAPE  H16R17020   5.743   4.719   8.835 -0.4434  0.5147  0.2743
  153SAPE  H16S17021   5.918   4.688   8.868 -1.2039 -1.0326  0.0210
  153SAPE  C21717022   5.870   4.753   8.671 -0.1385  0.7432  0.7879
  153SAPE  H17R17023   5.861   4.646   8.640 -0.6599  1.1784 -0.6238
  153SAPE  H17S17024   5.971   4.794   8.652  0.0394 -0.5447 -1.3601
  153SAPE  C21817025   5.765   4.829   8.590  0.4220 -0.0734 -0.5613
  153SAPE  H18R17026   5.755   4.933   8.628  1.9970  1.2748 -3.5188
  153SAPE  H18S17027   5.669   4.778   8.612  0.6392 -1.0381 -1.7215
  153SAPE  C21917028   5.787   4.827   8.442  0.2706  0.3255  0.8302
  153SAPE  H19R17029   5.822   4.726   8.413 -1.1604  0.5504 -2.0483
  153SAPE  H19S17030   5.869   4.898   8.416 -0.7195  1.1092 -0.3083
  153SAPE  C22017031   5.666   4.853   8.354  0.2971  0.4268  0.0778
  153SAPE  H20R17032   5.585   4.781   8.374  0.2874  0.4498  0.1210
  153SAPE  H20S17033   5.690   4.853   8.245 -0.2531  0.5648 -0.0463
  153SAPE  H20T17034   5.614   4.950   8.370 -1.1230 -0.4716  1.0641
  153SAPE   C3317035   5.671   4.633   9.857 -0.1807  0.6665 -0.2725
  153SAPE   H3X17036   5.576   4.645   9.802 -0.1331 -0.0753 -0.5308
  153SAPE   H3Y17037   5.685   4.523   9.851  0.9943  0.7282  0.7974
  153SAPE   C3417038   5.769   4.721   9.789  0.3541 -0.1805 -0.2081
  153SAPE   H4X17039   5.871   4.676   9.795  0.2832 -0.6750 -2.0580
  153SAPE   H4Y17040   5.777   4.819   9.842 -0.3205 -0.3465  0.2131
  153SAPE   C3517041   5.738   4.745   9.637  0.1734  0.9550  0.5725
  153SAPE   H5X17042   5.829   4.786   9.589 -0.9066  1.8110 -0.8271
  153SAPE   H5Y17043   5.663   4.828   9.631  0.9536  1.8747  2.6032
  153SAPE   C3617044   5.702   4.621   9.543 -0.8875  0.1599 -0.2048
  153SAPE   H6X17045   5.612   4.562   9.569  1.1258 -2.1689  1.9837
  153SAPE   H6Y17046   5.787   4.550   9.542 -0.8162  0.2360  0.4101
  153SAPE   C3717047   5.692   4.666   9.399  0.7021  0.0061 -0.1393
  153SAPE   H7X17048   5.713   4.583   9.328  2.6743 -0.8892  1.3952
  153SAPE   H7Y17049   5.757   4.750   9.365  1.0941 -0.9377 -1.8670
  153SAPE   C3817050   5.544   4.700   9.360 -1.0212 -0.6057  0.0376
  153SAPE   H8X17051   5.510   4.778   9.431  0.9629 -0.6909  1.1801
  153SAPE   H8Y17052   5.480   4.609   9.362 -1.3825 -0.4086 -1.5175
  153SAPE   C3917053   5.535   4.772   9.224  0.5884 -0.1096  0.2739
  153SAPE   H9X17054   5.601   4.711   9.159  2.2141  0.0564  1.6843
  153SAPE   H9Y17055   5.566   4.878   9.232 -3.1489  1.0629  1.7753
  153SAPE  C31017056   5.384   4.785   9.187 -0.5930  0.4269  0.4141
  153SAPE  H10X17057   5.338   4.835   9.275  3.2499 -0.3636  3.0962
  153SAPE  H10Y17058   5.338   4.686   9.165 -0.6624  0.8079 -1.2970
  153SAPE  C31117059   5.372   4.866   9.057 -0.3052 -0.1175  0.4321
  153SAPE  H11X17060   5.432   4.817   8.978  1.3179 -0.7974  2.0235
  153SAPE  H11Y17061   5.406   4.971   9.072  0.8321 -0.3528 -0.4015
  153SAPE  C31217062   5.225   4.866   9.005 -0.5235  0.3254 -0.1393
  153SAPE  H12X17063   5.148   4.915   9.068 -1.4540 -1.3962  0.1204
  153SAPE  H12Y17064   5.190   4.762   9.016 -0.7710  0.6813  4.1852
  153SAPE  C31317065   5.222   4.920   8.857  0.5314 -0.4116  0.4583
  153SAPE  H13X17066   5.312   4.883   8.802 -0.3141 -0.7705 -0.7147
  153SAPE  H13Y17067   5.241   5.026   8.882 -2.5028  1.2952 -3.5043
  153SAPE  C31417068   5.085   4.898   8.790  0.4355  0.0765 -1.1233
  153SAPE  H14X17069   5.016   4.972   8.838 -0.0588  0.2537 -2.0929
  153SAPE  H14Y17070   5.038   4.798   8.800  1.5159 -0.4232 -0.9766
  153SAPE  C31517071   5.086   4.933   8.643 -0.2149  0.3386 -0.0412
  153SAPE  H15X17072   5.151   5.018   8.612  0.2476 -0.0097 -0.0428
  153SAPE  H15Y17073   4.982   4.966   8.621 -1.2016 -3.2388 -1.5535
  153SAPE  C31617074   5.103   4.812   8.551  0.2954 -0.2629  1.0412
  153SAPE  H16X17075   5.007   4.758   8.537  0.4876 -0.6839  1.3092
  153SAPE  H16Y17076   5.180   4.746   8.598 -0.9873 -1.3314  1.7016
  153SAPE  C31717077   5.156   4.861   8.406  0.1067  0.1533 -0.2347
  153SAPE  H17X17078   5.174   4.775   8.338 -1.8710  0.1895 -0.8767
  153SAPE  H17Y17079   5.254   4.914   8.408 -0.5548  1.7726 -3.4842
  153SAPE  C31817080   5.060   4.962   8.330 -0.3036 -0.0938 -0.2495
  153SAPE  H18X17081   4.960   4.915   8.318 -0.2871  0.0746 -1.1353
  153SAPE  H18Y17082   5.105   4.984   8.231  1.2401 -3.4285 -0.4303
  153SAPE  H18Z17083   5.049   5.055   8.390  1.2501 -0.0326 -0.0274
  154SAPE     N17084   0.409   4.174  10.602 -0.2505  0.8162  0.0101
  154SAPE   HN117085   0.431   4.273  10.626  1.3086  0.5921 -0.3926
  154SAPE   HN217086   0.319   4.139  10.643 -1.4296 -0.4456 -3.3354
  154SAPE   HN317087   0.488   4.108  10.615 -1.0687 -0.1780  0.1197
  154SAPE   C1217088   0.384   4.174  10.454  0.0578 -0.1268  0.4136
  154SAPE  H12A17089   0.368   4.069  10.423 -1.5079  0.0461  0.5422
  154SAPE  H12B17090   0.474   4.227  10.416 -0.8759  0.3135 -1.3189
  154SAPE   C1117091   0.271   4.273  10.433 -0.1918 -0.0915 -0.2873
  154SAPE  H11A17092   0.251   4.281  10.324  0.8239 -0.9191 -0.5413
  154SAPE  H11B17093   0.304   4.376  10.460 -1.7818  0.3358  0.1611
  154SAPE     P17094   0.103   4.312  10.631 -0.0727 -0.0313  0.1335
  154SAPE   O1317095  -0.006   4.224  10.685 -0.7835  0.3628 -0.1357
  154SAPE   O1417096   0.221   4.329  10.709  0.4037 -0.3038 -0.1952
  154SAPE   O1217097   0.142   4.246  10.493 -0.1162  0.2302  0.4102
  154SAPE   O1117098   0.056   4.451  10.586  0.4970  0.3715 -1.0547
  154SAPE    C117099  -0.074   4.469  10.528 -0.5395 -0.1494  0.4109
  154SAPE    HA17100  -0.133   4.375  10.521 -0.7388  0.0816 -1.3529
  154SAPE    HB17101  -0.128   4.544  10.589 -0.9839  0.0019 -0.1673
  154SAPE    C217102  -0.073   4.511  10.375  0.2052  0.3346  0.1420
  154SAPE    HS17103  -0.177   4.531  10.342  0.3983 -1.2342 -1.6311
  154SAPE   O2117104  -0.013   4.413  10.294  0.4307  0.0302  0.1302
  154SAPE   C2117105  -0.096   4.325  10.245 -0.0197 -0.2822 -0.4647
  154SAPE   O2217106  -0.217   4.323  10.262 -0.2783  0.4498  0.6456
  154SAPE   C2217107  -0.015   4.230  10.158  0.5619  0.2494 -0.1774
  154SAPE   H2R17108   0.054   4.178  10.228 -0.3073 -2.2091 -1.0247
  154SAPE   H2S17109  -0.087   4.154  10.119  0.1928  1.5589 -2.2110
  154SAPE    C317110   0.016   4.642  10.360 -0.0081 -0.1157 -0.1285
  154SAPE    HX17111   0.119   4.612  10.389 -0.6616 -3.0531 -0.4992
  154SAPE    HY17112  -0.030   4.717  10.428  2.6623 -0.0040  1.7355
  154SAPE   O3117113   0.029   4.686  10.221 -0.3455 -0.6792  0.0895
  154SAPE   C3117114  -0.058   4.778  10.186 -0.0818 -0.4793 -0.0550
  154SAPE   O3217115  -0.149   4.821  10.256 -0.3257 -0.2942  0.1029
  154SAPE   C3217116  -0.026   4.817  10.041  0.0078 -0.0673  0.1204
  154SAPE   H2X17117   0.067   4.768  10.005  0.0504  0.5783 -0.6771
  154SAPE   H2Y17118  -0.018   4.928  10.048  0.3056 -0.1766  2.6542
  154SAPE   C2317119   0.071   4.301  10.048 -0.3196 -0.1576  0.6195
  154SAPE   H3R17120   0.178   4.296  10.077 -0.1759  0.7585  0.2588
  154SAPE   H3S17121   0.038   4.405  10.029  1.0380  0.2160  0.2091
  154SAPE   C2417122   0.059   4.217   9.915  0.3572  0.0015 -0.6807
  154SAPE   H4R17123   0.065   4.108   9.937  2.4463  0.2912  0.4062
  154SAPE   H4S17124   0.155   4.227   9.859  1.9494 -3.1343  1.1885
  154SAPE   C2517125  -0.062   4.256   9.832 -0.8750  0.7593 -0.7055
  154SAPE   H5R17126  -0.156   4.264   9.888  0.1457  1.5698  0.9725
  154SAPE   C2617127  -0.063   4.269   9.695  0.0736  0.8065 -0.2527
  154SAPE   H6R17128  -0.161   4.297   9.653  0.1813 -1.2767 -2.1077
  154SAPE   C2717129   0.056   4.244   9.604  0.0964 -0.0517  0.6353
  154SAPE   H7R17130   0.140   4.306   9.642  1.8041 -2.2645  0.6826
  154SAPE   H7S17131   0.032   4.279   9.502 -0.6450  1.0808  1.1836
  154SAPE   C2817132   0.096   4.095   9.602  0.1428 -0.0543  0.2814
  154SAPE   H8R17133   0.050   4.042   9.687 -0.9515  1.1217  0.4513
  154SAPE   C2917134   0.170   4.028   9.512 -0.1033  0.2836 -0.3554
  154SAPE   H9R17135   0.190   3.920   9.520  1.9275  0.3771 -2.8887
  154SAPE  C21017136   0.232   4.087   9.390 -0.1526 -0.1246 -0.0779
  154SAPE  H10R17137   0.186   4.183   9.361  1.9334  1.0663  0.3147
  154SAPE  H10S17138   0.205   4.020   9.306  2.4183 -0.5604 -0.6382
  154SAPE  C21117139   0.380   4.108   9.403  0.4568 -0.0389  0.1597
  154SAPE  H11R17140   0.413   4.153   9.498 -1.4475  2.0851 -0.0951
  154SAPE  C21217141   0.463   4.128   9.299 -0.9971  0.0611 -0.1197
  154SAPE  H12R17142   0.571   4.139   9.314 -1.0206  0.1616 -0.0240
  154SAPE  C21317143   0.415   4.119   9.153 -0.6285  0.3207 -0.2643
  154SAPE  H13R17144   0.476   4.185   9.087  2.1521  0.3626  2.1619
  154SAPE  H13S17145   0.307   4.139   9.135 -1.0250  0.0612  1.6877
  154SAPE  C21417146   0.425   3.976   9.106  0.7259  0.2742 -0.3455
  154SAPE  H14R17147   0.426   3.900   9.186  0.4283 -0.2356 -0.8260
  154SAPE  C21517148   0.437   3.939   8.977 -0.0217 -0.2420 -0.1475
  154SAPE  H15R17149   0.444   3.832   8.952  1.5599  0.1238 -1.3918
  154SAPE  C21617150   0.438   4.033   8.855  0.3474  0.2397 -0.6467
  154SAPE  H16R17151   0.404   4.133   8.890  0.9528  0.7038 -1.3488
  154SAPE  H16S17152   0.362   3.996   8.783 -2.8190 -0.9473  2.9590
  154SAPE  C21717153   0.582   4.065   8.803  1.0201  0.1159 -0.7834
  154SAPE  H17R17154   0.628   3.987   8.738  1.3513 -1.8656  1.6700
  154SAPE  H17S17155   0.648   4.071   8.892  0.1652 -1.9111  0.0707
  154SAPE  C21817156   0.593   4.198   8.738 -0.4152 -0.8543 -0.1411
  154SAPE  H18R17157   0.556   4.273   8.811 -1.2354  0.0217 -1.4156
  154SAPE  H18S17158   0.522   4.178   8.655 -1.4457  0.2654  0.4403
  154SAPE  C21917159   0.735   4.233   8.692 -0.3313 -0.7348 -0.4866
  154SAPE  H19R17160   0.777   4.149   8.633  0.0715  1.1288 -3.0301
  154SAPE  H19S17161   0.796   4.246   8.783  1.8168 -0.5083 -1.8904
  154SAPE  C22017162   0.733   4.359   8.596 -0.2202  0.2239 -0.6567
  154SAPE  H20R17163   0.673   4.334   8.506 -1.3844  0.6548 -0.0116
  154SAPE  H20S17164   0.832   4.392   8.559  0.4276  1.4795  1.9466
  154SAPE  H20T17165   0.696   4.452   8.644  1.9743  1.1896 -0.7169
  154SAPE   C3317166  -0.143   4.786   9.947 -0.4364 -0.3656 -0.0595
  154SAPE   H3X17167  -0.239   4.817   9.992  0.1688  0.5599  0.6431
  154SAPE   H3Y17168  -0.145   4.676   9.935  0.6035 -0.6129  1.6732
  154SAPE   C3417169  -0.124   4.882   9.830  0.5880  0.7287 -0.0556
  154SAPE   H4X17170  -0.018   4.882   9.796  0.9168  0.3676  0.9490
  154SAPE   H4Y17171  -0.150   4.983   9.866  0.1087  0.8872 -0.8309
  154SAPE   C3517172  -0.220   4.855   9.713 -0.4402 -0.1555  0.1883
  154SAPE   H5X17173  -0.325   4.857   9.751  0.3302  0.9842  2.4601
  154SAPE   H5Y17174  -0.202   4.751   9.680  0.0083 -0.1007  0.2506
  154SAPE   C3617175  -0.200   4.954   9.601  0.4767 -0.4738 -0.2528
  154SAPE   H6X17176  -0.092   4.965   9.578  0.7723  0.6702  1.4490
  154SAPE   H6Y17177  -0.232   5.056   9.630  0.0761  0.2889 -3.1344
  154SAPE   C3717178  -0.265   4.908   9.470 -0.4469 -0.4669 -0.1814
  154SAPE   H7X17179  -0.375   4.911   9.486 -0.1509  0.6004  2.0693
  154SAPE   H7Y17180  -0.233   4.802   9.461 -2.0187 -1.2003  1.7979
  154SAPE   C3817181  -0.206   4.983   9.351 -0.5053 -0.9301 -0.2940
  154SAPE   H8X17182  -0.106   4.944   9.323 -0.5529  0.1237 -2.0255
  154SAPE   H8Y17183  -0.200   5.093   9.368  1.1449 -1.1612  0.8459
  154SAPE   C3917184  -0.294   4.968   9.229  0.2986 -0.0600  0.3234
  154SAPE   H9X17185  -0.397   5.004   9.248  0.2326  1.4739 -2.3889
  154SAPE   H9Y17186  -0.303   4.859   9.205 -0.4683 -0.4185  2.0689
  154SAPE  C31017187  -0.234   5.050   9.110  0.0283  0.0102  0.4542
  154SAPE  H10X17188  -0.130   5.027   9.081 -0.0315  2.5020 -2.0481
  154SAPE  H10Y17189  -0.226   5.157   9.138  1.3951 -0.5496  2.4692
  154SAPE  C31117190  -0.320   5.023   8.985  0.2251 -0.2091  0.1657
  154SAPE  H11X17191  -0.420   5.050   9.024  0.3018  0.4028 -0.0463
  154SAPE  H11Y17192  -0.325   4.913   8.968  0.2974 -0.0466 -1.0024
  154SAPE  C31217193  -0.285   5.119   8.873  0.1199  0.2134  0.7398
  154SAPE  H12X17194  -0.178   5.129   8.847  0.4629 -1.5090  1.3230
  154SAPE  H12Y17195  -0.318   5.217   8.914 -1.9061 -0.6889  1.4291
  154SAPE  C31317196  -0.375   5.103   8.748  0.9166 -0.2798 -0.1664
  154SAPE  H13X17197  -0.481   5.079   8.772  0.7101  0.7239 -0.0472
  154SAPE  H13Y17198  -0.348   5.011   8.691 -2.3320  0.0928 -2.5626
  154SAPE  C31417199  -0.379   5.228   8.654 -0.5744  0.5709  0.4784
  154SAPE  H14X17200  -0.279   5.218   8.606 -1.1376  1.1671 -0.8639
  154SAPE  H14Y17201  -0.381   5.324   8.710 -1.5084  2.0298 -1.9111
  154SAPE  C31517202  -0.503   5.221   8.564 -0.1522  0.3373  0.0005
  154SAPE  H15X17203  -0.529   5.114   8.546 -0.1739  0.1794  0.9369
  154SAPE  H15Y17204  -0.461   5.265   8.471  0.3811  2.6284  1.2498
  154SAPE  C31617205  -0.605   5.305   8.624  1.0368  0.0443 -0.5847
  154SAPE  H16X17206  -0.556   5.403   8.642 -0.0444  0.5251 -0.2120
  154SAPE  H16Y17207  -0.646   5.258   8.716 -1.2130  1.1336 -0.9826
  154SAPE  C31717208  -0.732   5.310   8.541 -1.0010 -0.4407  0.4243
  154SAPE  H17X17209  -0.698   5.344   8.440 -1.1654 -1.5179 -0.0095
  154SAPE  H17Y17210  -0.799   5.387   8.586 -1.4392  0.1157 -1.1025
  154SAPE  C31817211  -0.799   5.174   8.531 -0.0229 -0.5018  0.2142
  154SAPE  H18X17212  -0.876   5.190   8.452 -0.9482  1.4749  1.4311
  154SAPE  H18Y17213  -0.846   5.150   8.629  1.0830 -0.3925  0.7899
  154SAPE  H18Z17214  -0.721   5.098   8.510 -0.0927 -1.0983  1.9661
  155SAPE     N17215   0.329   6.168  10.734 -0.0599 -0.3773  0.9092
  155SAPE   HN117216   0.303   6.234  10.658  1.5959  2.7706  2.8592
  155SAPE   HN217217   0.423   6.205  10.760 -0.3371  0.0956  1.2471
  155SAPE   HN317218   0.340   6.069  10.702 -1.2473  0.0624 -1.0757
  155SAPE   C1217219   0.226   6.171  10.842 -0.2196 -0.4085  0.5512
  155SAPE  H12A17220   0.127   6.135  10.806  0.1269 -0.2935 -0.5782
  155SAPE  H12B17221   0.214   6.276  10.876  2.9212 -0.4318  2.0693
  155SAPE   C1117222   0.271   6.088  10.965 -0.1837  0.5038 -0.1811
  155SAPE  H11A17223   0.193   6.072  11.042  0.3806 -1.7361 -0.0290
  155SAPE  H11B17224   0.359   6.142  11.007 -0.3942  1.6273 -1.1415
  155SAPE     P17225   0.232   5.832  10.890  0.2011 -0.2843  0.2142
  155SAPE   O1317226   0.299   5.710  10.933  0.9269 -0.2821  0.4044
  155SAPE   O1417227   0.088   5.842  10.943 -0.5651 -0.0651 -0.2778
  155SAPE   O1217228   0.316   5.956  10.924  0.0367  0.1944 -0.0361
  155SAPE   O1117229   0.229   5.841  10.730  0.2530 -0.3997 -0.5734
  155SAPE    C117230   0.104   5.817  10.663 -0.2281 -0.1573 -0.0167
  155SAPE    HA17231   0.078   5.709  10.676 -2.0184  0.3295  0.8121
  155SAPE    HB17232   0.025   5.887  10.698  0.7355  2.4713 -2.6470
  155SAPE    C217233   0.117   5.843  10.512  0.1409 -0.3203  0.0494
  155SAPE    HS17234   0.019   5.821  10.465  0.8416  0.9858 -2.1689
  155SAPE   O2117235   0.226   5.780  10.441  0.2438  0.5298  0.1331
  155SAPE   C2117236   0.216   5.650  10.411  0.3248  0.7536  0.2262
  155SAPE   O2217237   0.118   5.578  10.437 -0.3761  0.3284  0.1601
  155SAPE   C2217238   0.338   5.601  10.335 -0.2193  0.7770 -0.0304
  155SAPE   H2R17239   0.324   5.632  10.229  1.6237 -1.4246 -0.9930
  155SAPE   H2S17240   0.436   5.638  10.372  1.3552 -1.9850 -1.1451
  155SAPE    C317241   0.141   5.996  10.488 -0.2758  0.8693  0.4421
  155SAPE    HX17242   0.246   6.011  10.523  0.2451  3.8530 -1.9681
  155SAPE    HY17243   0.079   6.058  10.556 -0.9732  1.3656 -0.6282
  155SAPE   O3117244   0.126   6.032  10.353 -0.0798 -0.4391 -0.1753
  155SAPE   C3117245   0.006   6.074  10.303  0.4595 -0.3816  0.1397
  155SAPE   O3217246  -0.100   6.045  10.353  0.3345  0.1091  0.2209
  155SAPE   C3217247   0.032   6.150  10.174 -0.7208  0.8910 -0.0882
  155SAPE   H2X17248   0.135   6.191  10.176 -0.2677 -0.1258 -1.2242
  155SAPE   H2Y17249  -0.035   6.239  10.184 -0.5448  0.8277  2.0753
  155SAPE   C2317250   0.359   5.444  10.317 -0.4384 -0.5765 -0.0317
  155SAPE   H3R17251   0.264   5.407  10.274 -1.2176  1.3973 -0.1148
  155SAPE   H3S17252   0.368   5.393  10.415  0.0902 -1.1488 -0.3704
  155SAPE   C2417253   0.485   5.410  10.226 -0.3843 -0.4584  0.2770
  155SAPE   H4R17254   0.488   5.300  10.243  0.1944 -0.7193 -1.3419
  155SAPE   H4S17255   0.573   5.459  10.273  1.5919 -1.8744 -1.7343
  155SAPE   C2517256   0.466   5.445  10.081  0.0807 -0.0509 -0.1285
  155SAPE   H5R17257   0.364   5.429  10.043 -0.0523  0.2353  0.1057
  155SAPE   C2617258   0.561   5.491   9.999 -0.8914 -0.8980  0.4570
  155SAPE   H6R17259   0.523   5.513   9.898  1.1599 -0.1029 -0.2132
  155SAPE   C2717260   0.712   5.511  10.017  0.4989  0.8374 -0.6135
  155SAPE   H7R17261   0.768   5.484   9.925  0.1280  0.7567 -0.8163
  155SAPE   H7S17262   0.736   5.442  10.100  1.2220  1.3057 -0.4261
  155SAPE   C2817263   0.755   5.648  10.067 -0.6217  0.5894  0.3422
  155SAPE   H8R17264   0.750   5.670  10.174  0.3242 -0.5762  0.6503
  155SAPE   C2917265   0.776   5.749   9.980 -0.2850  0.2392 -0.4083
  155SAPE   H9R17266   0.794   5.851  10.017 -0.0702 -0.4545  1.5189
  155SAPE  C21017267   0.759   5.752   9.834 -0.0722 -0.2228 -0.4873
  155SAPE  H10R17268   0.653   5.777   9.812  0.1645  1.0576 -0.2682
  155SAPE  H10S17269   0.787   5.650   9.800  0.0713 -0.7072  1.0298
  155SAPE  C21117270   0.848   5.844   9.755  0.8213 -0.1852  0.3186
  155SAPE  H11R17271   0.941   5.869   9.808  1.8682 -1.6778 -0.7400
  155SAPE  C21217272   0.831   5.881   9.625  0.2856 -0.0380 -0.1121
  155SAPE  H12R17273   0.899   5.956   9.585  0.6546 -0.4067 -0.1816
  155SAPE  C21317274   0.721   5.831   9.523  0.2151  0.2284 -0.0090
  155SAPE  H13R17275   0.659   5.920   9.502  0.4634  0.4714  0.2742
  155SAPE  H13S17276   0.670   5.754   9.584  0.5622  0.0339  0.0394
  155SAPE  C21417277   0.774   5.783   9.384  0.4126 -0.2260  0.1430
  155SAPE  H14R17278   0.795   5.675   9.383 -3.5096 -1.1493 -0.2767
  155SAPE  C21517279   0.795   5.854   9.270  0.3941  0.4242 -1.0528
  155SAPE  H15R17280   0.843   5.803   9.185  1.5379 -1.0283  0.4085
  155SAPE  C21617281   0.760   6.001   9.255 -0.8456 -0.5664 -0.3322
  155SAPE  H16R17282   0.802   6.039   9.350  1.7111 -2.6753 -0.4865
  155SAPE  H16S17283   0.653   6.028   9.257 -0.5630  0.5963  0.0779
  155SAPE  C21717284   0.823   6.067   9.138  0.1702 -0.0193  0.3132
  155SAPE  H17R17285   0.930   6.038   9.137 -0.3137 -1.9347  0.2025
  155SAPE  H17S17286   0.806   6.177   9.146 -1.8675  0.0103 -2.5831
  155SAPE  C21817287   0.779   6.024   8.997  0.1196 -0.1715  0.2755
  155SAPE  H18R17288   0.800   5.916   8.979  2.8273  0.0929  1.4042
  155SAPE  H18S17289   0.845   6.067   8.919 -1.1505 -0.8846 -1.2555
  155SAPE  C21917290   0.625   6.054   8.969 -0.0531 -0.0675 -0.0984
  155SAPE  H19R17291   0.557   5.991   9.030  0.8883  0.1038  1.1696
  155SAPE  H19S17292   0.590   6.021   8.868 -0.5945  1.8889 -0.5871
  155SAPE  C22017293   0.587   6.199   8.970  0.5673 -1.0215 -0.4578
  155SAPE  H20R17294   0.672   6.268   8.949 -0.6312  1.5256  2.3259
  155SAPE  H20S17295   0.556   6.242   9.068  0.6248 -0.5853 -0.6242
  155SAPE  H20T17296   0.507   6.225   8.898 -0.7315  1.2802  1.6390
  155SAPE   C3317297  -0.009   6.068  10.049 -0.1860 -0.4084 -0.0503
  155SAPE   H3X17298  -0.110   6.023  10.063 -0.7919  1.0594  0.4752
  155SAPE   H3Y17299   0.056   5.981  10.025  0.4317  0.4181 -1.4719
  155SAPE   C3417300  -0.028   6.168   9.932 -0.3937  0.1972  0.0716
  155SAPE   H4X17301   0.070   6.220   9.926 -0.6326  1.1545  2.9630
  155SAPE   H4Y17302  -0.096   6.252   9.957  0.4088  1.2580 -1.1709
  155SAPE   C3517303  -0.074   6.101   9.813 -0.2604  0.6634  0.4326
  155SAPE   H5X17304  -0.178   6.065   9.829 -0.2306  0.2609 -0.2244
  155SAPE   H5Y17305  -0.008   6.015   9.790 -3.0337 -1.7235  0.6734
  155SAPE   C3617306  -0.075   6.196   9.694  0.3517 -0.3310  0.5577
  155SAPE   H6X17307   0.009   6.266   9.713  0.8004  0.1213 -2.5774
  155SAPE   H6Y17308  -0.170   6.254   9.692 -1.6560 -3.3576  0.8791
  155SAPE   C3717309  -0.052   6.129   9.560  0.7970  0.1113 -0.2602
  155SAPE   H7X17310  -0.131   6.052   9.549  1.0781 -0.3356  0.7465
  155SAPE   H7Y17311   0.045   6.075   9.561  0.9330  0.3190 -1.3784
  155SAPE   C3817312  -0.063   6.218   9.439  0.1032  0.3108  0.1694
  155SAPE   H8X17313  -0.053   6.150   9.352 -0.6025  0.9487 -0.4176
  155SAPE   H8Y17314   0.021   6.291   9.437  1.6963 -1.4345  0.4222
  155SAPE   C3917315  -0.204   6.285   9.442 -0.0558  0.2524  0.9329
  155SAPE   H9X17316  -0.201   6.357   9.526  1.4734  1.1051  0.1920
  155SAPE   H9Y17317  -0.283   6.210   9.467 -0.0379  0.6507  2.2486
  155SAPE  C31017318  -0.248   6.338   9.299  0.7954  0.2034  0.2161
  155SAPE  H10X17319  -0.175   6.409   9.253 -0.5485  0.8946 -0.9191
  155SAPE  H10Y17320  -0.345   6.391   9.306 -0.6567 -2.2728 -0.0519
  155SAPE  C31117321  -0.263   6.222   9.192 -0.0184  0.2240 -0.1763
  155SAPE  H11X17322  -0.297   6.134   9.250  0.4325  0.0902 -0.1129
  155SAPE  H11Y17323  -0.159   6.198   9.162 -0.1930 -0.9445  0.1211
  155SAPE  C31217324  -0.339   6.258   9.067  0.3776  0.0661  0.6647
  155SAPE  H12X17325  -0.297   6.345   9.011 -0.3187  0.1990  0.3373
  155SAPE  H12Y17326  -0.442   6.283   9.101  0.4117  1.3689 -0.1055
  155SAPE  C31317327  -0.348   6.137   8.971 -0.2860  0.0875  0.0223
  155SAPE  H13X17328  -0.418   6.159   8.887  2.6933 -0.2082 -2.7141
  155SAPE  H13Y17329  -0.383   6.046   9.023 -0.8026 -0.6603 -1.5499
  155SAPE  C31417330  -0.208   6.108   8.913 -0.1939 -0.1683 -0.0396
  155SAPE  H14X17331  -0.146   6.069   8.996  0.7425  0.1517 -0.5830
  155SAPE  H14Y17332  -0.174   6.202   8.865 -0.0357 -0.9033 -1.4082
  155SAPE  C31517333  -0.218   6.013   8.789  1.0893 -0.3500 -0.1536
  155SAPE  H15X17334  -0.303   6.042   8.723 -0.0661 -1.2443  0.8790
  155SAPE  H15Y17335  -0.251   5.911   8.820  0.0973 -0.2439 -0.8018
  155SAPE  C31617336  -0.092   5.994   8.715 -0.2285 -0.2244 -0.2313
  155SAPE  H16X17337  -0.004   5.977   8.780  2.1835  0.4891 -3.0927
  155SAPE  H16Y17338  -0.083   6.085   8.652  0.6394  0.5650  1.0005
  155SAPE  C31717339  -0.106   5.880   8.614  0.1479  0.2768 -0.6384
  155SAPE  H17X17340  -0.197   5.880   8.550  0.3050 -0.9932 -0.8980
  155SAPE  H17Y17341  -0.117   5.796   8.686  3.2498  2.8131  3.1909
  155SAPE  C31817342   0.022   5.869   8.530  0.0670  0.6062  0.0376
  155SAPE  H18X17343   0.013   5.769   8.483  0.0785  1.0618 -0.9417
  155SAPE  H18Y17344   0.113   5.863   8.594  1.6538 -0.3112 -2.1931
  155SAPE  H18Z17345   0.029   5.952   8.457  0.0076  0.9290  0.3941
  156SAPE     N17346   4.872   4.238  10.606 -0.1774  0.4070  0.7383
  156SAPE   HN117347   4.816   4.156  10.576  0.2441  1.1101 -2.3478
  156SAPE   HN217348   4.954   4.205  10.661  0.8331  1.5446 -0.0392
  156SAPE   HN317349   4.810   4.292  10.670 -3.4015 -0.3528 -1.5086
  156SAPE   C1217350   4.918   4.327  10.495  0.4910 -0.2483 -0.7064
  156SAPE  H12A17351   4.829   4.331  10.428 -0.5948 -2.7616  0.4410
  156SAPE  H12B17352   5.003   4.283  10.438  1.8320 -0.0971  1.0965
  156SAPE   C1117353   4.935   4.467  10.560  0.3340 -0.2464  0.3742
  156SAPE  H11A17354   4.833   4.489  10.598 -0.5778 -2.4623 -0.5950
  156SAPE  H11B17355   4.957   4.548  10.487  0.5174 -1.2893 -0.7609
  156SAPE     P17356   5.184   4.463  10.650  0.3364 -0.0725  0.1398
  156SAPE   O1317357   5.239   4.598  10.666 -0.0624 -0.0607  0.1051
  156SAPE   O1417358   5.232   4.358  10.739 -0.3159  0.1367 -0.0914
  156SAPE   O1217359   5.029   4.468  10.667  0.1025  0.0454 -0.3413
  156SAPE   O1117360   5.210   4.411  10.501 -0.5823  0.2326  0.2341
  156SAPE    C117361   5.262   4.506  10.401 -0.2705  0.5141  0.5549
  156SAPE    HA17362   5.168   4.551  10.362 -0.7646  0.9302  2.1204
  156SAPE    HB17363   5.326   4.589  10.440  0.4624  0.6126 -0.7933
  156SAPE    C217364   5.348   4.445  10.283 -0.6595  0.5502 -0.7089
  156SAPE    HS17365   5.371   4.524  10.209  1.9148  0.5545  0.0012
  156SAPE   O2117366   5.281   4.334  10.223 -0.3488  0.5061 -0.3680
  156SAPE   C2117367   5.195   4.365  10.128  0.1736 -0.4227 -0.3978
  156SAPE   O2217368   5.177   4.473  10.075 -0.0313 -0.4424 -0.3515
  156SAPE   C2217369   5.115   4.239  10.098  0.1944  0.2863 -0.2659
  156SAPE   H2R17370   5.170   4.151  10.137 -1.3179 -1.0611 -1.0876
  156SAPE   H2S17371   5.019   4.240  10.153 -0.5461 -1.1264 -1.4445
  156SAPE    C317372   5.489   4.416  10.334 -0.7278  0.0347 -0.0123
  156SAPE    HX17373   5.492   4.323  10.394 -2.2051 -1.2370 -1.7552
  156SAPE    HY17374   5.538   4.501  10.386  0.9258  0.0073 -1.4237
  156SAPE   O3117375   5.578   4.400  10.223  0.3910 -0.2494 -0.5333
  156SAPE   C3117376   5.607   4.280  10.172 -0.3467 -0.5404 -0.5285
  156SAPE   O3217377   5.554   4.172  10.200 -0.4663  0.0113  0.1641
  156SAPE   C3217378   5.720   4.290  10.070 -0.4652  0.2554  0.5592
  156SAPE   H2X17379   5.793   4.365  10.108  2.4378 -1.9345 -0.3151
  156SAPE   H2Y17380   5.678   4.314   9.970 -1.2981 -1.0208  0.5929
  156SAPE   C2317381   5.105   4.211   9.944  0.6462 -0.5714 -0.8910
  156SAPE   H3R17382   5.208   4.196   9.906  1.3201 -0.4780  0.7945
  156SAPE   H3S17383   5.069   4.299   9.887  1.2727 -0.4187 -1.0583
  156SAPE   C2417384   5.026   4.082   9.912  0.3404 -0.4908  0.5114
  156SAPE   H4R17385   5.058   3.997   9.975  3.2238  0.0554 -0.0579
  156SAPE   H4S17386   5.051   4.040   9.812 -0.1781 -1.1441  0.6532
  156SAPE   C2517387   4.882   4.113   9.926  0.3018 -0.7314 -0.8274
  156SAPE   H5R17388   4.854   4.151  10.026  0.1793 -3.7745  0.3893
  156SAPE   C2617389   4.781   4.114   9.839  0.1878 -0.4370 -0.3182
  156SAPE   H6R17390   4.678   4.145   9.864  1.0704  1.3559  1.3213
  156SAPE   C2717391   4.788   4.069   9.694 -0.6392  0.0457 -0.0318
  156SAPE   H7R17392   4.821   3.963   9.693  0.5987  0.4123 -0.7630
  156SAPE   H7S17393   4.864   4.134   9.644 -0.0604 -0.4774  0.1574
  156SAPE   C2817394   4.668   4.076   9.611  0.1745 -0.4595 -0.1217
  156SAPE   H8R17395   4.570   4.100   9.655 -0.2296  0.0397 -1.2519
  156SAPE   C2917396   4.655   4.047   9.480 -0.4699 -0.4383  0.1823
  156SAPE   H9R17397   4.561   4.072   9.429  0.7154  0.8589 -1.4985
  156SAPE  C21017398   4.758   3.992   9.387 -0.5797  0.5150  0.2114
  156SAPE  H10R17399   4.841   4.066   9.384  1.8822 -2.0827 -0.9523
  156SAPE  H10S17400   4.727   4.004   9.281  0.5707 -2.4956 -0.5931
  156SAPE  C21117401   4.827   3.858   9.405  0.1527  0.2768 -0.3974
  156SAPE  H11R17402   4.794   3.814   9.500 -3.0556  2.4120 -0.3897
  156SAPE  C21217403   4.907   3.787   9.323  0.1945  0.5363 -0.2671
  156SAPE  H12R17404   4.938   3.685   9.349  1.2871  0.9664  0.1593
  156SAPE  C21317405   4.951   3.836   9.187 -0.6159  0.2071  0.3696
  156SAPE  H13R17406   5.048   3.785   9.171 -0.4003  0.2289  1.5081
  156SAPE  H13S17407   4.977   3.944   9.180 -0.7535  0.2178 -0.0290
  156SAPE  C21417408   4.849   3.806   9.086  0.1624  0.4364  0.8380
  156SAPE  H14R17409   4.762   3.874   9.088  0.2706  0.5587  1.5137
  156SAPE  C21517410   4.838   3.704   9.001  0.3668 -0.2644 -0.2685
  156SAPE  H15R17411   4.754   3.708   8.931  0.5571  1.2720 -0.4403
  156SAPE  C21617412   4.933   3.590   8.991 -0.4019 -0.1332 -1.0283
  156SAPE  H16R17413   5.037   3.629   8.994  0.4404 -2.2544  0.3296
  156SAPE  H16S17414   4.930   3.541   8.892 -1.1324  1.2368 -1.7119
  156SAPE  C21717415   4.927   3.477   9.091  0.0301  0.5405 -0.0506
  156SAPE  H17R17416   4.880   3.387   9.045  0.0505  1.6376 -2.3877
  156SAPE  H17S17417   4.862   3.502   9.177  1.3854 -0.8477  1.4443
  156SAPE  C21817418   5.077   3.440   9.129  1.0578 -0.4384  0.1035
  156SAPE  H18R17419   5.127   3.536   9.154 -1.5342  0.7553  1.1787
  156SAPE  H18S17420   5.122   3.396   9.038 -1.3438 -1.5940 -0.6216
  156SAPE  C21917421   5.094   3.338   9.236 -0.2394  0.2221 -0.6033
  156SAPE  H19R17422   5.196   3.342   9.280 -0.2721  0.9338 -0.5767
  156SAPE  H19S17423   5.082   3.236   9.194  0.0090 -0.9953  2.0654
  156SAPE  C22017424   4.988   3.351   9.348 -0.1603 -0.2781  0.1299
  156SAPE  H20R17425   4.999   3.448   9.401 -0.2504  0.7682 -1.6946
  156SAPE  H20S17426   4.999   3.264   9.416  0.3667 -0.5518 -0.2961
  156SAPE  H20T17427   4.885   3.349   9.309  0.3418  2.4447 -1.6189
  156SAPE   C3317428   5.788   4.154  10.058 -0.5313  0.1193  0.0303
  156SAPE   H3X17429   5.736   4.083   9.989 -0.0968 -1.4868  1.2869
  156SAPE   H3Y17430   5.798   4.111  10.160 -1.7141  2.0631  1.0269
  156SAPE   C3417431   5.927   4.169   9.994  0.1599 -0.4681  0.0983
  156SAPE   H4X17432   5.990   4.079  10.011  1.3936  0.1301 -1.0672
  156SAPE   H4Y17433   5.986   4.260  10.020 -0.3551 -0.0262 -0.2742
  156SAPE   C3517434   5.907   4.170   9.835 -0.6513  0.4188 -0.8581
  156SAPE   H5X17435   5.825   4.244   9.827 -1.0074  0.2885  1.0933
  156SAPE   H5Y17436   5.884   4.068   9.797  0.7131  0.4430 -1.8240
  156SAPE   C3617437   6.036   4.210   9.770 -0.6257 -0.1975  0.7157
  156SAPE   H6X17438   6.119   4.149   9.813  1.4093  0.6898 -1.6835
  156SAPE   H6Y17439   6.065   4.309   9.811  0.4332 -0.2433  0.1323
  156SAPE   C3717440   6.047   4.203   9.617  1.0344  0.2203  0.5061
  156SAPE   H7X17441   5.999   4.107   9.591 -2.5439  2.2199 -0.9890
  156SAPE   H7Y17442   6.151   4.219   9.581  0.9182  1.8029  0.7914
  156SAPE   C3817443   5.943   4.306   9.551  0.0961  0.0481  0.7083
  156SAPE   H8X17444   5.957   4.407   9.596 -0.2126  1.5165 -2.2146
  156SAPE   H8Y17445   5.838   4.274   9.563 -0.0660  0.0119 -0.6161
  156SAPE   C3917446   5.960   4.324   9.401  0.5658 -0.0813 -0.1082
  156SAPE   H9X17447   6.063   4.362   9.384  1.0209 -1.1211  0.2536
  156SAPE   H9Y17448   5.891   4.405   9.370  0.0453 -0.1914  0.7386
  156SAPE  C31017449   5.924   4.197   9.315  0.4428 -0.5161  0.1578
  156SAPE  H10X17450   5.816   4.172   9.324  0.5847 -0.6837  1.7140
  156SAPE  H10Y17451   5.996   4.113   9.327  1.5251  0.4729  0.8254
  156SAPE  C31117452   5.962   4.216   9.163 -0.1680  0.6120 -0.4918
  156SAPE  H11X17453   5.932   4.316   9.125  3.7786  1.7274 -1.1977
  156SAPE  H11Y17454   5.905   4.144   9.101  0.3668 -0.9740  0.7809
  156SAPE  C31217455   6.111   4.200   9.144  0.6090 -0.3054  0.1433
  156SAPE  H12X17456   6.137   4.092   9.146 -1.6343 -0.9565 -1.4188
  156SAPE  H12Y17457   6.162   4.266   9.218 -5.0866  3.4264  1.3786
  156SAPE  C31317458   6.154   4.257   9.007  0.2796  0.6391 -0.7948
  156SAPE  H13X17459   6.140   4.368   9.007 -2.1067  0.4305  0.9590
  156SAPE  H13Y17460   6.083   4.226   8.927  0.1484  0.9114 -0.7868
  156SAPE  C31417461   6.299   4.234   8.965 -0.2263  0.1054  0.4314
  156SAPE  H14X17462   6.365   4.274   9.045  0.9444 -1.3302  0.2235
  156SAPE  H14Y17463   6.326   4.303   8.881  2.0666 -0.1162  0.9181
  156SAPE  C31517464   6.344   4.097   8.922 -0.2804  0.1065 -0.5745
  156SAPE  H15X17465   6.322   4.023   9.002  1.0105  2.0982  1.7524
  156SAPE  H15Y17466   6.454   4.095   8.914  0.2001 -0.1212  3.7166
  156SAPE  C31617467   6.268   4.037   8.799  0.0089  0.0213 -0.3553
  156SAPE  H16X17468   6.280   4.107   8.713  0.6229  0.9468  0.4567
  156SAPE  H16Y17469   6.158   4.033   8.810 -0.2227  3.3011 -0.3592
  156SAPE  C31717470   6.329   3.898   8.763 -0.0766 -0.2158 -0.7283
  156SAPE  H17X17471   6.258   3.835   8.706 -0.5701  1.1894 -1.7167
  156SAPE  H17Y17472   6.356   3.844   8.856 -3.9247  0.9729  1.2760
  156SAPE  C31817473   6.462   3.902   8.684 -0.3266  0.7451 -0.2811
  156SAPE  H18X17474   6.444   3.940   8.581 -0.8129 -0.7263 -0.7626
  156SAPE  H18Y17475   6.502   3.799   8.686  1.1381  1.2828 -0.6715
  156SAPE  H18Z17476   6.538   3.964   8.736  1.3483 -0.5863 -1.0595
  157SAPE     N17477   3.993   2.304  10.808  0.5234  0.8165  0.4915
  157SAPE   HN117478   4.034   2.224  10.860 -1.4108 -0.3408  0.3517
  157SAPE   HN217479   4.021   2.389  10.861  1.9237  1.9510 -1.8573
  157SAPE   HN317480   3.890   2.294  10.796  0.7133  1.3608 -2.4166
  157SAPE   C1217481   4.036   2.310  10.660  0.5427  0.0150  0.5357
  157SAPE  H12A17482   4.145   2.293  10.655  0.9740  2.0725  1.8361
  157SAPE  H12B17483   4.019   2.410  10.616  0.5771 -1.2818 -2.6736
  157SAPE   C1117484   3.958   2.207  10.576  0.3998  0.6093  1.1663
  157SAPE  H11A17485   4.007   2.107  10.582 -0.6611 -0.1403 -1.3883
  157SAPE  H11B17486   3.942   2.232  10.469 -2.3541 -4.8348 -0.0635
  157SAPE     P17487   3.713   2.316  10.604 -0.0581 -0.1064  0.1349
  157SAPE   O1317488   3.573   2.272  10.585 -0.2602  0.0237  0.1530
  157SAPE   O1417489   3.741   2.377  10.737 -0.2034  0.1789 -0.3103
  157SAPE   O1217490   3.816   2.201  10.609 -0.2136 -0.6327  0.5995
  157SAPE   O1117491   3.768   2.405  10.492 -0.2730  0.1150  0.6368
  157SAPE    C117492   3.757   2.372  10.351 -0.0848 -0.1473 -0.7195
  157SAPE    HA17493   3.851   2.397  10.297  0.4136 -4.2360 -2.0706
  157SAPE    HB17494   3.751   2.262  10.337  0.1267 -0.9851  4.2275
  157SAPE    C217495   3.638   2.440  10.286 -0.1476  0.6577 -0.3521
  157SAPE    HS17496   3.557   2.421  10.360  1.7120  0.1800  1.6402
  157SAPE   O2117497   3.623   2.369  10.163 -0.0520 -0.0973  0.6091
  157SAPE   C2117498   3.511   2.398  10.102  0.3276 -0.1502  0.4137
  157SAPE   O2217499   3.413   2.462  10.149 -0.1350 -0.1110 -0.4500
  157SAPE   C2217500   3.518   2.349   9.961 -0.3829  0.4615 -0.1398
  157SAPE   H2R17501   3.523   2.439   9.897  0.9035  0.5414  0.0536
  157SAPE   H2S17502   3.613   2.293   9.951  0.0774  0.6337  2.4761
  157SAPE    C317503   3.664   2.589  10.264 -0.6646 -0.2812 -0.4793
  157SAPE    HX17504   3.668   2.637  10.364 -2.0529  1.9665 -1.4135
  157SAPE    HY17505   3.586   2.651  10.214 -0.3449  0.4215 -0.1212
  157SAPE   O3117506   3.795   2.610  10.201 -0.2234  0.6135  0.0618
  157SAPE   C3117507   3.802   2.667  10.086 -0.5092  0.7614 -0.1356
  157SAPE   O3217508   3.705   2.698  10.014 -0.1615  1.0792  0.2756
  157SAPE   C3217509   3.946   2.684  10.054 -0.1433 -0.6021  0.5036
  157SAPE   H2X17510   3.990   2.582  10.054 -2.3864 -1.6553 -0.7210
  157SAPE   H2Y17511   3.985   2.735  10.144 -0.5135 -0.7835  0.7692
  157SAPE   C2317512   3.398   2.261   9.928  0.0925  0.8405  0.2574
  157SAPE   H3R17513   3.372   2.193  10.012 -0.5802  0.0621 -0.5548
  157SAPE   H3S17514   3.433   2.192   9.848  2.1649  2.6348 -0.4851
  157SAPE   C2417515   3.282   2.346   9.875 -0.0161  0.7235 -0.1022
  157SAPE   H4R17516   3.307   2.451   9.850  1.5261  0.5124  0.3854
  157SAPE   H4S17517   3.227   2.337   9.971 -0.7697 -1.3727 -0.6762
  157SAPE   C2517518   3.204   2.275   9.766  0.2014  0.2493  0.2605
  157SAPE   H5R17519   3.127   2.209   9.808  0.3474  0.3937  0.7731
  157SAPE   C2617520   3.235   2.255   9.637 -0.0933 -0.3546 -0.1441
  157SAPE   H6R17521   3.174   2.190   9.573  1.2707 -2.2431  0.3732
  157SAPE   C2717522   3.352   2.326   9.573  0.8633  0.2463 -0.5827
  157SAPE   H7R17523   3.391   2.261   9.493 -1.0323 -1.8812  0.1240
  157SAPE   H7S17524   3.432   2.354   9.644  1.4385  1.1486 -1.5505
  157SAPE   C2817525   3.302   2.458   9.511 -0.5125  0.0919  1.2439
  157SAPE   H8R17526   3.278   2.532   9.589 -2.1775 -0.3942  1.2399
  157SAPE   C2917527   3.265   2.484   9.388 -0.0559 -0.0490  0.8223
  157SAPE   H9R17528   3.206   2.573   9.361 -1.1464 -0.0383  3.1025
  157SAPE  C21017529   3.284   2.379   9.280  0.9170 -0.6718 -0.5600
  157SAPE  H10R17530   3.274   2.276   9.320 -1.3061 -0.4824 -0.4593
  157SAPE  H10S17531   3.385   2.383   9.236  0.4310 -0.8965 -1.7265
  157SAPE  C21117532   3.173   2.392   9.174  0.0030  0.8093 -0.3441
  157SAPE  H11R17533   3.068   2.382   9.208 -0.1374  3.1738  0.0863
  157SAPE  C21217534   3.198   2.392   9.042  0.0790 -0.2146  0.1644
  157SAPE  H12R17535   3.118   2.418   8.971 -0.8041 -0.4890  1.0405
  157SAPE  C21317536   3.334   2.364   8.984 -0.3221  0.0162 -0.7267
  157SAPE  H13R17537   3.327   2.310   8.887  0.7808 -1.3357 -0.0808
  157SAPE  H13S17538   3.380   2.285   9.047 -1.8304  0.4619  1.0306
  157SAPE  C21417539   3.416   2.489   8.965  0.6797 -0.7771 -0.6602
  157SAPE  H14R17540   3.456   2.525   9.062 -2.4248  0.7221  0.1803
  157SAPE  C21517541   3.443   2.561   8.850  0.7384  0.4253 -0.2353
  157SAPE  H15R17542   3.506   2.649   8.869 -0.2854  1.2704 -0.7051
  157SAPE  C21617543   3.390   2.527   8.707 -1.1055 -0.6417 -0.1539
  157SAPE  H16R17544   3.327   2.436   8.717 -3.0234  0.7334  1.0863
  157SAPE  H16S17545   3.475   2.499   8.642 -1.0280 -0.7626 -0.0009
  157SAPE  C21717546   3.299   2.645   8.653 -0.2160  0.9078  0.1307
  157SAPE  H17R17547   3.257   2.615   8.554  1.3265  0.2329 -0.3663
  157SAPE  H17S17548   3.355   2.739   8.635  1.4777 -0.1673 -0.5651
  157SAPE  C21817549   3.177   2.669   8.739 -0.5729 -0.3698  1.1210
  157SAPE  H18R17550   3.218   2.685   8.841  2.0951  2.1742 -0.2045
  157SAPE  H18S17551   3.105   2.585   8.729  0.3337 -1.1360  0.9103
  157SAPE  C21917552   3.113   2.802   8.694 -0.2925  0.6169  0.3746
  157SAPE  H19R17553   3.198   2.872   8.683 -0.7010  1.0533 -0.1141
  157SAPE  H19S17554   3.046   2.835   8.776 -0.5795 -3.2922  1.9168
  157SAPE  C22017555   3.024   2.801   8.565  0.5199  0.1269  0.2373
  157SAPE  H20R17556   2.984   2.900   8.534  1.4523  0.1486 -0.9725
  157SAPE  H20S17557   2.932   2.739   8.578  0.6576 -0.2278 -0.4340
  157SAPE  H20T17558   3.079   2.767   8.475  0.7117  0.2265  0.3167
  157SAPE   C3317559   3.974   2.756   9.922  0.5873 -0.4182 -0.7052
  157SAPE   H3X17560   4.080   2.790   9.919  0.0744  1.8872  2.3374
  157SAPE   H3Y17561   3.909   2.846   9.918 -0.7182 -1.3353 -0.5999
  157SAPE   C3417562   3.942   2.684   9.793  0.6521  0.4990 -0.2298
  157SAPE   H4X17563   3.837   2.650   9.797  0.4392  1.1686 -0.0028
  157SAPE   H4Y17564   4.018   2.603   9.782  0.8627  0.7059 -0.3231
  157SAPE   C3517565   3.964   2.781   9.669 -0.1934 -0.2255 -0.5571
  157SAPE   H5X17566   4.068   2.817   9.685  0.0686 -0.8157 -0.8931
  157SAPE   H5Y17567   3.901   2.873   9.667 -0.3166 -0.2684  0.9089
  157SAPE   C3617568   3.957   2.698   9.536 -0.5411  0.3953 -0.2251
  157SAPE   H6X17569   3.856   2.654   9.522 -0.8904  1.8716 -3.0963
  157SAPE   H6Y17570   4.026   2.611   9.535 -1.9365 -0.7853  1.3394
  157SAPE   C3717571   3.982   2.792   9.421 -0.5104 -0.5802  0.1734
  157SAPE   H7X17572   4.089   2.822   9.427 -0.2701 -0.8886 -1.8404
  157SAPE   H7Y17573   3.923   2.885   9.432  1.9650  0.9886  1.1891
  157SAPE   C3817574   3.960   2.732   9.285  0.6037 -0.0380 -0.6098
  157SAPE   H8X17575   3.855   2.699   9.277  0.0552  0.0855  3.7229
  157SAPE   H8Y17576   4.018   2.637   9.280  0.3483 -0.1289 -2.2370
  157SAPE   C3917577   3.983   2.828   9.170  0.1008 -0.5172 -0.3804
  157SAPE   H9X17578   4.088   2.863   9.169 -0.8240  2.6983  1.1841
  157SAPE   H9Y17579   3.919   2.917   9.191 -0.1197 -0.7394 -0.1124
  157SAPE  C31017580   3.935   2.785   9.033 -0.3822  0.2085 -0.1891
  157SAPE  H10X17581   3.961   2.859   8.954 -0.4853 -0.6518 -1.0466
  157SAPE  H10Y17582   3.828   2.756   9.037 -0.1681 -0.5099  0.6038
  157SAPE  C31117583   4.009   2.658   8.986 -1.2535 -0.5213 -0.1833
  157SAPE  H11X17584   3.984   2.590   9.070  0.5700 -2.0276 -0.8018
  157SAPE  H11Y17585   4.116   2.687   8.993 -2.0827  2.9230 -0.0195
  157SAPE  C31217586   3.974   2.607   8.849 -0.7272  0.8325 -0.2996
  157SAPE  H12X17587   3.932   2.684   8.781 -0.8429  0.9887 -0.0495
  157SAPE  H12Y17588   3.891   2.533   8.855 -1.3221  1.5822  1.4765
  157SAPE  C31317589   4.093   2.546   8.777 -0.4043  0.1771  0.1728
  157SAPE  H13X17590   4.144   2.473   8.844  0.9110  2.6271  1.9769
  157SAPE  H13Y17591   4.164   2.623   8.741  1.0409 -2.3755 -2.9784
  157SAPE  C31417592   4.059   2.468   8.647 -0.4209  0.7542 -0.3596
  157SAPE  H14X17593   3.961   2.418   8.657 -0.2787  0.3327 -1.0412
  157SAPE  H14Y17594   4.142   2.395   8.635  1.5944  2.8393  0.1519
  157SAPE  C31517595   4.046   2.561   8.520  0.3032  0.5062 -0.4103
  157SAPE  H15X17596   4.148   2.601   8.503  0.5217 -0.4105 -1.3722
  157SAPE  H15Y17597   3.972   2.637   8.553 -0.5215 -0.3250 -0.3279
  157SAPE  C31617598   3.977   2.483   8.400 -0.0478 -0.3204  0.1545
  157SAPE  H16X17599   3.870   2.460   8.421  0.2077 -1.4339  0.2627
  157SAPE  H16Y17600   4.029   2.386   8.392 -0.2894 -0.5841  1.5774
  157SAPE  C31717601   3.984   2.559   8.264  0.1705 -0.7549  0.3207
  157SAPE  H17X17602   3.932   2.497   8.188  0.9525 -0.7605 -0.2287
  157SAPE  H17Y17603   4.094   2.557   8.248  0.6238  0.7246  2.8187
  157SAPE  C31817604   3.930   2.699   8.249  0.4835 -0.1317 -0.6588
  157SAPE  H18X17605   3.820   2.704   8.259  0.6228 -0.1375  1.4337
  157SAPE  H18Y17606   3.943   2.746   8.149 -2.3095 -0.2780 -1.1473
  157SAPE  H18Z17607   3.972   2.767   8.326  1.9659 -0.2364 -1.3384
  158SAPE     N17608   4.441   4.420  10.879  0.0614  0.5322 -0.4015
  158SAPE   HN117609   4.450   4.457  10.782 -0.3402 -1.0402 -1.0845
  158SAPE   HN217610   4.484   4.486  10.946 -1.0470  1.8610 -0.9575
  158SAPE   HN317611   4.504   4.337  10.890  2.6384  2.4316  0.1211
  158SAPE   C1217612   4.294   4.388  10.896 -0.5571  0.3905  0.0376
  158SAPE  H12A17613   4.260   4.470  10.963  2.5433  0.8032  1.2998
  158SAPE  H12B17614   4.292   4.297  10.960  1.9048  1.7534  2.3279
  158SAPE   C1117615   4.214   4.390  10.768 -0.2578 -0.5931  0.2796
  158SAPE  H11A17616   4.235   4.489  10.722  0.9164 -0.8168  0.3043
  158SAPE  H11B17617   4.107   4.376  10.790  0.0925 -2.3905  0.9988
  158SAPE     P17618   4.225   4.149  10.670 -0.4102 -0.2682  0.2537
  158SAPE   O1317619   4.347   4.078  10.626  0.2258  0.2303 -0.5752
  158SAPE   O1417620   4.164   4.111  10.798  0.3266  0.7406 -0.0487
  158SAPE   O1217621   4.261   4.297  10.668  0.0727 -0.6787  0.3048
  158SAPE   O1117622   4.109   4.147  10.556  0.1465  0.1887 -0.4018
  158SAPE    C117623   4.033   4.254  10.514 -0.3636 -1.1149  0.3540
  158SAPE    HA17624   3.924   4.232  10.505 -0.9886  1.8502 -0.5541
  158SAPE    HB17625   4.030   4.325  10.600  0.7365 -0.5514 -0.0591
  158SAPE    C217626   4.074   4.320  10.381 -0.4297 -0.3666  0.4854
  158SAPE    HS17627   4.014   4.413  10.370  1.1637  0.8595  1.6976
  158SAPE   O2117628   4.065   4.232  10.267 -0.0574  0.0080 -0.1573
  158SAPE   C2117629   3.950   4.207  10.229  0.3627 -0.3968  0.3992
  158SAPE   O2217630   3.847   4.258  10.268  0.1775 -0.5536 -0.1321
  158SAPE   C2217631   3.958   4.099  10.123  0.6752  0.1167  0.6619
  158SAPE   H2R17632   4.057   4.094  10.072  0.8665 -0.9542  1.1051
  158SAPE   H2S17633   3.935   3.997  10.159  4.0653 -1.2605 -0.6551
  158SAPE    C317634   4.223   4.378  10.380 -0.2720  0.3449  0.6126
  158SAPE    HX17635   4.293   4.292  10.378 -0.2385  0.3782 -0.8624
  158SAPE    HY17636   4.230   4.437  10.474 -0.6882  0.4259  0.5932
  158SAPE   O3117637   4.234   4.462  10.263 -0.4104  0.0731 -0.6758
  158SAPE   C3117638   4.351   4.495  10.222 -0.2301 -0.2901 -0.2778
  158SAPE   O3217639   4.453   4.450  10.271  0.1414  0.0480 -0.2337
  158SAPE   C3217640   4.333   4.597  10.104 -0.1043 -0.6062 -1.0125
  158SAPE   H2X17641   4.374   4.551  10.011 -0.6092 -1.2986 -0.9051
  158SAPE   H2Y17642   4.403   4.681  10.124 -0.4084 -0.9773  2.1542
  158SAPE   C2317643   3.851   4.126  10.007  0.3301  0.7311 -0.6732
  158SAPE   H3R17644   3.899   4.174   9.918 -1.6013 -3.1569 -4.1671
  158SAPE   H3S17645   3.771   4.193  10.045  0.3550  0.3674  0.0389
  158SAPE   C2417646   3.806   3.995   9.948 -0.4645 -0.7490 -0.3573
  158SAPE   H4R17647   3.770   3.934  10.033  0.4085  0.6728  1.0823
  158SAPE   H4S17648   3.895   3.948   9.903  0.1472 -0.6890  0.7721
  158SAPE   C2517649   3.700   4.025   9.847 -0.8457  0.1803 -0.2194
  158SAPE   H5R17650   3.622   4.092   9.889 -0.3079  0.7426 -0.1013
  158SAPE   C2617651   3.691   3.983   9.723 -0.0804 -0.6488 -0.4880
  158SAPE   H6R17652   3.610   4.021   9.659  0.2352  0.7007 -0.1137
  158SAPE   C2717653   3.796   3.901   9.651  0.3772  0.0458 -0.1206
  158SAPE   H7R17654   3.791   3.793   9.677  1.9663 -0.1499 -0.5015
  158SAPE   H7S17655   3.901   3.933   9.672  1.3984 -2.6016 -0.6829
  158SAPE   C2817656   3.782   3.902   9.500  0.1453 -0.7540 -0.0426
  158SAPE   H8R17657   3.859   3.953   9.441 -0.0679  0.1090  0.4143
  158SAPE   C2917658   3.689   3.834   9.424  0.2533 -0.1641 -0.6735
  158SAPE   H9R17659   3.684   3.850   9.315 -0.1635 -0.2379 -0.6689
  158SAPE  C21017660   3.582   3.746   9.481  0.4070 -0.9594 -0.1854
  158SAPE  H10R17661   3.495   3.754   9.411 -0.4715 -0.6364  0.9167
  158SAPE  H10S17662   3.543   3.785   9.577  2.4153 -1.8570  1.0592
  158SAPE  C21117663   3.624   3.607   9.503  0.5719  0.4777  0.1019
  158SAPE  H11R17664   3.619   3.568   9.605  0.7749 -0.1251 -0.1107
  158SAPE  C21217665   3.643   3.510   9.406 -0.0794  0.2355  0.3132
  158SAPE  H12R17666   3.659   3.406   9.439 -0.3817  0.5152  1.3805
  158SAPE  C21317667   3.612   3.529   9.259  0.0538  0.4747  0.0844
  158SAPE  H13R17668   3.519   3.588   9.244  0.2993  0.5797 -1.1565
  158SAPE  H13S17669   3.596   3.424   9.228  1.5962 -0.1973  1.4035
  158SAPE  C21417670   3.733   3.583   9.182 -0.7896 -0.4778 -0.4348
  158SAPE  H14R17671   3.819   3.586   9.252  0.2962 -2.1017 -1.6262
  158SAPE  C21517672   3.736   3.622   9.055  0.2312  0.3360  0.2021
  158SAPE  H15R17673   3.828   3.671   9.021 -0.9595  1.9889 -0.7565
  158SAPE  C21617674   3.623   3.615   8.955  0.6206  0.1235  0.5347
  158SAPE  H16R17675   3.570   3.713   8.959 -0.8081 -0.6587  1.1658
  158SAPE  H16S17676   3.549   3.535   8.974 -0.0127 -0.0105 -2.0696
  158SAPE  C21717677   3.672   3.587   8.808  0.4399  0.1208  0.6250
  158SAPE  H17R17678   3.710   3.483   8.792  0.6948  0.2207  0.5687
  158SAPE  H17S17679   3.757   3.655   8.789  0.0605  0.4574  0.1315
  158SAPE  C21817680   3.564   3.610   8.700 -0.2317 -0.7292  0.4696
  158SAPE  H18R17681   3.473   3.554   8.730 -0.3154 -0.4100  0.8249
  158SAPE  H18S17682   3.595   3.575   8.600 -0.9693 -1.6773  0.5538
  158SAPE  C21917683   3.537   3.763   8.694  0.6606 -0.0664  0.4819
  158SAPE  H19R17684   3.518   3.803   8.796 -0.1734  0.7211  0.0276
  158SAPE  H19S17685   3.448   3.777   8.628  1.1633  0.7513 -0.0413
  158SAPE  C22017686   3.642   3.859   8.631  0.5304  0.1361  0.4204
  158SAPE  H20R17687   3.731   3.877   8.695 -0.4091  2.4578  1.1695
  158SAPE  H20S17688   3.599   3.960   8.614 -0.3030 -0.3907 -0.7446
  158SAPE  H20T17689   3.669   3.823   8.529  1.9285  3.1937 -0.4260
  158SAPE   C3317690   4.189   4.649  10.090  0.0294 -0.3344  0.2212
  158SAPE   H3X17691   4.178   4.746  10.038 -0.2498  0.1857  1.2307
  158SAPE   H3Y17692   4.141   4.664  10.189 -0.0354 -4.6206  1.0581
  158SAPE   C3417693   4.103   4.546  10.011  0.6998 -0.6229  0.1496
  158SAPE   H4X17694   4.087   4.447  10.059 -2.3708 -0.8290 -1.0704
  158SAPE   H4Y17695   4.151   4.534   9.911  1.0362 -3.5288  0.5567
  158SAPE   C3517696   3.968   4.603   9.980  0.5484 -0.2032 -0.1154
  158SAPE   H5X17697   3.984   4.694   9.919  1.1206 -0.6165 -0.5938
  158SAPE   H5Y17698   3.924   4.628  10.079  1.4134  1.0275 -0.0194
  158SAPE   C3617699   3.872   4.503   9.908 -0.1776 -0.7626 -1.0901
  158SAPE   H6X17700   3.874   4.406   9.961  1.7060 -0.0758  0.2014
  158SAPE   H6Y17701   3.905   4.485   9.803 -2.1947 -0.4540 -1.8248
  158SAPE   C3717702   3.723   4.553   9.906 -0.1939 -0.3164 -0.2346
  158SAPE   H7X17703   3.726   4.651   9.854  1.0699 -0.7470 -1.0291
  158SAPE   H7Y17704   3.689   4.569  10.011 -0.0603 -0.2967 -0.1936
  158SAPE   C3817705   3.623   4.455   9.836  0.2658  0.1893  0.4047
  158SAPE   H8X17706   3.525   4.505   9.819 -1.3797 -1.8989  3.0467
  158SAPE   H8Y17707   3.607   4.366   9.900 -0.9216 -0.8715 -1.3042
  158SAPE   C3917708   3.673   4.392   9.703 -0.0577  0.2511 -0.2718
  158SAPE   H9X17709   3.589   4.325   9.674  0.4983 -1.4813  1.8660
  158SAPE   H9Y17710   3.767   4.336   9.724  0.7114  0.1999 -3.3516
  158SAPE  C31017711   3.713   4.486   9.594  0.6079 -0.2602 -0.8073
  158SAPE  H10X17712   3.767   4.574   9.636  0.0471  0.6401 -1.9402
  158SAPE  H10Y17713   3.622   4.520   9.540  2.7143  1.4399 -3.5383
  158SAPE  C31117714   3.814   4.419   9.494 -0.9604  0.3184 -0.2371
  158SAPE  H11X17715   3.817   4.309   9.511 -0.2402  0.4241  0.3449
  158SAPE  H11Y17716   3.911   4.465   9.522 -0.5618  0.2714 -1.4660
  158SAPE  C31217717   3.769   4.431   9.347 -0.1066  0.0434 -0.0166
  158SAPE  H12X17718   3.785   4.539   9.324  0.5047 -0.1163 -0.3576
  158SAPE  H12Y17719   3.664   4.396   9.346  1.3298 -4.9608  0.2185
  158SAPE  C31317720   3.836   4.338   9.246  0.1627  0.8771  0.2846
  158SAPE  H13X17721   3.830   4.229   9.268 -0.9734  0.3492 -2.2992
  158SAPE  H13Y17722   3.943   4.366   9.245 -0.0091  1.5307 -0.5536
  158SAPE  C31417723   3.772   4.364   9.113 -0.2563 -0.1610  0.5284
  158SAPE  H14X17724   3.777   4.473   9.091  1.8649 -0.5092 -1.0187
  158SAPE  H14Y17725   3.667   4.331   9.109 -0.6512  1.1082 -0.2451
  158SAPE  C31517726   3.826   4.284   8.995  0.6110  0.2155  0.1047
  158SAPE  H15X17727   3.822   4.176   9.021 -0.4842  0.1536 -0.2927
  158SAPE  H15Y17728   3.931   4.314   8.973  0.9595 -2.0782 -1.7864
  158SAPE  C31617729   3.756   4.322   8.859 -0.1922  0.3709 -0.0656
  158SAPE  H16X17730   3.818   4.408   8.825  1.7430 -0.2303  1.6605
  158SAPE  H16Y17731   3.654   4.364   8.870 -1.5590 -2.8965  1.1958
  158SAPE  C31717732   3.771   4.213   8.751  0.8878  0.7096 -0.4602
  158SAPE  H17X17733   3.737   4.255   8.654  0.2170  1.6618  0.1665
  158SAPE  H17Y17734   3.691   4.137   8.763  0.2366  1.7505  2.7516
  158SAPE  C31817735   3.906   4.138   8.738  0.0488  0.9245 -0.4602
  158SAPE  H18X17736   3.911   4.077   8.645  2.2530  0.3721 -0.0310
  158SAPE  H18Y17737   3.907   4.066   8.823 -1.1310  0.3012 -0.9512
  158SAPE  H18Z17738   3.985   4.215   8.724 -1.4083  2.6194  0.1464
  159SAPE     N17739   3.016   6.452   6.188 -0.0876 -0.1080 -0.0617
  159SAPE   HN117740   3.032   6.367   6.245  3.7915  0.6265  0.2164
  159SAPE   HN217741   2.922   6.447   6.143 -1.0071  0.1817  1.7597
  159SAPE   HN317742   3.085   6.455   6.110  0.0334 -0.4736  0.0255
  159SAPE   C1217743   3.022   6.579   6.271 -0.3690 -0.2058  0.4045
  159SAPE  H12A17744   2.922   6.627   6.266  0.5280  1.6748 -1.4620
  159SAPE  H12B17745   3.102   6.645   6.228 -0.8281 -0.6476 -1.2142
  159SAPE   C1117746   3.055   6.544   6.414  0.5680  0.5417 -0.4033
  159SAPE  H11A17747   3.065   6.639   6.470  2.2324 -1.1452  2.4017
  159SAPE  H11B17748   3.156   6.498   6.417  0.2810 -0.4707 -3.1407
  159SAPE     P17749   2.967   6.316   6.503 -0.4835  0.4131  0.2686
  159SAPE   O1317750   2.842   6.270   6.577  0.2845  0.3898 -0.1589
  159SAPE   O1417751   2.989   6.243   6.368  0.0716 -0.4933  0.1652
  159SAPE   O1217752   2.958   6.469   6.483 -0.2008  0.3520  0.1744
  159SAPE   O1117753   3.090   6.292   6.597  0.0872  0.4987  0.2376
  159SAPE    C117754   3.121   6.379   6.709 -0.1719 -0.1486  0.0824
  159SAPE    HA17755   3.219   6.425   6.686  0.9814 -1.6840  1.6742
  159SAPE    HB17756   3.050   6.464   6.722 -0.4184 -0.4296  0.5719
  159SAPE    C217757   3.117   6.315   6.842  0.1211  0.0353 -0.2062
  159SAPE    HS17758   3.134   6.394   6.918  1.1281  0.2596 -0.6484
  159SAPE   O2117759   3.223   6.211   6.845 -0.6131 -0.1302  0.0907
  159SAPE   C2117760   3.338   6.252   6.900  0.3676 -0.8412  0.0171
  159SAPE   O2217761   3.363   6.366   6.940 -0.4106  0.0341  0.0487
  159SAPE   C2217762   3.427   6.131   6.918 -0.6131  0.4807  0.2378
  159SAPE   H2R17763   3.362   6.044   6.896 -1.8357  1.6126 -0.7695
  159SAPE   H2S17764   3.506   6.144   6.840 -0.6008 -0.3206  0.1095
  159SAPE    C317765   2.983   6.251   6.882  0.7868  0.4715 -0.5213
  159SAPE    HX17766   2.969   6.159   6.823 -1.3783  1.3708 -1.5145
  159SAPE    HY17767   2.900   6.323   6.863 -0.5219 -1.0366 -0.6749
  159SAPE   O3117768   2.964   6.213   7.015  0.2752  0.0008  0.0880
  159SAPE   C3117769   2.847   6.176   7.048  0.1567  0.5743  0.0214
  159SAPE   O3217770   2.762   6.153   6.961  0.7784 -0.0477  0.1940
  159SAPE   C3217771   2.829   6.169   7.194 -0.9402  0.1533  0.5352
  159SAPE   H2X17772   2.725   6.206   7.206 -0.3404  1.6474  1.4342
  159SAPE   H2Y17773   2.902   6.242   7.236 -1.7309  2.1982 -1.4085
  159SAPE   C2317774   3.485   6.111   7.060 -0.2769  0.0562 -0.7706
  159SAPE   H3R17775   3.557   6.192   7.087 -0.0309 -0.0917 -0.9727
  159SAPE   H3S17776   3.557   6.029   7.042 -1.3045 -0.8265 -0.9321
  159SAPE   C2417777   3.398   6.075   7.178 -0.0742 -0.0538  0.1752
  159SAPE   H4R17778   3.452   6.071   7.275  0.7573  0.2619 -0.2626
  159SAPE   H4S17779   3.363   5.970   7.172  2.6159 -1.0990  1.1111
  159SAPE   C2517780   3.271   6.155   7.183 -0.3339  0.2749 -0.1772
  159SAPE   H5R17781   3.178   6.112   7.143 -0.7974  1.7585 -0.7881
  159SAPE   C2617782   3.257   6.279   7.228  0.5711  0.2093 -0.2709
  159SAPE   H6R17783   3.155   6.311   7.251  1.2175  0.7884  2.0244
  159SAPE   C2717784   3.368   6.368   7.286 -0.7196  0.5003  0.3653
  159SAPE   H7R17785   3.409   6.429   7.203  1.0113 -0.6455  0.3402
  159SAPE   H7S17786   3.457   6.306   7.308 -0.8829 -0.0135 -0.3922
  159SAPE   C2817787   3.325   6.450   7.405 -0.1775 -0.4844 -0.1849
  159SAPE   H8R17788   3.291   6.552   7.379 -0.4950 -1.0014 -1.8840
  159SAPE   C2917789   3.341   6.426   7.537  0.0996 -0.0514  0.4573
  159SAPE   H9R17790   3.311   6.509   7.603  1.9962 -1.0971  2.7843
  159SAPE  C21017791   3.407   6.309   7.595 -0.1047  0.1859 -0.6631
  159SAPE  H10R17792   3.500   6.332   7.650 -1.3989 -0.3746  1.9103
  159SAPE  H10S17793   3.438   6.241   7.513 -0.4736  1.0835 -1.5606
  159SAPE  C21117794   3.309   6.238   7.686  0.5931  0.3235  0.5181
  159SAPE  H11R17795   3.281   6.139   7.649  2.5418 -0.8205  1.9028
  159SAPE  C21217796   3.275   6.284   7.806 -0.0056  0.3678 -0.1813
  159SAPE  H12R17797   3.196   6.233   7.862  1.2225  0.0998  1.3630
  159SAPE  C21317798   3.326   6.407   7.876  0.3127 -0.8498  0.0004
  159SAPE  H13R17799   3.240   6.477   7.888  2.1050  1.1677  2.3665
  159SAPE  H13S17800   3.403   6.463   7.819 -0.2010 -2.2270 -2.1483
  159SAPE  C21417801   3.381   6.383   8.012 -1.0559  0.2121  0.6184
  159SAPE  H14R17802   3.485   6.347   8.018 -1.2092 -0.3084  0.1714
  159SAPE  C21517803   3.321   6.409   8.132  0.0617  0.0384 -0.3895
  159SAPE  H15R17804   3.371   6.380   8.225 -0.7565 -0.6075 -0.1358
  159SAPE  C21617805   3.184   6.462   8.153 -0.0091  0.4134 -0.3752
  159SAPE  H16R17806   3.149   6.428   8.253  2.3445  4.6508  2.2054
  159SAPE  H16S17807   3.112   6.445   8.070  0.0410 -0.4573 -0.2499
  159SAPE  C21717808   3.190   6.613   8.167 -0.5227 -0.2944  0.5652
  159SAPE  H17R17809   3.085   6.649   8.159 -0.6522 -0.4355  1.5318
  159SAPE  H17S17810   3.245   6.656   8.081  0.0214 -0.2679  0.9260
  159SAPE  C21817811   3.249   6.676   8.297 -0.7217 -0.6482  0.1235
  159SAPE  H18R17812   3.351   6.641   8.326 -0.2871 -0.8005 -1.5206
  159SAPE  H18S17813   3.197   6.640   8.389 -2.8129  1.8374  0.0220
  159SAPE  C21917814   3.240   6.827   8.309 -0.1170 -0.7056  0.8728
  159SAPE  H19R17815   3.313   6.873   8.239  0.9025 -2.7296  0.5379
  159SAPE  H19S17816   3.291   6.855   8.404  2.0337 -1.7740  0.1142
  159SAPE  C22017817   3.097   6.885   8.299 -0.7736  0.2263 -0.4446
  159SAPE  H20R17818   3.025   6.833   8.365 -2.4466 -1.0410 -3.0701
  159SAPE  H20S17819   3.050   6.860   8.201 -3.1622 -0.8346  0.8939
  159SAPE  H20T17820   3.099   6.994   8.321  1.0103  0.1804 -0.1850
  159SAPE   C3317821   2.856   6.029   7.253 -0.5286 -0.0017  0.5271
  159SAPE   H3X17822   2.950   5.983   7.216 -1.0484 -0.3374 -0.4120
  159SAPE   H3Y17823   2.771   5.961   7.233  0.2074 -0.2953 -2.0063
  159SAPE   C3417824   2.867   6.041   7.404  0.2459  0.0688 -0.2347
  159SAPE   H4X17825   2.762   6.060   7.436  0.5306 -1.5487  1.9081
  159SAPE   H4Y17826   2.924   6.132   7.434 -0.2828  0.4742 -0.4353
  159SAPE   C3517827   2.910   5.910   7.469 -0.1958 -0.1936  0.4712
  159SAPE   H5X17828   2.995   5.874   7.407  2.1255  1.2653  2.5789
  159SAPE   H5Y17829   2.834   5.830   7.461 -0.7939 -0.2266  4.3555
  159SAPE   C3617830   2.964   5.922   7.615 -0.2732  1.1288 -0.1066
  159SAPE   H6X17831   3.009   6.023   7.625 -0.6301  1.1006  2.3612
  159SAPE   H6Y17832   3.035   5.842   7.645 -0.2830  1.8354  1.9539
  159SAPE   C3717833   2.853   5.909   7.716  0.2008 -0.6008  0.0270
  159SAPE   H7X17834   2.819   5.804   7.704 -0.3457 -0.2619 -1.6459
  159SAPE   H7Y17835   2.776   5.981   7.679  1.1945  0.8659  0.7181
  159SAPE   C3817836   2.895   5.944   7.860  0.3844  0.9706 -0.2997
  159SAPE   H8X17837   2.995   5.902   7.884 -1.0996 -2.2906  0.6410
  159SAPE   H8Y17838   2.820   5.884   7.916  2.7109 -0.3629  1.5923
  159SAPE   C3917839   2.861   6.081   7.917  0.1181 -0.5725  0.8441
  159SAPE   H9X17840   2.759   6.121   7.895  0.9862  1.3182  0.0841
  159SAPE   H9Y17841   2.923   6.152   7.859 -1.6279 -0.1409 -0.6165
  159SAPE  C31017842   2.897   6.102   8.064  0.2269 -0.6700  0.2819
  159SAPE  H10X17843   2.891   6.212   8.083 -1.9024 -1.1074  2.5543
  159SAPE  H10Y17844   3.004   6.085   8.085  0.2719 -0.7436 -0.0025
  159SAPE  C31117845   2.800   6.039   8.166  0.1185 -0.2202  0.2170
  159SAPE  H11X17846   2.816   5.930   8.153  1.7094 -0.1835  1.5209
  159SAPE  H11Y17847   2.694   6.064   8.145 -0.2016 -0.7003  1.1897
  159SAPE  C31217848   2.835   6.063   8.314 -0.3985  0.1703 -0.1902
  159SAPE  H12X17849   2.858   6.171   8.323  0.4663  0.1748 -2.0865
  159SAPE  H12Y17850   2.927   6.008   8.343  0.8616  1.8991 -0.7913
  159SAPE  C31317851   2.715   6.028   8.400 -0.6728  0.8385 -0.0340
  159SAPE  H13X17852   2.633   6.099   8.378 -0.9867  0.1542 -1.1116
  159SAPE  H13Y17853   2.743   6.035   8.508 -3.0386 -1.8540  0.8515
  159SAPE  C31417854   2.673   5.880   8.379  0.6347 -0.1207 -0.9306
  159SAPE  H14X17855   2.760   5.816   8.355  1.1029  0.0928  0.1472
  159SAPE  H14Y17856   2.610   5.871   8.288 -1.5451 -0.5663  0.5313
  159SAPE  C31517857   2.623   5.813   8.508  0.6976 -0.1877 -0.0854
  159SAPE  H15X17858   2.547   5.886   8.542  2.0812  1.2119  0.0932
  159SAPE  H15Y17859   2.704   5.811   8.584 -0.1483  2.3219  0.9812
  159SAPE  C31617860   2.562   5.669   8.490  0.0683  0.0456  0.3090
  159SAPE  H16X17861   2.632   5.608   8.430 -0.1134 -0.1831  0.3289
  159SAPE  H16Y17862   2.457   5.668   8.453 -0.1123 -0.0310  0.8078
  159SAPE  C31717863   2.566   5.586   8.620 -1.0497  0.0540 -0.1606
  159SAPE  H17X17864   2.515   5.650   8.695 -0.0890  1.6595 -0.8278
  159SAPE  H17Y17865   2.671   5.575   8.654 -0.7643 -3.1965 -1.6909
  159SAPE  C31817866   2.501   5.449   8.621 -0.7825 -0.0948  0.2806
  159SAPE  H18X17867   2.390   5.459   8.611 -0.7969 -0.0463  0.4849
  159SAPE  H18Y17868   2.491   5.409   8.724 -1.7654 -0.3641  0.0978
  159SAPE  H18Z17869   2.548   5.369   8.560 -1.7579 -1.4441  1.2270
  160SAPE     N17870   1.663   6.142   6.696  0.5044 -0.4335  0.0961
  160SAPE   HN117871   1.652   6.233   6.744 -2.7700 -0.6244 -0.0175
  160SAPE   HN217872   1.568   6.117   6.661 -0.2340  0.1480  1.6045
  160SAPE   HN317873   1.697   6.068   6.761  2.5782 -0.5356 -1.0166
  160SAPE   C1217874   1.743   6.161   6.569  0.0726 -0.1031  0.4461
  160SAPE  H12A17875   1.727   6.072   6.505 -1.6838  1.9615 -2.2463
  160SAPE  H12B17876   1.850   6.175   6.595  0.3182 -1.3471  0.1382
  160SAPE   C1117877   1.703   6.290   6.496  1.1680 -0.0898 -0.8465
  160SAPE  H11A17878   1.594   6.279   6.476  1.5052 -3.0060 -1.5016
  160SAPE  H11B17879   1.743   6.298   6.393  0.2864  0.6756 -1.1466
  160SAPE     P17880   1.632   6.483   6.668  0.4163  0.0473  0.1193
  160SAPE   O1317881   1.516   6.546   6.592  0.2194 -0.6067  0.2664
  160SAPE   O1417882   1.595   6.393   6.783  0.2494 -0.1095 -0.2519
  160SAPE   O1217883   1.732   6.405   6.575  0.1284 -0.6410 -0.1727
  160SAPE   O1117884   1.718   6.598   6.725  0.0394  0.3897  0.5951
  160SAPE    C117885   1.856   6.602   6.686 -0.2635  0.4748 -0.3644
  160SAPE    HA17886   1.870   6.610   6.576  0.5350 -1.1802 -0.4203
  160SAPE    HB17887   1.908   6.688   6.733  0.8314 -1.8023  2.9808
  160SAPE    C217888   1.950   6.494   6.750  0.1646  0.5618  0.4574
  160SAPE    HS17889   1.945   6.402   6.689  0.5098  0.3351  0.7706
  160SAPE   O2117890   1.908   6.470   6.886  0.5722  0.0731 -0.0878
  160SAPE   C2117891   1.900   6.340   6.927  0.6329 -0.8029  0.4805
  160SAPE   O2217892   1.929   6.248   6.848 -0.3201 -0.5815 -0.2155
  160SAPE   C2217893   1.847   6.325   7.070  0.9523 -0.3246  0.1927
  160SAPE   H2R17894   1.920   6.355   7.147  1.0369 -1.5422  0.6076
  160SAPE   H2S17895   1.757   6.385   7.096  0.8020 -1.4721  2.5828
  160SAPE    C317896   2.096   6.547   6.754  0.3593 -1.0013 -0.2945
  160SAPE    HX17897   2.087   6.648   6.800  1.0285 -0.2125 -1.8192
  160SAPE    HY17898   2.125   6.568   6.649 -0.1146 -0.3364 -0.2988
  160SAPE   O3117899   2.197   6.476   6.833  0.0207 -0.1232  0.4620
  160SAPE   C3117900   2.228   6.356   6.774 -0.2494 -0.1108  0.7847
  160SAPE   O3217901   2.192   6.327   6.657 -0.4475 -0.0639  0.1165
  160SAPE   C3217902   2.298   6.258   6.875 -0.0934 -0.5026 -0.0707
  160SAPE   H2X17903   2.407   6.263   6.853  0.4545  4.1339  2.2747
  160SAPE   H2Y17904   2.249   6.161   6.852 -1.6437  0.0230  0.8544
  160SAPE   C2317905   1.816   6.170   7.099 -0.8400 -0.1796  0.0892
  160SAPE   H3R17906   1.911   6.112   7.102 -1.6007 -1.5957 -1.3323
  160SAPE   H3S17907   1.765   6.109   7.022 -0.5703 -1.0142  0.5514
  160SAPE   C2417908   1.755   6.143   7.240 -0.1451 -0.4127  0.4590
  160SAPE   H4R17909   1.825   6.208   7.296  1.6666  0.4727 -2.5517
  160SAPE   H4S17910   1.759   6.036   7.268 -1.6417  0.3403  3.9724
  160SAPE   C2517911   1.610   6.188   7.245  0.3100  0.0066  0.4049
  160SAPE   H5R17912   1.569   6.225   7.150 -1.1775 -0.1117  0.9742
  160SAPE   C2617913   1.547   6.201   7.361 -0.3001  0.3595  0.1444
  160SAPE   H6R17914   1.440   6.224   7.366 -0.4804 -0.6849  3.1842
  160SAPE   C2717915   1.608   6.172   7.500 -0.1677 -0.5289  0.3592
  160SAPE   H7R17916   1.698   6.109   7.493  0.8452  1.0165 -1.9614
  160SAPE   H7S17917   1.547   6.113   7.571  0.3067 -1.2513  0.1739
  160SAPE   C2817918   1.649   6.314   7.558  0.0483  0.0215  0.3053
  160SAPE   H8R17919   1.564   6.384   7.554 -1.6445 -1.9238  0.3897
  160SAPE   C2917920   1.765   6.342   7.606  0.7199 -0.5943 -0.6817
  160SAPE   H9R17921   1.787   6.448   7.629 -0.6662 -0.4742  0.1821
  160SAPE  C21017922   1.879   6.241   7.625 -0.4231 -0.1216  0.1422
  160SAPE  H10R17923   1.978   6.291   7.636 -0.1888 -0.8154  1.2901
  160SAPE  H10S17924   1.897   6.193   7.526 -2.5528  0.4249 -0.5592
  160SAPE  C21117925   1.859   6.135   7.728  0.3387  0.3668  0.2773
  160SAPE  H11R17926   1.822   6.036   7.696  2.5260 -1.2374  2.3155
  160SAPE  C21217927   1.868   6.148   7.861 -0.6585 -0.1828 -0.3681
  160SAPE  H12R17928   1.844   6.066   7.930 -0.5387  0.8983  0.9861
  160SAPE  C21317929   1.912   6.266   7.938 -0.4696 -0.0264 -0.1376
  160SAPE  H13R17930   1.969   6.330   7.867 -0.4312 -2.0328 -2.0575
  160SAPE  H13S17931   1.978   6.234   8.021  0.8794 -0.9045 -1.4825
  160SAPE  C21417932   1.785   6.331   7.980 -0.1133  0.1608 -0.3850
  160SAPE  H14R17933   1.742   6.398   7.905  1.6300  1.1140 -0.5775
  160SAPE  C21517934   1.720   6.320   8.098 -0.1919 -0.1630  0.2839
  160SAPE  H15R17935   1.620   6.363   8.109  0.1003  0.4383  0.6430
  160SAPE  C21617936   1.762   6.236   8.209 -0.0877  0.9912  0.0056
  160SAPE  H16R17937   1.868   6.202   8.200 -0.5348 -0.9262  1.3120
  160SAPE  H16S17938   1.699   6.145   8.223 -0.5577  1.5815  2.0730
  160SAPE  C21717939   1.750   6.313   8.348 -0.0072  0.0718  0.6564
  160SAPE  H17R17940   1.648   6.353   8.364 -0.0693 -0.3612  1.3673
  160SAPE  H17S17941   1.834   6.385   8.357  1.0096 -0.9628 -0.2644
  160SAPE  C21817942   1.780   6.213   8.456  0.4553  0.2700  0.0706
  160SAPE  H18R17943   1.882   6.172   8.444  1.4332  2.5258  0.1824
  160SAPE  H18S17944   1.696   6.141   8.444 -0.3259  1.3020 -1.0021
  160SAPE  C21917945   1.770   6.261   8.610  0.3823 -0.0674 -0.4051
  160SAPE  H19R17946   1.787   6.172   8.675  2.1356 -1.4069 -2.5482
  160SAPE  H19S17947   1.669   6.304   8.628  1.6790  3.3229 -0.4105
  160SAPE  C22017948   1.880   6.368   8.645  0.0820  0.3662 -0.2844
  160SAPE  H20R17949   1.874   6.397   8.752 -1.9375  1.2390 -0.6022
  160SAPE  H20S17950   1.865   6.465   8.593  0.0997  1.6457  1.9769
  160SAPE  H20T17951   1.981   6.325   8.628 -0.8820 -1.5377 -1.5414
  160SAPE   C3317952   2.255   6.288   7.025 -0.2052  0.0866 -0.0876
  160SAPE   H3X17953   2.147   6.312   7.026 -0.5384 -1.3309  0.4119
  160SAPE   H3Y17954   2.309   6.381   7.053 -0.6878  0.7192 -1.1850
  160SAPE   C3417955   2.292   6.173   7.115  0.1701  0.3286  0.6772
  160SAPE   H4X17956   2.397   6.140   7.101 -0.2934 -0.2397 -1.9589
  160SAPE   H4Y17957   2.232   6.086   7.083 -0.0597  0.7895 -0.1922
  160SAPE   C3517958   2.265   6.214   7.256  0.1218  0.6896  0.1280
  160SAPE   H5X17959   2.158   6.223   7.285  0.5914 -0.1423  2.3469
  160SAPE   H5Y17960   2.314   6.312   7.276 -2.1988  1.9050  0.2308
  160SAPE   C3617961   2.316   6.105   7.351  0.5004  0.2967 -0.0710
  160SAPE   H6X17962   2.419   6.079   7.317  0.4361  0.3065 -0.2745
  160SAPE   H6Y17963   2.266   6.008   7.332  0.8572  0.0732  0.1257
  160SAPE   C3717964   2.317   6.145   7.496 -0.4919 -0.3917  0.5375
  160SAPE   H7X17965   2.222   6.144   7.553 -0.0302 -2.3872  1.3375
  160SAPE   H7Y17966   2.365   6.245   7.500  0.7778 -1.0097  1.2130
  160SAPE   C3817967   2.405   6.048   7.564 -0.4392 -0.3086  0.1992
  160SAPE   H8X17968   2.480   5.996   7.500  0.7414  0.8000  0.6449
  160SAPE   H8Y17969   2.352   5.971   7.623 -0.1861 -0.2964  0.4455
  160SAPE   C3917970   2.495   6.109   7.670 -1.1822 -0.2475 -0.6903
  160SAPE   H9X17971   2.586   6.162   7.636  0.2264 -2.0837  0.0411
  160SAPE   H9Y17972   2.548   6.028   7.723  0.7953  0.5431 -1.3685
  160SAPE  C31017973   2.418   6.178   7.781  0.7152 -0.7599  0.4104
  160SAPE  H10X17974   2.309   6.184   7.759  0.4688  0.8973  1.9352
  160SAPE  H10Y17975   2.442   6.286   7.778  0.2222 -0.6410  0.5415
  160SAPE  C31117976   2.439   6.123   7.921  0.1044  0.2285  0.1374
  160SAPE  H11X17977   2.545   6.127   7.955  0.2363  0.9218 -0.3334
  160SAPE  H11Y17978   2.434   6.013   7.907 -1.4781  0.4540 -1.3733
  160SAPE  C31217979   2.337   6.165   8.033  0.7997 -0.2131 -0.2046
  160SAPE  H12X17980   2.247   6.105   8.007  1.7252 -0.3399 -3.5747
  160SAPE  H12Y17981   2.315   6.273   8.026 -1.0248 -0.5779 -0.4510
  160SAPE  C31317982   2.387   6.126   8.174  0.0277  0.1355 -0.6542
  160SAPE  H13X17983   2.482   6.181   8.189 -0.1661 -0.0452  1.7917
  160SAPE  H13Y17984   2.407   6.018   8.191 -2.4259 -0.0378  1.9431
  160SAPE  C31417985   2.291   6.165   8.284 -0.8524  0.2800  0.1800
  160SAPE  H14X17986   2.196   6.113   8.260 -0.9392  0.8557 -0.7832
  160SAPE  H14Y17987   2.280   6.275   8.270 -0.7968  0.0943 -1.5507
  160SAPE  C31517988   2.331   6.118   8.420  0.2108  0.3740  0.7513
  160SAPE  H15X17989   2.421   6.175   8.453 -1.3814  2.4110  1.7734
  160SAPE  H15Y17990   2.353   6.009   8.417 -2.3819 -0.1977  0.5639
  160SAPE  C31617991   2.218   6.138   8.525  0.2711  0.4974 -0.2207
  160SAPE  H16X17992   2.147   6.055   8.504 -0.3134  0.5294  1.4807
  160SAPE  H16Y17993   2.172   6.237   8.505 -0.4105  0.0792 -0.7511
  160SAPE  C31717994   2.264   6.122   8.667 -0.5483 -0.2693 -0.2116
  160SAPE  H17X17995   2.196   6.194   8.717 -0.4260  0.0879 -0.5478
  160SAPE  H17Y17996   2.366   6.156   8.694 -0.8810 -1.1563  2.4074
  160SAPE  C31817997   2.240   5.988   8.731  0.5151 -0.4053 -0.7186
  160SAPE  H18X17998   2.310   5.917   8.681  2.2167  1.9855 -1.9337
  160SAPE  H18Y17999   2.135   5.955   8.718  0.3592 -1.0287  1.6868
  160SAPE  H18Z18000   2.276   5.994   8.836 -0.2411  1.3496 -0.5284
  161SAPE     N18001   5.097   1.108   5.941  0.6421 -0.1814 -0.1322
  161SAPE   HN118002   5.013   1.073   5.890 -0.6511  1.3872  0.7870
  161SAPE   HN218003   5.178   1.104   5.876 -0.8404 -0.7294 -2.0644
  161SAPE   HN318004   5.104   1.044   6.022 -0.3741 -1.9283 -1.3556
  161SAPE   C1218005   5.061   1.252   5.976  0.5738  0.4578 -1.0890
  161SAPE  H12A18006   5.010   1.295   5.887  0.0563 -1.2293 -1.6427
  161SAPE  H12B18007   5.148   1.320   5.991 -0.1618  1.0849  0.5494
  161SAPE   C1118008   4.968   1.252   6.103  0.4327  0.4349  0.0283
  161SAPE  H11A18009   4.867   1.212   6.080  1.0603 -0.9336 -0.4532
  161SAPE  H11B18010   4.960   1.362   6.119  1.3367  0.3752  0.9758
  161SAPE     P18011   4.954   1.109   6.329 -0.2506  0.0355 -0.0967
  161SAPE   O1318012   4.821   1.071   6.269  0.0369  0.1290  0.4005
  161SAPE   O1418013   5.029   1.001   6.395  0.1466 -0.3206  0.0199
  161SAPE   O1218014   5.035   1.185   6.215  0.7629  0.4158 -0.0224
  161SAPE   O1118015   4.923   1.222   6.429 -0.4765 -0.0065  0.5108
  161SAPE    C118016   5.023   1.307   6.494  0.5802  0.7814 -1.5815
  161SAPE    HA18017   5.130   1.292   6.469  1.0584  0.8710  0.2428
  161SAPE    HB18018   4.987   1.411   6.479  1.8981  1.1615 -2.2152
  161SAPE    C218019   4.994   1.278   6.648  0.7271 -0.5648  0.4932
  161SAPE    HS18020   5.054   1.356   6.699  0.0801  0.4713 -0.2673
  161SAPE   O2118021   5.037   1.145   6.685 -0.1620 -0.2588  0.0261
  161SAPE   C2118022   5.170   1.134   6.693 -0.1525 -0.2083  0.5302
  161SAPE   O2218023   5.260   1.216   6.662 -0.1270  0.0490  0.4549
  161SAPE   C2218024   5.195   0.991   6.722  0.5195  0.1988  0.8372
  161SAPE   H2R18025   5.172   0.934   6.630 -0.6403 -0.2292  1.3772
  161SAPE   H2S18026   5.303   0.971   6.743  0.8644  0.6661 -0.3933
  161SAPE    C318027   4.851   1.300   6.697 -0.3620  0.3502  0.6630
  161SAPE    HX18028   4.844   1.264   6.802 -0.6400 -1.2189  0.1460
  161SAPE    HY18029   4.779   1.233   6.645 -2.1410  3.9101 -1.7844
  161SAPE   O3118030   4.806   1.430   6.675  0.2757 -0.3271 -0.6673
  161SAPE   C3118031   4.846   1.524   6.755  0.5894 -0.0659 -0.0276
  161SAPE   O3218032   4.932   1.506   6.841  0.2315  0.1427  0.2983
  161SAPE   C3218033   4.787   1.662   6.699  0.1555  0.0519 -1.0469
  161SAPE   H2X18034   4.813   1.656   6.591  0.3917 -2.4165 -0.9135
  161SAPE   H2Y18035   4.845   1.742   6.751  0.6078 -1.6409  1.2234
  161SAPE   C2318036   5.117   0.911   6.830 -0.2049  0.0651 -0.0805
  161SAPE   H3R18037   5.161   0.810   6.847  0.0569 -0.1580 -1.8953
  161SAPE   H3S18038   5.012   0.889   6.802  0.3007  0.3383 -2.3577
  161SAPE   C2418039   5.101   0.988   6.969  0.0032  0.3395 -0.2158
  161SAPE   H4R18040   5.042   0.918   7.033  2.1721  0.6687  2.3338
  161SAPE   H4S18041   5.043   1.083   6.963 -0.8164  0.1150  2.6993
  161SAPE   C2518042   5.232   1.011   7.031 -0.3606  0.6666 -0.0749
  161SAPE   H5R18043   5.288   0.916   7.039 -2.0218 -0.3835 -0.4751
  161SAPE   C2618044   5.292   1.121   7.080 -0.1449  0.1916  0.3240
  161SAPE   H6R18045   5.395   1.113   7.118  0.3892 -3.4281 -1.3841
  161SAPE   C2718046   5.242   1.262   7.075 -0.3423  0.7976  0.0798
  161SAPE   H7R18047   5.162   1.274   7.150 -1.1822 -0.8896 -0.4939
  161SAPE   H7S18048   5.191   1.282   6.978 -0.2453 -1.3936 -0.4825
  161SAPE   C2818049   5.343   1.371   7.121 -0.7630  0.6373 -0.9554
  161SAPE   H8R18050   5.391   1.430   7.041  1.3458  0.0493 -0.1983
  161SAPE   C2918051   5.382   1.404   7.248  0.3673 -0.5726 -0.4829
  161SAPE   H9R18052   5.447   1.490   7.269 -0.2712 -0.2068  0.0245
  161SAPE  C21018053   5.330   1.344   7.378  1.2523  0.4015 -0.2825
  161SAPE  H10R18054   5.272   1.253   7.353 -2.4917  2.0422  1.6616
  161SAPE  H10S18055   5.255   1.411   7.424  1.4462 -0.4359  1.3259
  161SAPE  C21118056   5.445   1.308   7.466 -0.1298 -0.6632 -0.0442
  161SAPE  H11R18057   5.488   1.208   7.448 -1.5352 -0.9439 -2.2796
  161SAPE  C21218058   5.504   1.403   7.538  0.6772  0.4025 -0.5726
  161SAPE  H12R18059   5.595   1.374   7.594  0.0944 -1.1694 -0.3989
  161SAPE  C21318060   5.456   1.548   7.560 -0.2419 -0.1720 -0.2830
  161SAPE  H13R18061   5.354   1.543   7.603 -0.0419  3.4389  0.9847
  161SAPE  H13S18062   5.453   1.604   7.464  0.0626 -0.2371 -0.3332
  161SAPE  C21418063   5.558   1.623   7.648  0.5218  0.1032  0.3448
  161SAPE  H14R18064   5.664   1.605   7.623  0.3378 -2.0728  0.9685
  161SAPE  C21518065   5.532   1.689   7.762 -0.5808  0.1064 -0.2140
  161SAPE  H15R18066   5.612   1.744   7.814  0.1543 -0.0934 -1.1247
  161SAPE  C21618067   5.397   1.713   7.827 -0.5350 -0.1837  0.1077
  161SAPE  H16R18068   5.311   1.666   7.775 -0.5509 -0.0575  0.0201
  161SAPE  H16S18069   5.381   1.823   7.823  0.4422 -0.0675 -1.1612
  161SAPE  C21718070   5.393   1.652   7.974  0.5849 -0.6018 -1.2020
  161SAPE  H17R18071   5.488   1.678   8.027 -0.0607 -0.1737 -0.2261
  161SAPE  H17S18072   5.379   1.542   7.972 -1.8993 -0.3571 -0.0716
  161SAPE  C21818073   5.279   1.712   8.057  0.4981 -0.3036 -0.8998
  161SAPE  H18R18074   5.181   1.700   8.007 -1.1707  2.1566  1.4842
  161SAPE  H18S18075   5.291   1.822   8.070 -0.0798 -0.3360  0.0033
  161SAPE  C21918076   5.259   1.649   8.196  0.1816 -0.0290 -0.5476
  161SAPE  H19R18077   5.353   1.661   8.255  2.4368 -0.6427 -3.7554
  161SAPE  H19S18078   5.224   1.544   8.186  0.8509 -0.2847 -0.2876
  161SAPE  C22018079   5.142   1.707   8.267  1.1537 -0.1352 -0.2211
  161SAPE  H20R18080   5.101   1.640   8.346  0.5846  2.1255  1.5074
  161SAPE  H20S18081   5.067   1.734   8.190  0.2761 -0.2547  0.5742
  161SAPE  H20T18082   5.163   1.803   8.319 -1.7148  0.3277  0.2413
  161SAPE   C3318083   4.632   1.670   6.723  0.1299 -0.6577 -0.8380
  161SAPE   H3X18084   4.589   1.574   6.686 -0.1713 -0.5725 -0.7100
  161SAPE   H3Y18085   4.591   1.750   6.659 -1.9856 -1.0242 -0.0355
  161SAPE   C3418086   4.587   1.688   6.870 -0.0146 -0.7372  0.0939
  161SAPE   H4X18087   4.483   1.729   6.866  0.6351  1.0545  0.6335
  161SAPE   H4Y18088   4.635   1.775   6.919 -0.1585  0.1785 -1.3208
  161SAPE   C3518089   4.592   1.558   6.953 -0.1307  0.1844 -0.0574
  161SAPE   H5X18090   4.694   1.553   6.998  1.0690  3.9028 -1.9632
  161SAPE   H5Y18091   4.570   1.466   6.896 -1.1753 -0.0218  0.6404
  161SAPE   C3618092   4.490   1.563   7.070 -0.1062  0.1706  0.0916
  161SAPE   H6X18093   4.388   1.550   7.028  0.0304 -0.2925 -0.1121
  161SAPE   H6Y18094   4.502   1.668   7.104  2.4567  0.1540 -0.5335
  161SAPE   C3718095   4.518   1.468   7.184  0.0908  0.3079  0.1139
  161SAPE   H7X18096   4.584   1.519   7.257  0.1000  0.0333  0.2951
  161SAPE   H7Y18097   4.573   1.378   7.148 -0.4063  0.4616 -1.1094
  161SAPE   C3818098   4.389   1.420   7.257 -0.3103 -0.8938 -0.6975
  161SAPE   H8X18099   4.318   1.360   7.196 -1.8194 -0.2714  0.3843
  161SAPE   H8Y18100   4.326   1.509   7.281  1.2942  0.4816 -1.3501
  161SAPE   C3918101   4.410   1.329   7.382 -0.3879  0.1226 -0.8512
  161SAPE   H9X18102   4.499   1.272   7.349  0.4942  1.1892 -0.3842
  161SAPE   H9Y18103   4.330   1.254   7.398 -2.1288  1.8001 -1.2724
  161SAPE  C31018104   4.442   1.409   7.509 -0.0904  0.1934  0.4146
  161SAPE  H10X18105   4.364   1.487   7.527 -1.8976 -1.7190  1.3053
  161SAPE  H10Y18106   4.537   1.465   7.498 -0.0390 -0.2950 -2.2910
  161SAPE  C31118107   4.444   1.334   7.644 -0.3348 -0.3816  0.2868
  161SAPE  H11X18108   4.525   1.258   7.648  1.8857  1.6573 -2.2363
  161SAPE  H11Y18109   4.347   1.280   7.649 -0.3203 -0.4394 -0.0343
  161SAPE  C31218110   4.442   1.439   7.759  0.3319  0.3525  0.2545
  161SAPE  H12X18111   4.340   1.484   7.755 -0.3305 -0.9258  1.8132
  161SAPE  H12Y18112   4.512   1.520   7.730 -2.3961  2.3090 -1.4001
  161SAPE  C31318113   4.478   1.394   7.897 -0.8377 -0.0864 -0.2708
  161SAPE  H13X18114   4.577   1.343   7.888 -1.4582 -1.3195 -0.2709
  161SAPE  H13Y18115   4.410   1.310   7.923  1.0145 -1.4761  0.3294
  161SAPE  C31418116   4.450   1.503   7.999 -0.0598 -0.7027 -0.5305
  161SAPE  H14X18117   4.346   1.540   7.983  0.7125  2.1526  0.3371
  161SAPE  H14Y18118   4.517   1.592   7.989 -2.3396  1.2236  0.3656
  161SAPE  C31518119   4.444   1.458   8.149  0.0783  0.8091 -0.0369
  161SAPE  H15X18120   4.547   1.431   8.184 -0.7819 -0.4081  1.6946
  161SAPE  H15Y18121   4.392   1.360   8.156  1.0259  0.2276 -0.7492
  161SAPE  C31618122   4.377   1.568   8.237  0.0905  0.3316 -0.0915
  161SAPE  H16X18123   4.272   1.584   8.208 -0.0203  0.7721  0.5335
  161SAPE  H16Y18124   4.436   1.662   8.235  1.3188 -0.2422  2.8253
  161SAPE  C31718125   4.387   1.523   8.384 -0.5946 -0.2497 -1.1220
  161SAPE  H17X18126   4.493   1.530   8.418 -0.9182 -0.6799  0.0289
  161SAPE  H17Y18127   4.355   1.417   8.376 -0.3437 -0.2933 -1.6103
  161SAPE  C31818128   4.296   1.582   8.490  0.1359 -0.0324  0.4477
  161SAPE  H18X18129   4.197   1.587   8.441  0.6630  1.8032 -0.5492
  161SAPE  H18Y18130   4.338   1.683   8.510 -1.8113  1.4319 -2.1785
  161SAPE  H18Z18131   4.302   1.520   8.582  0.7599 -0.2987  0.2395
  162SAPE     N18132   1.935   1.018   6.218  0.2531  0.3656  0.2285
  162SAPE   HN118133   1.920   0.920   6.251  1.6477 -0.0572 -0.3033
  162SAPE   HN218134   1.909   1.016   6.117 -0.3602  1.1730  0.3640
  162SAPE   HN318135   2.037   1.039   6.215  0.3044  0.0475 -0.4132
  162SAPE   C1218136   1.856   1.124   6.289 -0.2136 -0.2133 -0.3030
  162SAPE  H12A18137   1.774   1.078   6.348  0.3055 -0.6417  0.0900
  162SAPE  H12B18138   1.813   1.191   6.211 -0.8087  0.0579  0.2449
  162SAPE   C1118139   1.943   1.205   6.395  0.4104 -0.4458 -0.2528
  162SAPE  H11A18140   1.986   1.131   6.466  3.5254  0.6567 -0.8646
  162SAPE  H11B18141   1.866   1.261   6.453  1.2666 -1.3372  1.8602
  162SAPE     P18142   2.011   1.433   6.309 -0.1419  0.3529 -0.0212
  162SAPE   O1318143   2.093   1.489   6.198  0.0103  0.3037  0.1298
  162SAPE   O1418144   1.867   1.455   6.295 -0.6470 -0.0437  0.1479
  162SAPE   O1218145   2.048   1.283   6.335 -0.7442  0.0338  0.4385
  162SAPE   O1118146   2.049   1.499   6.449 -0.1462 -0.3160  0.1391
  162SAPE    C118147   2.161   1.457   6.521  0.1021  0.0645 -0.9056
  162SAPE    HA18148   2.230   1.389   6.467  1.4815 -0.2000  1.0574
  162SAPE    HB18149   2.232   1.542   6.531  0.1478 -0.0356 -0.3241
  162SAPE    C218150   2.129   1.418   6.670  0.7103  0.6122 -0.0561
  162SAPE    HS18151   2.088   1.314   6.669  1.4227  0.3061  0.7225
  162SAPE   O2118152   2.049   1.513   6.742  1.0187 -0.9109  0.3030
  162SAPE   C2118153   1.950   1.471   6.818 -0.0901  0.9153 -0.1151
  162SAPE   O2218154   1.927   1.353   6.835  0.5585  0.1142  0.4172
  162SAPE   C2218155   1.888   1.579   6.893  0.1184 -0.0261 -0.3767
  162SAPE   H2R18156   1.939   1.673   6.860  2.8976 -1.3725 -0.2024
  162SAPE   H2S18157   1.785   1.589   6.853  0.3015  1.0966 -0.6108
  162SAPE    C318158   2.263   1.398   6.744 -1.0576 -0.1936 -0.5506
  162SAPE    HX18159   2.327   1.489   6.742 -2.6806  1.0606  1.2314
  162SAPE    HY18160   2.325   1.325   6.687 -1.7856 -0.1052 -1.4938
  162SAPE   O3118161   2.252   1.353   6.879  0.0061 -0.1435  0.2796
  162SAPE   C3118162   2.202   1.223   6.906  0.1234 -0.6244  0.4748
  162SAPE   O3218163   2.183   1.145   6.820  0.4159  0.2859 -0.2651
  162SAPE   C3218164   2.189   1.208   7.056  0.0639  0.7955 -0.1898
  162SAPE   H2X18165   2.158   1.108   7.093 -2.3266  2.6485  3.4900
  162SAPE   H2Y18166   2.107   1.276   7.087  0.1246 -0.4717  3.1551
  162SAPE   C2318167   1.903   1.555   7.045  0.9289 -0.3091  0.1826
  162SAPE   H3R18168   1.877   1.450   7.069 -0.0770  0.2866  1.8075
  162SAPE   H3S18169   1.846   1.631   7.103  0.5228 -0.0984 -0.4688
  162SAPE   C2418170   2.057   1.580   7.075  0.3171  0.1106  0.2323
  162SAPE   H4R18171   2.083   1.678   7.029  2.9831 -1.1039 -1.0599
  162SAPE   H4S18172   2.116   1.503   7.022 -0.2896  0.2884 -0.7297
  162SAPE   C2518173   2.085   1.573   7.220 -0.3679  0.1813  0.2561
  162SAPE   H5R18174   2.067   1.475   7.266  0.9889  0.8958  2.4283
  162SAPE   C2618175   2.122   1.673   7.305 -0.4343  0.3226 -0.5135
  162SAPE   H6R18176   2.152   1.642   7.406  0.8799 -0.3784 -1.0917
  162SAPE   C2718177   2.148   1.818   7.279 -0.1084 -0.1684 -1.2146
  162SAPE   H7R18178   2.065   1.879   7.321 -1.4712 -3.0991  0.6044
  162SAPE   H7S18179   2.147   1.825   7.168 -0.7904 -1.9578 -1.3487
  162SAPE   C2818180   2.274   1.877   7.336  0.1537 -0.3471  0.2564
  162SAPE   H8R18181   2.349   1.898   7.259 -0.2015 -1.6225 -0.4615
  162SAPE   C2918182   2.306   1.901   7.462 -0.3979 -0.3788  0.5523
  162SAPE   H9R18183   2.402   1.952   7.478 -1.1952  1.6031 -0.6465
  162SAPE  C21018184   2.229   1.868   7.588 -0.1941 -0.5211  1.0508
  162SAPE  H10R18185   2.122   1.844   7.566 -0.2704 -1.0808  2.0263
  162SAPE  H10S18186   2.229   1.961   7.648  0.6858  0.7150 -0.7522
  162SAPE  C21118187   2.287   1.745   7.645 -0.5418 -0.9399  0.4102
  162SAPE  H11R18188   2.284   1.652   7.586  0.9704 -0.0556 -1.1418
  162SAPE  C21218189   2.346   1.749   7.769  0.2711 -0.2623 -0.3446
  162SAPE  H12R18190   2.389   1.652   7.798  0.1097 -0.7954 -1.8018
  162SAPE  C21318191   2.362   1.871   7.862 -0.0901  0.2410 -0.3039
  162SAPE  H13R18192   2.269   1.885   7.920  1.7785  2.2272  2.4520
  162SAPE  H13S18193   2.382   1.970   7.816 -1.7650 -0.8880 -3.8105
  162SAPE  C21418194   2.472   1.845   7.960  0.1486 -0.3178  0.1169
  162SAPE  H14R18195   2.565   1.900   7.941 -0.1829  0.4032  0.5415
  162SAPE  C21518196   2.464   1.761   8.067  0.9810 -0.2853 -0.0042
  162SAPE  H15R18197   2.546   1.762   8.139 -1.6553  0.2756  3.2368
  162SAPE  C21618198   2.346   1.680   8.114  0.1260 -0.0104  0.3201
  162SAPE  H16R18199   2.344   1.585   8.056 -1.8230 -0.1476  0.5446
  162SAPE  H16S18200   2.249   1.730   8.097 -0.8725 -2.1903 -0.9039
  162SAPE  C21718201   2.337   1.642   8.260 -0.5397  0.0430 -0.1874
  162SAPE  H17R18202   2.354   1.723   8.335 -1.1441  1.2741 -1.3425
  162SAPE  H17S18203   2.417   1.567   8.278 -0.6948 -0.9232 -3.0934
  162SAPE  C21818204   2.207   1.577   8.303 -0.6244 -0.1741  0.3831
  162SAPE  H18R18205   2.197   1.489   8.235 -0.8336  1.1929 -1.4407
  162SAPE  H18S18206   2.116   1.641   8.298 -0.6129 -0.0354  1.6479
  162SAPE  C21918207   2.190   1.512   8.443 -0.1596  0.6695  0.3357
  162SAPE  H19R18208   2.216   1.582   8.526  0.4651  1.6031 -0.6135
  162SAPE  H19S18209   2.255   1.422   8.443 -0.2736  0.4860 -2.6181
  162SAPE  C22018210   2.044   1.476   8.472  0.1074 -0.0918  0.5861
  162SAPE  H20R18211   2.023   1.446   8.577 -0.6391 -3.5451 -0.4256
  162SAPE  H20S18212   2.014   1.391   8.407  0.5083  0.2852 -0.0991
  162SAPE  H20T18213   1.986   1.567   8.450  1.3312  0.7822  0.8544
  162SAPE   C3318214   2.318   1.232   7.141 -0.0113 -0.6997 -0.3191
  162SAPE   H3X18215   2.367   1.324   7.102 -1.1952  0.7287  1.3640
  162SAPE   H3Y18216   2.386   1.144   7.132 -1.7365 -2.2519  0.9316
  162SAPE   C3418217   2.284   1.251   7.293  0.5899  0.4995  0.5778
  162SAPE   H4X18218   2.221   1.164   7.321  1.1571  0.3138  1.2916
  162SAPE   H4Y18219   2.210   1.333   7.285  0.4734  0.2726 -0.9747
  162SAPE   C3518220   2.406   1.279   7.381  0.8431  0.1742 -0.5093
  162SAPE   H5X18221   2.474   1.349   7.327  2.1479  1.0905  2.1537
  162SAPE   H5Y18222   2.456   1.180   7.387  1.3902  0.4097 -1.0483
  162SAPE   C3618223   2.384   1.336   7.517 -0.3644  0.3510 -0.7254
  162SAPE   H6X18224   2.325   1.261   7.575 -0.0210 -1.2359 -2.3391
  162SAPE   H6Y18225   2.333   1.433   7.500 -1.2498 -0.0888 -0.6071
  162SAPE   C3718226   2.515   1.348   7.589 -0.1380  0.2747  0.0476
  162SAPE   H7X18227   2.566   1.433   7.538 -0.1436  1.2123  1.5498
  162SAPE   H7Y18228   2.579   1.258   7.581  0.1988  0.6210 -1.6475
  162SAPE   C3818229   2.514   1.370   7.742  0.2986  0.8020 -0.2644
  162SAPE   H8X18230   2.438   1.447   7.765  0.1928  0.1235  1.9223
  162SAPE   H8Y18231   2.619   1.404   7.757  1.0685 -0.3248 -2.6742
  162SAPE   C3918232   2.487   1.247   7.836  0.0416 -0.3489  0.9179
  162SAPE   H9X18233   2.528   1.160   7.781 -0.1921 -0.6017  1.1350
  162SAPE   H9Y18234   2.377   1.229   7.847 -0.2747  0.9628  0.1447
  162SAPE  C31018235   2.549   1.251   7.975  0.2463 -0.2943  0.1982
  162SAPE  H10X18236   2.507   1.170   8.040 -1.4005 -1.8551 -2.5825
  162SAPE  H10Y18237   2.527   1.350   8.018 -1.2601 -0.6295  0.2535
  162SAPE  C31118238   2.701   1.231   7.966  0.1753 -0.7037  0.0596
  162SAPE  H11X18239   2.752   1.304   7.900 -1.2477  0.0948 -0.2137
  162SAPE  H11Y18240   2.718   1.130   7.922  0.2257  0.0723 -1.7825
  162SAPE  C31218241   2.777   1.227   8.101  0.3799 -0.3462  0.8125
  162SAPE  H12X18242   2.868   1.165   8.092  0.2586 -0.4272  0.1300
  162SAPE  H12Y18243   2.699   1.188   8.170 -1.7115  1.3792 -0.4524
  162SAPE  C31318244   2.793   1.369   8.155 -1.2897  0.2042 -0.1251
  162SAPE  H13X18245   2.693   1.418   8.158 -1.3510  0.1004 -0.4521
  162SAPE  H13Y18246   2.843   1.428   8.076 -0.3123  0.8173  0.9265
  162SAPE  C31418247   2.871   1.374   8.287  0.3760 -0.1778  1.0198
  162SAPE  H14X18248   2.980   1.357   8.281  0.6833  1.9984 -2.1151
  162SAPE  H14Y18249   2.829   1.291   8.348  0.5350 -2.8118 -2.1780
  162SAPE  C31518250   2.854   1.507   8.359  0.5831 -0.1690 -0.0875
  162SAPE  H15X18251   2.858   1.590   8.284 -0.6071  0.4473  0.4997
  162SAPE  H15Y18252   2.944   1.517   8.423  0.7801 -0.1036 -0.3726
  162SAPE  C31618253   2.719   1.516   8.430 -0.2812 -0.9110 -0.2071
  162SAPE  H16X18254   2.698   1.419   8.481 -0.0729  0.3084  2.3289
  162SAPE  H16Y18255   2.643   1.538   8.352 -0.8955  0.4275  0.7422
  162SAPE  C31718256   2.707   1.621   8.538 -0.0936 -0.3236 -0.2385
  162SAPE  H17X18257   2.707   1.718   8.483  1.2157 -0.4498 -0.5027
  162SAPE  H17Y18258   2.797   1.621   8.603  0.9340  1.9945 -1.5067
  162SAPE  C31818259   2.580   1.601   8.623 -0.4146 -0.4901 -0.2044
  162SAPE  H18X18260   2.490   1.610   8.559  0.2820 -2.2686 -1.4885
  162SAPE  H18Y18261   2.570   1.689   8.690  0.3849  0.9238 -1.8618
  162SAPE  H18Z18262   2.587   1.505   8.679 -0.1253  0.2676  1.1148
  163SAPE     N18263   0.843   6.157   6.550  0.1004  0.2576  0.3055
  163SAPE   HN118264   0.819   6.061   6.518  2.3735  0.2407 -1.6075
  163SAPE   HN218265   0.845   6.215   6.463 -1.9034 -0.9240 -0.5936
  163SAPE   HN318266   0.939   6.153   6.590 -0.7271  0.7650  2.4543
  163SAPE   C1218267   0.739   6.200   6.650  1.0480 -0.1999 -0.6485
  163SAPE  H12A18268   0.698   6.112   6.705 -0.1600  1.4941  1.3184
  163SAPE  H12B18269   0.658   6.248   6.591 -0.0243  0.4263  1.2451
  163SAPE   C1118270   0.787   6.291   6.757 -0.0569  0.1780  0.1266
  163SAPE  H11A18271   0.856   6.246   6.832 -0.2002  0.1461  0.2385
  163SAPE  H11B18272   0.695   6.327   6.807 -0.4293 -0.5821  0.0017
  163SAPE     P18273   0.808   6.544   6.669  0.0299  0.1792  0.4660
  163SAPE   O1318274   0.920   6.626   6.621  0.2712 -0.2609 -0.1239
  163SAPE   O1418275   0.687   6.535   6.584 -0.2200  0.1196 -0.4851
  163SAPE   O1218276   0.861   6.404   6.697  0.1197  0.0691 -0.4395
  163SAPE   O1118277   0.778   6.585   6.811  0.0936  0.1643  0.1615
  163SAPE    C118278   0.873   6.602   6.921 -0.1145  0.2226  0.4168
  163SAPE    HA18279   0.970   6.550   6.910 -0.0687  0.3737  0.1032
  163SAPE    HB18280   0.911   6.706   6.927  1.0589 -0.0480 -1.4245
  163SAPE    C218281   0.804   6.559   7.053  1.1663  0.3688  0.0180
  163SAPE    HS18282   0.858   6.608   7.136  0.5182  2.6627 -0.8148
  163SAPE   O2118283   0.799   6.416   7.074 -0.0091  0.6944  0.1003
  163SAPE   C2118284   0.797   6.373   7.200 -0.6185 -0.0217 -0.4543
  163SAPE   O2218285   0.806   6.437   7.302 -0.2347 -0.2540 -0.0313
  163SAPE   C2218286   0.784   6.214   7.209  1.0256  0.6194  0.1680
  163SAPE   H2R18287   0.677   6.187   7.199  1.2976 -0.7884  0.7752
  163SAPE   H2S18288   0.845   6.176   7.125 -1.2492  0.1120 -1.3447
  163SAPE    C318289   0.654   6.613   7.055 -0.2601 -0.3384  0.8392
  163SAPE    HX18290   0.613   6.569   6.962  0.6628 -0.7877  0.6324
  163SAPE    HY18291   0.645   6.723   7.044  1.4399 -0.1252  1.3350
  163SAPE   O3118292   0.582   6.573   7.178 -0.2629  0.0247 -0.1706
  163SAPE   C3118293   0.576   6.667   7.266 -0.0442  0.0166 -0.1358
  163SAPE   O3218294   0.613   6.782   7.249  0.2203 -0.4337  0.1842
  163SAPE   C3218295   0.501   6.617   7.392 -0.6634  0.3915  0.5469
  163SAPE   H2X18296   0.524   6.514   7.426 -2.1635 -0.9711 -2.2025
  163SAPE   H2Y18297   0.395   6.612   7.358 -0.8036  0.3975  0.9828
  163SAPE   C2318298   0.841   6.156   7.337 -0.4676  0.5284 -0.1332
  163SAPE   H3R18299   0.793   6.058   7.359 -0.0129  0.0885 -1.0335
  163SAPE   H3S18300   0.816   6.229   7.417 -0.0728  1.5774 -0.9443
  163SAPE   C2418301   0.998   6.150   7.336 -0.0815  0.0692 -0.8911
  163SAPE   H4R18302   1.043   6.250   7.350  0.4262 -0.3519  0.5983
  163SAPE   H4S18303   1.038   6.127   7.234  0.3468 -0.3439 -0.6357
  163SAPE   C2518304   1.044   6.035   7.418  0.3574  0.0815 -0.2026
  163SAPE   H5R18305   1.055   5.938   7.365  0.0823  0.5328 -1.1006
  163SAPE   C2618306   1.073   6.043   7.551 -0.3740  0.9436  0.7721
  163SAPE   H6R18307   1.108   5.950   7.598  0.6339 -0.9579 -3.2422
  163SAPE   C2718308   1.068   6.166   7.639  0.2891 -0.8002  1.5539
  163SAPE   H7R18309   1.001   6.148   7.725 -0.8528 -0.7409  0.7066
  163SAPE   H7S18310   1.017   6.248   7.585  1.3546  0.4994  2.4540
  163SAPE   C2818311   1.208   6.218   7.659 -0.0390 -0.1268 -0.5787
  163SAPE   H8R18312   1.271   6.222   7.569 -1.9007 -0.2689 -1.9385
  163SAPE   C2918313   1.256   6.246   7.782  0.4860  0.1383  0.3880
  163SAPE   H9R18314   1.361   6.281   7.785  0.3046  1.2280 -2.6964
  163SAPE  C21018315   1.179   6.235   7.912 -0.0722  0.1210  0.2716
  163SAPE  H10R18316   1.072   6.268   7.912  0.5830  2.4360  0.2671
  163SAPE  H10S18317   1.219   6.308   7.986 -1.0502  0.9284  0.0261
  163SAPE  C21118318   1.189   6.095   7.966  0.7004  0.1976  0.1665
  163SAPE  H11R18319   1.196   6.018   7.888  2.2062 -0.8675  1.3244
  163SAPE  C21218320   1.203   6.055   8.092 -0.7728 -0.2524 -0.0441
  163SAPE  H12R18321   1.209   5.950   8.126 -1.2396  0.2465  1.6536
  163SAPE  C21318322   1.192   6.148   8.207  0.2418 -0.5781  0.1336
  163SAPE  H13R18323   1.163   6.090   8.298  1.0608 -1.2251 -0.0013
  163SAPE  H13S18324   1.116   6.224   8.178  1.9003  0.7579 -0.8478
  163SAPE  C21418325   1.327   6.214   8.245  0.1655  0.6068  0.6623
  163SAPE  H14R18326   1.404   6.191   8.170  0.6527  0.6765  1.1376
  163SAPE  C21518327   1.337   6.296   8.354 -0.5012  0.0363 -0.1747
  163SAPE  H15R18328   1.440   6.322   8.384 -0.4503  1.0581 -1.1691
  163SAPE  C21618329   1.234   6.342   8.446 -0.1353  0.3575  0.6249
  163SAPE  H16R18330   1.132   6.321   8.409 -0.3647  0.8407  0.9745
  163SAPE  H16S18331   1.247   6.451   8.464  2.2034  0.0467  1.2291
  163SAPE  C21718332   1.243   6.283   8.592  0.2996  0.3571 -0.7395
  163SAPE  H17R18333   1.169   6.340   8.653 -0.1034 -1.0562  0.1262
  163SAPE  H17S18334   1.346   6.308   8.627 -0.5676  2.0700  0.7135
  163SAPE  C21818335   1.206   6.132   8.610  0.0739  0.6063 -0.5166
  163SAPE  H18R18336   1.234   6.075   8.518  2.5765  1.2670 -0.2444
  163SAPE  H18S18337   1.100   6.109   8.635  0.2557  0.3321  0.0320
  163SAPE  C21918338   1.283   6.064   8.725 -0.1949 -0.8395 -0.1559
  163SAPE  H19R18339   1.235   5.964   8.739 -0.3129 -0.7253  0.2832
  163SAPE  H19S18340   1.266   6.123   8.818  1.4992 -0.8135  0.1692
  163SAPE  C22018341   1.425   6.041   8.693 -0.6841  1.0210 -0.1662
  163SAPE  H20R18342   1.492   6.130   8.700 -0.2638  0.6228  1.0430
  163SAPE  H20S18343   1.435   6.013   8.586 -1.0230  0.8910 -0.1670
  163SAPE  H20T18344   1.468   5.957   8.750 -2.2988 -0.3644 -0.9105
  163SAPE   C3318345   0.473   6.722   7.505 -0.1475 -0.2411  0.1478
  163SAPE   H3X18346   0.399   6.676   7.574  1.1283 -4.3295 -0.9429
  163SAPE   H3Y18347   0.437   6.819   7.463 -2.4819 -0.6040  1.1386
  163SAPE   C3418348   0.605   6.748   7.580 -0.6518  0.2046 -0.2468
  163SAPE   H4X18349   0.685   6.765   7.505  0.0954 -1.1251  0.2078
  163SAPE   H4Y18350   0.632   6.659   7.642 -0.2083  0.5920  0.1309
  163SAPE   C3518351   0.599   6.876   7.664 -0.2777  0.3520 -0.3443
  163SAPE   H5X18352   0.544   6.952   7.604  1.4269 -0.1917 -2.7236
  163SAPE   H5Y18353   0.705   6.909   7.674  0.0982 -0.5218 -1.3481
  163SAPE   C3618354   0.550   6.860   7.808 -0.5741 -0.5500 -0.4587
  163SAPE   H6X18355   0.615   6.791   7.866 -0.4217 -0.3370 -0.3729
  163SAPE   H6Y18356   0.442   6.832   7.813 -0.3086 -1.5902 -0.3123
  163SAPE   C3718357   0.569   6.998   7.884  0.1877 -0.6269 -0.4971
  163SAPE   H7X18358   0.514   7.078   7.829 -0.5624  0.7616  2.0940
  163SAPE   H7Y18359   0.675   7.029   7.891  0.5510 -1.3419 -2.1184
  163SAPE   C3818360   0.515   6.976   8.026  0.5115  0.5896  0.0895
  163SAPE   H8X18361   0.595   6.992   8.102  0.6075 -2.7648  0.8516
  163SAPE   H8Y18362   0.491   6.868   8.032 -1.2903  1.0080  0.8327
  163SAPE   C3918363   0.388   7.050   8.073 -0.3835  0.6442  0.2503
  163SAPE   H9X18364   0.344   7.002   8.162  1.5376 -0.1587  0.8293
  163SAPE   H9Y18365   0.321   7.040   7.985 -0.9576 -2.6933  0.9481
  163SAPE  C31018366   0.415   7.195   8.104  0.5202 -1.0416 -0.1213
  163SAPE  H10X18367   0.318   7.246   8.121  1.0813 -0.1704  0.5746
  163SAPE  H10Y18368   0.471   7.241   8.020  2.0570 -0.6256  1.0860
  163SAPE  C31118369   0.501   7.223   8.233 -0.9719  0.0415  0.4678
  163SAPE  H11X18370   0.607   7.235   8.201 -0.7183 -1.6540  0.5414
  163SAPE  H11Y18371   0.492   7.131   8.295 -1.9104 -0.6449 -0.6503
  163SAPE  C31218372   0.453   7.346   8.309 -0.6384 -0.4803  0.5646
  163SAPE  H12X18373   0.343   7.356   8.317 -0.5354 -0.3250  2.0638
  163SAPE  H12Y18374   0.499   7.431   8.256  2.0579 -2.5127 -0.5813
  163SAPE  C31318375   0.495   7.338   8.460  0.2151 -0.0953  0.0879
  163SAPE  H13X18376   0.597   7.294   8.464  0.8829  1.5038  1.5897
  163SAPE  H13Y18377   0.424   7.265   8.507  2.4526 -1.9399  0.7831
  163SAPE  C31418378   0.485   7.475   8.530 -0.4979 -0.6541 -0.5258
  163SAPE  H14X18379   0.378   7.503   8.542  0.3672  2.5140  0.7295
  163SAPE  H14Y18380   0.537   7.547   8.463  2.4966 -2.1300  0.0548
  163SAPE  C31518381   0.540   7.489   8.673  0.2332 -0.4805  0.6475
  163SAPE  H15X18382   0.649   7.473   8.664 -0.3325 -3.5036 -2.7516
  163SAPE  H15Y18383   0.508   7.404   8.737  0.3652  0.5155  2.1007
  163SAPE  C31618384   0.511   7.628   8.741  0.4565 -0.2176 -0.1848
  163SAPE  H16X18385   0.561   7.632   8.840  2.0730 -1.3669 -0.9177
  163SAPE  H16Y18386   0.403   7.623   8.767  0.2720 -0.6928 -1.0220
  163SAPE  C31718387   0.539   7.763   8.666 -0.3326  0.3470 -0.5348
  163SAPE  H17X18388   0.494   7.854   8.712  0.7844  1.3097 -1.2653
  163SAPE  H17Y18389   0.483   7.752   8.570 -1.7370 -0.9732  0.3940
  163SAPE  C31818390   0.687   7.785   8.642  0.1965 -0.9606  0.1304
  163SAPE  H18X18391   0.744   7.696   8.607  2.7275  2.1402 -4.7167
  163SAPE  H18Y18392   0.725   7.818   8.741 -0.7054  3.8470 -0.8935
  163SAPE  H18Z18393   0.712   7.869   8.574  1.5452 -2.3255 -1.1549
  164SAPE     N18394   4.113   2.707   6.231 -0.4788 -0.0203  0.6491
  164SAPE   HN118395   4.145   2.625   6.176 -1.1654  1.1344 -1.6058
  164SAPE   HN218396   4.140   2.787   6.169  1.4484 -0.0610  1.3684
  164SAPE   HN318397   4.168   2.711   6.319 -0.2909  1.3725  0.4951
  164SAPE   C1218398   3.962   2.705   6.243 -0.2596 -0.0241 -0.0664
  164SAPE  H12A18399   3.922   2.800   6.283  0.0417 -1.1128  3.0990
  164SAPE  H12B18400   3.949   2.623   6.317 -0.1603  1.9366  2.2420
  164SAPE   C1118401   3.886   2.669   6.121  0.0803  0.5969  0.6269
  164SAPE  H11A18402   3.899   2.739   6.036 -1.4400 -1.7644 -1.7166
  164SAPE  H11B18403   3.778   2.682   6.144  0.0921 -1.1957  1.9509
  164SAPE     P18404   3.826   2.406   6.094  0.0616 -0.5830  0.2114
  164SAPE   O1318405   3.804   2.358   5.957  1.0486  0.0597  0.2352
  164SAPE   O1418406   3.889   2.315   6.185  0.0836 -0.4848 -0.4735
  164SAPE   O1218407   3.909   2.535   6.079 -0.2761  0.1744 -0.3054
  164SAPE   O1118408   3.687   2.462   6.149 -0.5266 -0.8626  0.2410
  164SAPE    C118409   3.610   2.380   6.236 -0.3876  0.8608 -0.4331
  164SAPE    HA18410   3.505   2.387   6.201 -0.9007 -0.8588  0.6306
  164SAPE    HB18411   3.644   2.275   6.223  2.7433  1.6964  0.3114
  164SAPE    C218412   3.622   2.421   6.379 -0.6578 -0.9959 -0.9247
  164SAPE    HS18413   3.730   2.437   6.403 -0.5710 -2.3111 -0.3532
  164SAPE   O2118414   3.570   2.321   6.466 -0.6814 -0.0841 -0.2000
  164SAPE   C2118415   3.618   2.320   6.592 -0.1380 -0.2727  0.7548
  164SAPE   O2218416   3.713   2.381   6.639  0.3429  0.1548 -0.0867
  164SAPE   C2218417   3.526   2.223   6.664 -0.1043  0.1258  0.4347
  164SAPE   H2R18418   3.430   2.271   6.688 -1.5912 -2.2400 -0.4107
  164SAPE   H2S18419   3.509   2.136   6.597 -0.5601 -1.5336  2.5665
  164SAPE    C318420   3.547   2.553   6.387 -0.3770 -0.6177 -0.1800
  164SAPE    HX18421   3.439   2.528   6.377 -1.2387  1.8280  1.7734
  164SAPE    HY18422   3.566   2.623   6.303  3.4578 -0.2280  0.8112
  164SAPE   O3118423   3.554   2.621   6.520 -0.1217 -0.7615  0.2456
  164SAPE   C3118424   3.662   2.699   6.526 -0.8968 -0.0455 -0.1881
  164SAPE   O3218425   3.735   2.736   6.430  0.2202  0.2760  0.1835
  164SAPE   C3218426   3.694   2.723   6.673  0.1228  0.5174  0.6242
  164SAPE   H2X18427   3.717   2.621   6.711  3.9222  1.6112  1.7452
  164SAPE   H2Y18428   3.603   2.756   6.727  1.1462  0.8124  2.2697
  164SAPE   C2318429   3.586   2.177   6.796  0.3751  0.1818 -0.0274
  164SAPE   H3R18430   3.630   2.261   6.854 -4.5087  2.6672  0.6158
  164SAPE   H3S18431   3.661   2.096   6.786  2.4513  1.9030  0.6978
  164SAPE   C2418432   3.477   2.137   6.895 -1.5050  0.3124 -0.4125
  164SAPE   H4R18433   3.409   2.224   6.910  0.2361  1.7209 -0.3372
  164SAPE   H4S18434   3.519   2.129   6.998 -1.4360 -1.0463 -0.5225
  164SAPE   C2518435   3.400   2.008   6.876 -0.5012 -0.2277  0.7949
  164SAPE   H5R18436   3.385   1.969   6.775 -1.1945  0.7568  0.5155
  164SAPE   C2618437   3.358   1.926   6.978  0.8731 -0.5436 -0.6040
  164SAPE   H6R18438   3.294   1.838   6.963 -0.8899  0.7289 -0.8443
  164SAPE   C2718439   3.385   1.951   7.121 -0.2833 -0.3137 -0.8261
  164SAPE   H7R18440   3.329   1.876   7.181  1.0722 -0.1419  0.7322
  164SAPE   H7S18441   3.349   2.049   7.159  1.9776 -0.2470  1.4081
  164SAPE   C2818442   3.532   1.930   7.159  0.5335 -0.2810 -0.4886
  164SAPE   H8R18443   3.593   1.852   7.111  0.8997  0.0632 -0.5883
  164SAPE   C2918444   3.594   1.981   7.268 -0.0724  0.3190  0.1003
  164SAPE   H9R18445   3.695   1.949   7.297 -0.0045 -0.8882 -1.3709
  164SAPE  C21018446   3.542   2.093   7.359  0.3259  0.3168  0.1816
  164SAPE  H10R18447   3.558   2.050   7.461  3.2914 -0.1438 -0.3958
  164SAPE  H10S18448   3.432   2.106   7.358  0.4353  2.0015  1.9830
  164SAPE  C21118449   3.599   2.227   7.352 -0.0677 -0.3613  0.0126
  164SAPE  H11R18450   3.602   2.269   7.250  1.7382  2.4488  1.1041
  164SAPE  C21218451   3.641   2.308   7.452  0.2262 -0.2346  0.3069
  164SAPE  H12R18452   3.675   2.410   7.432  1.2223 -0.4368  0.8616
  164SAPE  C21318453   3.641   2.266   7.598  0.2632  0.7096 -0.5103
  164SAPE  H13R18454   3.712   2.181   7.609 -0.3948  0.1168 -0.7819
  164SAPE  H13S18455   3.540   2.231   7.628  0.9739 -0.0904  1.0920
  164SAPE  C21418456   3.678   2.390   7.671  0.2963 -0.2752  0.6799
  164SAPE  H14R18457   3.611   2.476   7.659  0.2712 -0.1883  1.3787
  164SAPE  C21518458   3.784   2.396   7.756  0.1188 -0.1776 -0.3487
  164SAPE  H15R18459   3.798   2.486   7.817 -0.8283 -0.8866  0.9506
  164SAPE  C21618460   3.880   2.289   7.798  0.7484 -0.3044  0.2520
  164SAPE  H16R18461   3.976   2.326   7.756  0.2141 -0.8903 -1.5919
  164SAPE  H16S18462   3.856   2.195   7.743 -1.5033  0.0637  0.5144
  164SAPE  C21718463   3.892   2.260   7.946  0.1274  0.7361  0.0155
  164SAPE  H17R18464   3.801   2.210   7.985  0.1303  0.1685 -0.6757
  164SAPE  H17S18465   3.918   2.358   7.991  2.5188  0.9996 -1.7040
  164SAPE  C21818466   4.008   2.165   7.948 -1.2051  0.5076 -0.0194
  164SAPE  H18R18467   4.080   2.183   7.864 -0.1148 -1.8029  0.3290
  164SAPE  H18S18468   3.970   2.064   7.921  0.7748 -0.4154  0.4290
  164SAPE  C21918469   4.086   2.155   8.087  0.4986  0.1037  0.7026
  164SAPE  H19R18470   4.012   2.139   8.168 -1.3162  0.8298 -0.7311
  164SAPE  H19S18471   4.141   2.252   8.093 -0.0925  0.5994 -1.0470
  164SAPE  C22018472   4.180   2.034   8.071  0.7577  0.2650 -0.2512
  164SAPE  H20R18473   4.247   2.046   7.983  0.3368 -0.2498 -0.6453
  164SAPE  H20S18474   4.132   1.939   8.040  0.5728  0.6807 -1.2577
  164SAPE  H20T18475   4.251   2.034   8.157  1.6411  0.4196 -0.9628
  164SAPE   C3318476   3.823   2.813   6.684  0.0795  0.0407  0.5840
  164SAPE   H3X18477   3.826   2.907   6.625  1.8580  0.7223  1.6818
  164SAPE   H3Y18478   3.904   2.750   6.644 -1.5173 -1.2794 -0.7312
  164SAPE   C3418479   3.829   2.862   6.829  0.4476  0.6290 -0.0220
  164SAPE   H4X18480   3.737   2.914   6.862 -0.1354 -0.0862 -0.4627
  164SAPE   H4Y18481   3.913   2.934   6.841  4.7229 -3.2232 -3.0952
  164SAPE   C3518482   3.854   2.747   6.925 -0.5034 -0.4424 -0.0407
  164SAPE   H5X18483   3.955   2.717   6.890 -0.1731  2.0630 -1.4925
  164SAPE   H5Y18484   3.779   2.666   6.922  0.0425 -0.9297 -0.7432
  164SAPE   C3618485   3.887   2.793   7.070  0.0698  0.4664 -0.2497
  164SAPE   H6X18486   3.791   2.836   7.107 -0.0862 -0.4832  0.4823
  164SAPE   H6Y18487   3.960   2.877   7.073  1.2383 -0.4889 -1.2160
  164SAPE   C3718488   3.938   2.683   7.155 -0.3904 -0.0221 -0.3615
  164SAPE   H7X18489   4.044   2.655   7.133  0.1369 -0.9734  2.8147
  164SAPE   H7Y18490   3.888   2.586   7.134  0.7406 -0.6160 -0.4031
  164SAPE   C3818491   3.926   2.706   7.308 -0.3124 -0.2023 -0.4004
  164SAPE   H8X18492   3.821   2.694   7.342 -0.4727  0.7565 -0.5306
  164SAPE   H8Y18493   3.950   2.810   7.341 -0.4275 -0.6099  1.0509
  164SAPE   C3918494   4.017   2.615   7.395 -0.6463  0.1880  0.8697
  164SAPE   H9X18495   4.118   2.621   7.350 -1.3468  3.1373 -0.5367
  164SAPE   H9Y18496   3.997   2.509   7.368 -1.3334  0.9323 -1.8405
  164SAPE  C31018497   4.016   2.645   7.549 -0.0451  0.3754 -0.4363
  164SAPE  H10X18498   3.921   2.606   7.590 -0.9481  1.6594 -1.2160
  164SAPE  H10Y18499   4.015   2.756   7.554 -0.0519  0.3600 -0.1150
  164SAPE  C31118500   4.136   2.583   7.613 -0.4127 -0.0192 -0.3042
  164SAPE  H11X18501   4.223   2.643   7.579  0.6582 -0.9599  0.7174
  164SAPE  H11Y18502   4.148   2.477   7.585 -1.6831  0.0937 -1.4314
  164SAPE  C31218503   4.136   2.594   7.768 -0.0249 -0.3855  0.0260
  164SAPE  H12X18504   4.055   2.531   7.812 -1.6038 -0.0565 -2.2531
  164SAPE  H12Y18505   4.117   2.695   7.809  1.1428 -1.1294  2.5946
  164SAPE  C31318506   4.264   2.535   7.828  0.0526  0.0249 -0.1520
  164SAPE  H13X18507   4.351   2.594   7.793  0.0130  2.3375  3.1542
  164SAPE  H13Y18508   4.291   2.434   7.791  0.0750 -0.3215  0.7756
  164SAPE  C31418509   4.257   2.537   7.979 -0.5995 -0.2707 -0.2828
  164SAPE  H14X18510   4.176   2.469   8.015  0.8072 -1.7336  0.2180
  164SAPE  H14Y18511   4.241   2.641   8.014  0.9369 -0.2182  0.3289
  164SAPE  C31518512   4.386   2.484   8.049 -0.3254 -0.6004 -0.3843
  164SAPE  H15X18513   4.467   2.555   8.024 -1.3484  1.5537  1.9503
  164SAPE  H15Y18514   4.423   2.384   8.017 -1.1973 -1.0544 -0.0151
  164SAPE  C31618515   4.379   2.502   8.195  0.2677  0.4528 -0.3183
  164SAPE  H16X18516   4.298   2.557   8.247 -0.2870  0.0675 -0.7721
  164SAPE  H16Y18517   4.469   2.565   8.213  0.9472 -0.9189  1.3966
  164SAPE  C31718518   4.413   2.379   8.278  0.3105 -0.3868 -0.1753
  164SAPE  H17X18519   4.386   2.276   8.246  2.0570 -2.4031  4.1160
  164SAPE  H17Y18520   4.345   2.393   8.365  3.5699  3.2566  2.1033
  164SAPE  C31818521   4.557   2.375   8.330 -0.2251  0.1482  0.1628
  164SAPE  H18X18522   4.624   2.358   8.243 -0.4991  2.7138 -0.6508
  164SAPE  H18Y18523   4.557   2.297   8.409 -3.0252  0.0984  0.2079
  164SAPE  H18Z18524   4.575   2.469   8.387 -0.3424  0.0133  0.4217
  165SAPE     N18525   5.066   2.183   6.115 -0.0641 -0.0443 -0.5144
  165SAPE   HN118526   5.124   2.114   6.167  0.4546  1.1646  0.5745
  165SAPE   HN218527   4.989   2.133   6.067 -0.8066  0.2967  0.2963
  165SAPE   HN318528   5.130   2.227   6.046  0.0881 -1.3557 -1.2415
  165SAPE   C1218529   5.010   2.287   6.212 -0.3078 -0.0783  0.2165
  165SAPE  H12A18530   4.976   2.234   6.303 -0.8884 -1.4333 -0.7554
  165SAPE  H12B18531   4.920   2.335   6.167 -0.3705 -1.2200 -0.9124
  165SAPE   C1118532   5.110   2.409   6.241 -0.2265 -0.8814  0.0220
  165SAPE  H11A18533   5.067   2.492   6.302  2.1937  2.3776 -2.3289
  165SAPE  H11B18534   5.116   2.459   6.142 -0.0406 -1.8083 -0.4483
  165SAPE     P18535   5.364   2.457   6.292 -0.1221  0.2425 -0.2755
  165SAPE   O1318536   5.390   2.524   6.166  0.1817 -0.5928  0.1133
  165SAPE   O1418537   5.351   2.539   6.413  0.3314  0.5690  0.4571
  165SAPE   O1218538   5.238   2.359   6.283 -0.4524 -0.0213  0.0661
  165SAPE   O1118539   5.479   2.353   6.312 -0.3471  0.1187 -0.2217
  165SAPE    C118540   5.620   2.390   6.331 -0.1169 -0.0697  0.6748
  165SAPE    HA18541   5.655   2.393   6.226 -1.8815  3.2075  0.0370
  165SAPE    HB18542   5.626   2.494   6.370 -2.4587  0.1985  0.4662
  165SAPE    C218543   5.704   2.283   6.389 -0.0285  0.1251 -0.6319
  165SAPE    HS18544   5.710   2.194   6.322  0.5503 -0.1006 -0.2919
  165SAPE   O2118545   5.636   2.248   6.514 -0.1201 -0.4588 -0.7443
  165SAPE   C2118546   5.675   2.139   6.563  0.0158 -0.2802 -0.0242
  165SAPE   O2218547   5.750   2.051   6.513  0.1548 -0.1482  0.1503
  165SAPE   C2218548   5.623   2.124   6.702  0.1859  0.3906  0.4861
  165SAPE   H2R18549   5.690   2.179   6.772  0.7732 -0.9469  1.0014
  165SAPE   H2S18550   5.521   2.161   6.725 -1.1292 -1.2630 -2.2266
  165SAPE    C318551   5.846   2.334   6.423 -0.0665 -0.4481  0.1929
  165SAPE    HX18552   5.839   2.444   6.437  0.5999 -0.2346 -0.9800
  165SAPE    HY18553   5.901   2.331   6.326  0.0523 -2.5145  0.2842
  165SAPE   O3118554   5.920   2.267   6.528  0.0077  0.4215  0.2569
  165SAPE   C3118555   5.995   2.341   6.613 -0.3627 -0.0130 -0.2090
  165SAPE   O3218556   6.018   2.460   6.602 -0.3718 -0.2810 -0.2509
  165SAPE   C3218557   6.042   2.246   6.731  0.3355 -0.0990 -0.0857
  165SAPE   H2X18558   5.957   2.249   6.802  1.3715 -0.2865  1.1952
  165SAPE   H2Y18559   6.131   2.303   6.766 -0.1390  0.2672  0.5408
  165SAPE   C2318560   5.624   1.971   6.730 -0.4303  0.0616  0.3696
  165SAPE   H3R18561   5.728   1.929   6.732 -0.2316  0.4704 -0.8791
  165SAPE   H3S18562   5.551   1.918   6.666 -0.7305 -2.1114  2.3417
  165SAPE   C2418563   5.582   1.950   6.877  0.6457  0.1735 -0.3973
  165SAPE   H4R18564   5.476   1.984   6.885  0.3380 -1.1434  2.3440
  165SAPE   H4S18565   5.640   2.010   6.950  1.4671  1.5673 -2.1185
  165SAPE   C2518566   5.594   1.806   6.915  0.0693  0.1950 -0.1457
  165SAPE   H5R18567   5.592   1.733   6.832 -0.7368  2.3724 -2.1479
  165SAPE   C2618568   5.582   1.755   7.041  0.0697  0.5069  0.1128
  165SAPE   H6R18569   5.601   1.649   7.063 -2.6617 -0.2449 -0.7757
  165SAPE   C2718570   5.572   1.849   7.162  0.1824 -0.6695  0.2542
  165SAPE   H7R18571   5.466   1.854   7.194  0.0697  0.3370 -0.2338
  165SAPE   H7S18572   5.612   1.950   7.139  0.8316 -1.4899 -2.5518
  165SAPE   C2818573   5.646   1.798   7.287 -0.0698  0.0856 -0.2457
  165SAPE   H8R18574   5.627   1.691   7.305 -1.2187  0.6073  2.1368
  165SAPE   C2918575   5.718   1.864   7.379 -0.4657  0.4399  0.7830
  165SAPE   H9R18576   5.773   1.805   7.455  1.2111  0.2750 -0.5130
  165SAPE  C21018577   5.736   2.013   7.374 -0.2199 -0.0290  0.3448
  165SAPE  H10R18578   5.647   2.066   7.414  0.3656  1.4648 -0.2509
  165SAPE  H10S18579   5.739   2.061   7.274 -0.0622  0.5916  0.6405
  165SAPE  C21118580   5.851   2.073   7.448 -0.0416 -0.2430  0.3476
  165SAPE  H11R18581   5.920   2.128   7.383 -0.6361 -0.3009 -0.3408
  165SAPE  C21218582   5.868   2.081   7.580  0.1991  0.4634 -0.8088
  165SAPE  H12R18583   5.955   2.129   7.626  1.8106 -1.9356 -1.1319
  165SAPE  C21318584   5.777   2.014   7.689  0.3369  0.0083  0.9642
  165SAPE  H13R18585   5.838   1.923   7.710  0.6411 -0.0316 -0.0324
  165SAPE  H13S18586   5.679   1.980   7.648 -0.2535  0.9811  1.5241
  165SAPE  C21418587   5.747   2.109   7.799 -0.9674  0.3959  0.3382
  165SAPE  H14R18588   5.650   2.155   7.776 -0.8054  0.2645 -0.6592
  165SAPE  C21518589   5.804   2.132   7.922 -0.0522  0.3298  0.2572
  165SAPE  H15R18590   5.762   2.213   7.984  0.2590  0.5136  0.2257
  165SAPE  C21618591   5.918   2.053   7.986 -0.5181 -1.2191  0.3890
  165SAPE  H16R18592   6.002   2.117   8.021 -0.4468 -0.3225 -1.2958
  165SAPE  H16S18593   5.955   1.995   7.899 -1.7412 -2.2016  0.4932
  165SAPE  C21718594   5.876   1.960   8.094  0.3341  0.0958 -0.0746
  165SAPE  H17R18595   5.940   1.870   8.103 -0.2473 -0.8427 -3.8595
  165SAPE  H17S18596   5.777   1.925   8.059 -0.0413  3.0813 -2.4057
  165SAPE  C21818597   5.857   2.030   8.235  0.2602  0.2373  0.0852
  165SAPE  H18R18598   5.800   2.123   8.213  0.3579  0.8060  2.0475
  165SAPE  H18S18599   5.963   2.060   8.255  0.8682 -1.9779  0.4849
  165SAPE  C21918600   5.787   1.948   8.342  0.0727  0.2965 -0.6708
  165SAPE  H19R18601   5.829   1.846   8.359  2.1900  0.9089 -1.8669
  165SAPE  H19S18602   5.682   1.944   8.307 -0.2315  0.9517  0.1308
  165SAPE  C22018603   5.760   2.007   8.483 -0.4763 -0.1778  0.2133
  165SAPE  H20R18604   5.725   2.112   8.488  0.3508  0.1249 -0.2536
  165SAPE  H20S18605   5.847   2.001   8.552 -0.8176  3.0551  1.0897
  165SAPE  H20T18606   5.687   1.940   8.534  0.3943  0.2617  2.1059
  165SAPE   C3318607   6.083   2.100   6.692  0.8774 -0.1583  0.0728
  165SAPE   H3X18608   6.172   2.099   6.626  0.3976 -1.7074 -0.5917
  165SAPE   H3Y18609   6.007   2.047   6.631  0.1884 -0.4498  1.1562
  165SAPE   C3418610   6.124   2.024   6.820  0.5039 -0.4297 -0.3009
  165SAPE   H4X18611   6.182   2.099   6.878  0.1734  1.6923 -2.5390
  165SAPE   H4Y18612   6.188   1.940   6.784  1.8201 -0.1926  1.3297
  165SAPE   C3518613   6.007   1.978   6.908 -0.3055 -0.3073 -0.4105
  165SAPE   H5X18614   5.952   1.896   6.856 -0.4945 -1.2122  1.1602
  165SAPE   H5Y18615   5.935   2.058   6.934  2.3667  2.1874 -0.1794
  165SAPE   C3618616   6.072   1.904   7.035 -0.3383 -0.1329 -0.5740
  165SAPE   H6X18617   6.161   1.844   7.006  1.0463  1.3333  0.4340
  165SAPE   H6Y18618   5.996   1.828   7.063  0.2701  0.3368  2.8421
  165SAPE   C3718619   6.121   1.993   7.146 -0.1029 -0.0332  0.0209
  165SAPE   H7X18620   6.041   2.069   7.156  1.6482  2.4941 -3.0961
  165SAPE   H7Y18621   6.210   2.046   7.104 -2.2887  1.0250 -3.7421
  165SAPE   C3818622   6.164   1.911   7.277 -0.1843  0.7148 -0.0362
  165SAPE   H8X18623   6.199   1.813   7.240  0.7907  0.6071  1.0931
  165SAPE   H8Y18624   6.064   1.890   7.321  0.2339 -1.2678  0.0555
  165SAPE   C3918625   6.262   1.970   7.385 -0.1364  0.4022 -0.2943
  165SAPE   H9X18626   6.240   2.072   7.422 -1.4929 -0.1658  0.5478
  165SAPE   H9Y18627   6.362   1.960   7.338 -0.5779 -1.3933 -0.9291
  165SAPE  C31018628   6.274   1.879   7.513  0.2084 -0.4017  0.0772
  165SAPE  H10X18629   6.339   1.790   7.498  1.3399 -0.2850  3.6120
  165SAPE  H10Y18630   6.164   1.864   7.522 -0.7128  5.0362  1.2681
  165SAPE  C31118631   6.289   1.950   7.646 -0.0115 -0.1498 -1.0752
  165SAPE  H11X18632   6.217   2.034   7.658  1.0655  0.6397  0.1587
  165SAPE  H11Y18633   6.395   1.980   7.659  0.3746 -1.2866 -1.4604
  165SAPE  C31218634   6.253   1.861   7.769  0.7011  0.4422  0.1652
  165SAPE  H12X18635   6.274   1.753   7.750 -1.6173 -0.0768  0.2412
  165SAPE  H12Y18636   6.142   1.862   7.761  0.5669 -0.5891  1.3968
  165SAPE  C31318637   6.306   1.917   7.900 -0.2732  0.3532  0.2523
  165SAPE  H13X18638   6.247   2.006   7.929  0.0507  0.2578  1.2364
  165SAPE  H13Y18639   6.413   1.944   7.903 -0.2586  0.7123 -1.7347
  165SAPE  C31418640   6.291   1.816   8.016  0.1603 -0.6961 -0.0074
  165SAPE  H14X18641   6.379   1.749   8.016 -0.3127 -1.3267 -0.7829
  165SAPE  H14Y18642   6.203   1.750   8.004  0.4896 -1.0258 -0.6353
  165SAPE  C31518643   6.286   1.889   8.154  0.0514  0.4370 -0.5874
  165SAPE  H15X18644   6.188   1.938   8.172  0.0225  0.1026  0.2060
  165SAPE  H15Y18645   6.368   1.964   8.158  1.3455 -0.9730  0.9031
  165SAPE  C31618646   6.293   1.786   8.274 -0.2836  0.1022 -0.1636
  165SAPE  H16X18647   6.203   1.722   8.277 -1.7009  2.0147  0.0796
  165SAPE  H16Y18648   6.287   1.852   8.363 -0.4843  0.7095 -0.6136
  165SAPE  C31718649   6.427   1.707   8.270 -0.0814 -0.5446 -0.0077
  165SAPE  H17X18650   6.412   1.632   8.189 -0.0332  0.1003 -0.6214
  165SAPE  H17Y18651   6.433   1.648   8.364 -0.3329 -0.8613 -0.1909
  165SAPE  C31818652   6.559   1.788   8.259 -0.7920  0.2182  0.5563
  165SAPE  H18X18653   6.568   1.868   8.336 -0.2611  2.1327 -1.3630
  165SAPE  H18Y18654   6.562   1.837   8.159 -2.1715  0.7240  0.7371
  165SAPE  H18Z18655   6.653   1.729   8.261 -0.2490  0.9728 -0.8363
  166SAPE     N18656   3.427   3.204   5.572 -0.2753 -0.4932  0.1674
  166SAPE   HN118657   3.343   3.206   5.510  0.1270 -0.3978 -0.3767
  166SAPE   HN218658   3.490   3.146   5.514 -1.3102 -0.7171 -0.7770
  166SAPE   HN318659   3.412   3.153   5.662 -0.3517  1.1005  1.1021
  166SAPE   C1218660   3.476   3.344   5.609  0.5372  1.0757 -0.8556
  166SAPE  H12A18661   3.497   3.411   5.523  2.3455 -0.3368 -1.6035
  166SAPE  H12B18662   3.567   3.339   5.673 -0.5263 -1.6884  0.6046
  166SAPE   C1118663   3.364   3.395   5.710  0.1007 -0.3064  0.7129
  166SAPE  H11A18664   3.387   3.501   5.733  0.8454 -0.2037 -0.4079
  166SAPE  H11B18665   3.366   3.340   5.807  0.6700 -0.6171  0.5301
  166SAPE     P18666   3.160   3.510   5.599 -0.0478 -0.0698 -0.7526
  166SAPE   O1318667   3.217   3.552   5.470  0.3976 -0.7652  0.1899
  166SAPE   O1418668   3.018   3.470   5.604 -0.3491 -1.0215 -0.0461
  166SAPE   O1218669   3.236   3.383   5.643 -0.0508 -0.2993 -0.3226
  166SAPE   O1118670   3.181   3.623   5.703 -0.1391 -0.4234 -0.0132
  166SAPE    C118671   3.104   3.648   5.823 -0.4794  0.1450 -0.2370
  166SAPE    HA18672   3.002   3.669   5.784 -1.5593 -1.5700  1.5112
  166SAPE    HB18673   3.110   3.566   5.897 -0.1682  0.6328  0.2938
  166SAPE    C218674   3.138   3.782   5.888  0.2523  0.2294 -0.0140
  166SAPE    HS18675   3.133   3.869   5.818 -2.1956  0.6586  0.5924
  166SAPE   O2118676   3.273   3.775   5.937 -0.5382 -0.5073  0.3864
  166SAPE   C2118677   3.339   3.895   5.949  0.5408  0.6018 -0.0136
  166SAPE   O2218678   3.291   4.001   5.914 -0.6490 -0.4366 -0.1733
  166SAPE   C2218679   3.470   3.866   6.022  0.0483 -0.3310  0.5193
  166SAPE   H2R18680   3.454   3.849   6.131  0.7222 -1.5924  0.4396
  166SAPE   H2S18681   3.525   3.779   5.981  1.4241  1.2096 -1.0393
  166SAPE    C318682   3.051   3.788   6.007  0.2102 -0.3829 -0.9889
  166SAPE    HX18683   3.072   3.709   6.083 -1.1618  0.8518  0.7584
  166SAPE    HY18684   2.949   3.767   5.968  0.1286 -1.1345 -0.4037
  166SAPE   O3118685   3.060   3.916   6.074 -0.3683  0.2366  0.6876
  166SAPE   C3118686   2.981   3.934   6.181  0.4680  0.2635 -0.1427
  166SAPE   O3218687   2.906   3.848   6.225 -0.1096  0.6720  0.2132
  166SAPE   C3218688   3.000   4.079   6.228 -0.0226 -0.2258 -0.1027
  166SAPE   H2X18689   2.905   4.130   6.254  0.0926 -0.9611  1.9376
  166SAPE   H2Y18690   3.034   4.134   6.138 -1.3480  0.2171 -0.3500
  166SAPE   C2318691   3.563   3.991   6.006  0.4176  0.2344  0.1843
  166SAPE   H3R18692   3.496   4.080   6.017 -0.6864 -0.3126 -1.6287
  166SAPE   H3S18693   3.610   3.994   5.906  3.0029 -1.7279  1.2336
  166SAPE   C2418694   3.684   3.995   6.106  0.7302  0.3303  0.3462
  166SAPE   H4R18695   3.719   4.101   6.108  0.7403  0.3428 -0.3065
  166SAPE   H4S18696   3.759   3.933   6.053 -0.5975 -1.4660  0.4979
  166SAPE   C2518697   3.660   3.958   6.245  0.7818 -0.4106  0.2499
  166SAPE   H5R18698   3.713   3.864   6.270 -2.5014 -2.2917  0.7581
  166SAPE   C2618699   3.582   4.018   6.339  0.8608 -0.1902 -0.8005
  166SAPE   H6R18700   3.561   3.971   6.436  0.6109 -2.3956 -1.8697
  166SAPE   C2718701   3.503   4.147   6.313  0.0192  0.0710  0.1973
  166SAPE   H7R18702   3.400   4.131   6.352  0.1801 -3.3112 -0.4016
  166SAPE   H7S18703   3.484   4.164   6.205 -2.2132 -1.6185  0.2503
  166SAPE   C2818704   3.579   4.261   6.377 -0.3776 -0.1087  0.3993
  166SAPE   H8R18705   3.658   4.300   6.310 -0.3008 -0.6785  0.1579
  166SAPE   C2918706   3.562   4.308   6.504 -0.4180 -0.0021  0.9792
  166SAPE   H9R18707   3.638   4.384   6.529  0.2984 -0.8168  1.3104
  166SAPE  C21018708   3.470   4.262   6.611 -0.2185  0.1234 -0.3043
  166SAPE  H10R18709   3.522   4.185   6.673 -2.1435 -1.1418 -0.1830
  166SAPE  H10S18710   3.388   4.214   6.553 -0.2629 -0.4308  0.2111
  166SAPE  C21118711   3.415   4.356   6.715  0.0043  0.4612 -0.0147
  166SAPE  H11R18712   3.376   4.451   6.675 -0.6392  1.0074  1.7970
  166SAPE  C21218713   3.412   4.346   6.844 -0.2917 -0.3387  0.3229
  166SAPE  H12R18714   3.382   4.433   6.905 -0.7884 -1.7347  2.1738
  166SAPE  C21318715   3.455   4.226   6.920 -0.1254 -0.2985  0.4848
  166SAPE  H13R18716   3.471   4.140   6.851 -2.0316  0.4940 -1.0623
  166SAPE  H13S18717   3.369   4.176   6.969  0.2944 -2.7273 -1.1007
  166SAPE  C21418718   3.581   4.248   7.002 -0.0357  0.6768 -0.0418
  166SAPE  H14R18719   3.667   4.291   6.949  0.7395  0.0409  0.6732
  166SAPE  C21518720   3.588   4.235   7.138  0.4761  0.3510 -0.0676
  166SAPE  H15R18721   3.678   4.258   7.198  1.4242  0.3738 -1.4650
  166SAPE  C21618722   3.471   4.194   7.228  0.3576  0.2684  0.4777
  166SAPE  H16R18723   3.429   4.104   7.177  1.7881  1.0803 -2.3552
  166SAPE  H16S18724   3.385   4.265   7.230 -2.0150 -2.4143  2.3945
  166SAPE  C21718725   3.502   4.165   7.374  0.0523  0.6112 -0.1259
  166SAPE  H17R18726   3.563   4.073   7.388 -0.2720  0.6290  1.6669
  166SAPE  H17S18727   3.405   4.134   7.419  0.1470 -2.1791 -1.6058
  166SAPE  C21818728   3.570   4.283   7.446 -0.2452 -0.7530 -0.3019
  166SAPE  H18R18729   3.519   4.378   7.419  0.2856  0.2012  1.7974
  166SAPE  H18S18730   3.664   4.292   7.389 -2.5311  2.0082 -4.0968
  166SAPE  C21918731   3.590   4.261   7.599 -0.4251  0.1180 -0.1152
  166SAPE  H19R18732   3.494   4.223   7.641  0.1767 -1.2007  0.1169
  166SAPE  H19S18733   3.606   4.367   7.628 -2.1609  0.5185 -0.4708
  166SAPE  C22018734   3.697   4.154   7.629  0.4668 -0.6725 -0.1779
  166SAPE  H20R18735   3.700   4.143   7.740 -1.1526 -0.7659 -0.1215
  166SAPE  H20S18736   3.800   4.174   7.591 -0.0073  0.1708 -1.0621
  166SAPE  H20T18737   3.657   4.063   7.581 -2.2528  1.0315 -1.4045
  166SAPE   C3318738   3.102   4.095   6.344 -0.1044 -0.0225 -0.1430
  166SAPE   H3X18739   3.137   4.197   6.370 -1.0678  0.2807  0.0240
  166SAPE   H3Y18740   3.192   4.035   6.320 -0.6974 -0.3597 -1.6806
  166SAPE   C3418741   3.038   4.047   6.479 -0.1216  0.3877  0.0785
  166SAPE   H4X18742   3.017   3.939   6.466 -1.3445  0.7804 -1.5355
  166SAPE   H4Y18743   2.947   4.111   6.473  1.1451  2.1687 -3.1315
  166SAPE   C3518744   3.125   4.079   6.595  0.2195  0.6789 -0.0497
  166SAPE   H5X18745   3.152   4.186   6.607  1.1684  0.6187 -1.4074
  166SAPE   H5Y18746   3.217   4.019   6.575 -1.6459 -1.4355 -3.0321
  166SAPE   C3618747   3.062   4.029   6.721 -0.3352 -0.1772 -0.5527
  166SAPE   H6X18748   3.029   3.924   6.706  2.1184 -0.8764 -1.7659
  166SAPE   H6Y18749   2.971   4.085   6.750 -0.5467 -0.3464 -0.8856
  166SAPE   C3718750   3.138   4.037   6.844  0.3495  0.4835  0.5056
  166SAPE   H7X18751   3.186   4.138   6.847  1.7554 -0.0823 -1.4172
  166SAPE   H7Y18752   3.213   3.956   6.847 -0.8911 -0.6867  0.6869
  166SAPE   C3818753   3.054   4.021   6.964  0.7801 -0.0659 -0.4372
  166SAPE   H8X18754   3.003   3.923   6.952  0.3628  0.0372  0.4046
  166SAPE   H8Y18755   2.975   4.100   6.960  2.1736  1.5378  1.6226
  166SAPE   C3918756   3.130   4.021   7.100 -0.2141 -0.6378  0.5903
  166SAPE   H9X18757   3.200   4.107   7.102 -1.3821  0.4002 -1.0002
  166SAPE   H9Y18758   3.195   3.930   7.104  0.0464 -0.4223  1.5773
  166SAPE  C31018759   3.031   4.038   7.214  0.3762  0.0482  0.7958
  166SAPE  H10X18760   2.964   3.949   7.218 -0.5359  0.7427  1.1226
  166SAPE  H10Y18761   2.963   4.124   7.200  2.5093  2.0092  1.8169
  166SAPE  C31118762   3.102   4.033   7.352 -0.4593  0.5063 -0.1454
  166SAPE  H11X18763   3.179   4.113   7.362 -0.9384  0.8740  0.6513
  166SAPE  H11Y18764   3.170   3.946   7.364  1.3884  2.1495  2.3053
  166SAPE  C31218765   3.009   4.037   7.472  0.0064 -0.4431  0.2671
  166SAPE  H12X18766   2.921   3.974   7.448  0.6008 -2.1149  2.1212
  166SAPE  H12Y18767   2.979   4.143   7.486  0.0984 -0.3972  0.1113
  166SAPE  C31318768   3.070   3.981   7.599  0.2230 -0.0285  0.1195
  166SAPE  H13X18769   3.159   4.046   7.611  1.5471 -1.2616 -2.0727
  166SAPE  H13Y18770   3.100   3.874   7.596 -1.0646 -0.4324  1.0837
  166SAPE  C31418771   2.979   4.015   7.718  0.0512 -0.0749 -0.1555
  166SAPE  H14X18772   2.880   3.964   7.719  0.0425 -0.0659  0.8497
  166SAPE  H14Y18773   2.964   4.125   7.719  1.2358  0.0972 -0.0409
  166SAPE  C31518774   3.045   3.973   7.852  0.4713 -0.3569  0.0600
  166SAPE  H15X18775   3.146   4.013   7.872 -0.3769  1.4933  0.9110
  166SAPE  H15Y18776   3.057   3.862   7.850 -0.7248 -0.6422  2.8179
  166SAPE  C31618777   2.955   4.004   7.972  0.3993  0.1398  0.1676
  166SAPE  H16X18778   2.854   3.962   7.951  0.1558  0.0300  1.4691
  166SAPE  H16Y18779   2.944   4.112   7.991  0.0529  0.1267  0.0440
  166SAPE  C31718780   3.009   3.935   8.099  0.2965  0.2806 -0.1360
  166SAPE  H17X18781   3.113   3.974   8.100  0.2318  0.4350  0.3308
  166SAPE  H17Y18782   3.024   3.826   8.081 -1.9179 -0.2160  0.7092
  166SAPE  C31818783   2.932   3.960   8.229 -0.3230  0.1657 -0.4533
  166SAPE  H18X18784   2.967   3.898   8.315  0.3575 -2.8599 -2.7399
  166SAPE  H18Y18785   2.824   3.939   8.212 -0.2946  0.3467 -0.8764
  166SAPE  H18Z18786   2.939   4.068   8.250 -1.0998 -0.0920  1.3122
  167SAPE     N18787   5.742   5.181   6.332 -0.7085  0.3044 -0.0468
  167SAPE   HN118788   5.844   5.178   6.351 -0.7426  0.9781  0.2818
  167SAPE   HN218789   5.698   5.265   6.375 -1.4511  1.1938 -2.3465
  167SAPE   HN318790   5.714   5.094   6.381  0.1489  0.0021 -0.0932
  167SAPE   C1218791   5.723   5.157   6.176 -0.7937  0.1258 -0.2040
  167SAPE  H12A18792   5.824   5.161   6.130 -1.3549  0.9116 -1.4293
  167SAPE  H12B18793   5.671   5.245   6.133  3.1324  2.0687 -1.3939
  167SAPE   C1118794   5.675   5.020   6.139  0.0150 -0.0117  0.1726
  167SAPE  H11A18795   5.749   4.945   6.174 -0.3828 -0.7830 -0.6171
  167SAPE  H11B18796   5.648   5.011   6.032 -2.0757  2.1091  0.4437
  167SAPE     P18797   5.482   4.865   6.219 -0.0816 -0.1104 -0.1660
  167SAPE   O1318798   5.447   4.811   6.088 -0.3039  0.4547 -0.5847
  167SAPE   O1418799   5.564   4.778   6.307 -0.5249  0.4200 -0.1088
  167SAPE   O1218800   5.553   5.001   6.215 -0.4760  0.1815  1.0142
  167SAPE   O1118801   5.343   4.909   6.284  0.2147 -0.4034 -0.0841
  167SAPE    C118802   5.347   4.972   6.414  0.5520 -0.0680  0.0429
  167SAPE    HA18803   5.422   5.052   6.423 -0.6240  0.8930  2.0821
  167SAPE    HB18804   5.252   5.026   6.434  0.8347 -0.6754  3.7349
  167SAPE    C218805   5.370   4.871   6.535  0.2576 -0.1046  0.2243
  167SAPE    HS18806   5.465   4.817   6.518  0.9677  0.6318  1.7200
  167SAPE   O2118807   5.254   4.781   6.542 -0.2098 -0.2022  0.5909
  167SAPE   C2118808   5.282   4.655   6.540 -0.4567 -0.7957  0.1448
  167SAPE   O2218809   5.389   4.603   6.556 -0.8679 -0.4685  0.2904
  167SAPE   C2218810   5.164   4.569   6.505 -0.4134  0.0120  0.5623
  167SAPE   H2R18811   5.108   4.635   6.435  2.5355 -1.7795 -3.9706
  167SAPE   H2S18812   5.204   4.488   6.440 -0.4811 -0.6056  1.2834
  167SAPE    C318813   5.384   4.942   6.673 -0.0829 -0.1646 -0.1558
  167SAPE    HX18814   5.420   4.870   6.750  1.3287  1.3471  0.6584
  167SAPE    HY18815   5.288   4.978   6.717 -0.3124 -0.4918 -0.3862
  167SAPE   O3118816   5.483   5.047   6.653 -0.1740 -0.6734  1.0130
  167SAPE   C3118817   5.503   5.131   6.754 -0.4652  0.4253 -1.0039
  167SAPE   O3218818   5.453   5.127   6.867  0.1848 -0.8801 -0.0358
  167SAPE   C3218819   5.607   5.229   6.705 -0.3240  0.0080  0.0376
  167SAPE   H2X18820   5.562   5.290   6.625  0.2965  0.8416  0.3173
  167SAPE   H2Y18821   5.697   5.175   6.669  0.4035 -0.0119  1.7632
  167SAPE   C2318822   5.100   4.517   6.629  1.0347  0.7163 -0.1471
  167SAPE   H3R18823   5.181   4.476   6.693  1.9281  1.7645 -0.5767
  167SAPE   H3S18824   5.027   4.440   6.596  0.8395  0.1092  1.6004
  167SAPE   C2418825   5.032   4.626   6.708  0.0830  0.3912 -0.3187
  167SAPE   H4R18826   4.972   4.691   6.641 -1.2402  1.1718  1.5141
  167SAPE   H4S18827   5.118   4.689   6.740  0.8081 -0.1233 -1.1941
  167SAPE   C2518828   4.956   4.577   6.830 -0.2703 -0.5895  0.0716
  167SAPE   H5R18829   4.861   4.525   6.810  0.5863 -2.6643  1.1141
  167SAPE   C2618830   5.000   4.597   6.953  1.7987 -0.0375  0.2043
  167SAPE   H6R18831   4.926   4.564   7.028  0.6283  2.6196  0.3187
  167SAPE   C2718832   5.125   4.645   7.005 -0.1133  0.3821 -0.2964
  167SAPE   H7R18833   5.196   4.603   6.931 -1.6892 -1.7327 -0.6852
  167SAPE   H7S18834   5.162   4.589   7.094  1.2333 -0.4202 -1.3112
  167SAPE   C2818835   5.126   4.801   6.997 -0.1138 -0.4636  0.3963
  167SAPE   H8R18836   5.045   4.844   6.936  0.1286 -0.5910 -0.0166
  167SAPE   C2918837   5.219   4.888   7.050 -0.0465 -0.1932 -0.2086
  167SAPE   H9R18838   5.201   4.996   7.042 -4.2237 -0.5340  1.7394
  167SAPE  C21018839   5.335   4.844   7.127  0.1500  0.4144 -0.0908
  167SAPE  H10R18840   5.403   4.792   7.055  1.4481  1.9874 -0.0486
  167SAPE  H10S18841   5.319   4.762   7.201  1.6367 -2.0277 -2.3014
  167SAPE  C21118842   5.422   4.948   7.200  0.5656  0.3962  0.5750
  167SAPE  H11R18843   5.484   4.999   7.124 -1.4747 -0.2453 -1.6602
  167SAPE  C21218844   5.409   4.990   7.325  0.4556 -0.0703 -0.1896
  167SAPE  H12R18845   5.484   5.056   7.372 -0.2709 -0.9086  2.2865
  167SAPE  C21318846   5.301   4.944   7.423 -0.4475  0.1306 -0.1612
  167SAPE  H13R18847   5.248   4.851   7.396  1.0310 -0.9088  0.4116
  167SAPE  H13S18848   5.215   5.014   7.414  0.4694  1.0478 -3.2157
  167SAPE  C21418849   5.356   4.934   7.565  0.4484  0.3706 -0.6253
  167SAPE  H14R18850   5.390   4.836   7.601 -0.6548 -0.2667 -1.2609
  167SAPE  C21518851   5.378   5.037   7.655  0.2329  0.3533 -0.2597
  167SAPE  H15R18852   5.428   5.010   7.748  2.6739 -0.9964 -1.8689
  167SAPE  C21618853   5.358   5.182   7.646  0.0235 -0.1580 -0.3879
  167SAPE  H16R18854   5.292   5.204   7.559 -0.8525  0.6487  0.4486
  167SAPE  H16S18855   5.460   5.223   7.628  0.6220 -2.6094 -3.4256
  167SAPE  C21718856   5.277   5.247   7.757 -0.0955 -0.2742 -0.8005
  167SAPE  H17R18857   5.184   5.190   7.783 -0.0969 -0.1125 -0.4362
  167SAPE  H17S18858   5.243   5.344   7.717 -0.1940 -0.7040 -1.7745
  167SAPE  C21818859   5.349   5.294   7.884  0.1291 -0.7678 -1.1228
  167SAPE  H18R18860   5.286   5.372   7.932  1.1975  0.4634 -1.6795
  167SAPE  H18S18861   5.441   5.347   7.853  1.3204 -1.5922  0.7633
  167SAPE  C21918862   5.392   5.178   7.983  0.2147  0.1665  0.1444
  167SAPE  H19R18863   5.490   5.142   7.946  1.2126  2.2573  0.5835
  167SAPE  H19S18864   5.323   5.092   7.996 -1.9953  1.4036 -2.3434
  167SAPE  C22018865   5.405   5.224   8.125  0.1081  0.3313  0.0637
  167SAPE  H20R18866   5.413   5.138   8.195 -0.9659  0.5859  0.5246
  167SAPE  H20S18867   5.309   5.274   8.151 -0.3859 -0.0139 -1.0526
  167SAPE  H20T18868   5.482   5.299   8.153 -0.9294  0.0329  4.7068
  167SAPE   C3318869   5.654   5.326   6.822  0.0809 -0.3012  0.0617
  167SAPE   H3X18870   5.561   5.367   6.869  0.4055  2.0757 -1.2367
  167SAPE   H3Y18871   5.699   5.416   6.776  0.8286 -1.0247 -0.6568
  167SAPE   C3418872   5.753   5.267   6.916  0.7870  0.3878  0.0995
  167SAPE   H4X18873   5.830   5.215   6.854  0.4821  0.8906 -0.7222
  167SAPE   H4Y18874   5.716   5.197   6.993 -2.2297  1.1496 -0.5443
  167SAPE   C3518875   5.792   5.393   7.003 -0.1639  0.3546  0.4505
  167SAPE   H5X18876   5.701   5.439   7.048  0.6104  0.8088  1.6263
  167SAPE   H5Y18877   5.847   5.468   6.941  2.4928 -1.2990  0.6363
  167SAPE   C3618878   5.880   5.352   7.120  0.2068 -0.0980 -0.5381
  167SAPE   H6X18879   5.953   5.431   7.144 -1.4957  1.3974 -0.0652
  167SAPE   H6Y18880   5.937   5.257   7.111  1.4132  0.4595  0.8272
  167SAPE   C3718881   5.795   5.335   7.248  0.2139 -0.5918  0.5384
  167SAPE   H7X18882   5.865   5.262   7.295 -0.7941 -3.8617 -2.6396
  167SAPE   H7Y18883   5.707   5.273   7.223  0.2014  0.5915 -2.7974
  167SAPE   C3818884   5.763   5.463   7.322  0.6105 -0.2016  0.7579
  167SAPE   H8X18885   5.672   5.508   7.275  1.3256  1.1374  0.6118
  167SAPE   H8Y18886   5.840   5.540   7.300  1.6001 -1.3571  0.0711
  167SAPE   C3918887   5.747   5.450   7.477 -0.1384 -0.9712 -0.2074
  167SAPE   H9X18888   5.836   5.399   7.521 -0.7920 -0.8839  1.2639
  167SAPE   H9Y18889   5.656   5.388   7.494  0.3132 -1.2785  1.2603
  167SAPE  C31018890   5.721   5.585   7.546  0.2129  0.5090 -0.5375
  167SAPE  H10X18891   5.624   5.619   7.506 -0.9103 -0.8871  0.8663
  167SAPE  H10Y18892   5.798   5.662   7.523  1.2535 -0.0953  0.7859
  167SAPE  C31118893   5.721   5.581   7.700 -0.4723 -0.3147  0.3628
  167SAPE  H11X18894   5.620   5.543   7.729 -0.2336 -1.7849 -0.6107
  167SAPE  H11Y18895   5.739   5.687   7.728  2.6079 -0.4459 -0.7438
  167SAPE  C31218896   5.829   5.510   7.785 -0.6186 -0.0530  0.1562
  167SAPE  H12X18897   5.930   5.544   7.754 -0.8856 -0.6768 -1.4886
  167SAPE  H12Y18898   5.823   5.402   7.760 -1.0062 -0.2926  1.2305
  167SAPE  C31318899   5.803   5.529   7.934 -0.5389 -0.0873 -0.7414
  167SAPE  H13X18900   5.739   5.446   7.971 -0.6985  0.6215  0.6527
  167SAPE  H13Y18901   5.735   5.613   7.959 -1.1736 -0.2648 -1.8054
  167SAPE  C31418902   5.933   5.523   8.023 -0.1660  0.4101 -0.4338
  167SAPE  H14X18903   6.010   5.590   7.979 -0.2175  0.6089 -0.2217
  167SAPE  H14Y18904   5.969   5.419   8.027 -0.7926 -0.0540 -3.9708
  167SAPE  C31518905   5.895   5.558   8.163  0.6610  0.3051 -0.3215
  167SAPE  H15X18906   5.845   5.474   8.216  0.8072 -0.2930 -1.1013
  167SAPE  H15Y18907   5.814   5.634   8.164  0.1666 -0.2102 -0.6392
  167SAPE  C31618908   6.026   5.606   8.236 -0.1825 -0.3977  0.4518
  167SAPE  H16X18909   6.066   5.680   8.164 -0.0991  1.5142  2.3556
  167SAPE  H16Y18910   6.095   5.520   8.246  1.8755  0.7015 -2.7638
  167SAPE  C31718911   6.002   5.654   8.377 -0.6312 -0.0622 -0.2549
  167SAPE  H17X18912   5.958   5.567   8.431  0.7356  0.5183  1.9210
  167SAPE  H17Y18913   5.922   5.729   8.364  0.9353  1.8686  0.7645
  167SAPE  C31818914   6.128   5.699   8.451 -0.8275  0.5524 -1.0517
  167SAPE  H18X18915   6.197   5.617   8.481 -2.7182 -0.9807 -0.6922
  167SAPE  H18Y18916   6.102   5.753   8.545  0.5696  2.7649 -1.8434
  167SAPE  H18Z18917   6.183   5.773   8.388 -1.8887  0.7071 -1.8182
  168SAPE     N18918   5.677   6.081   6.391 -0.2284  0.3021  0.0749
  168SAPE   HN118919   5.665   6.182   6.415  0.0895  0.2483  0.4753
  168SAPE   HN218920   5.755   6.072   6.323 -0.1099  2.1577 -0.0872
  168SAPE   HN318921   5.590   6.055   6.340 -0.3001  0.1563  0.2730
  168SAPE   C1218922   5.710   5.986   6.507  0.4709  0.2925 -0.2420
  168SAPE  H12A18923   5.661   5.889   6.482 -0.7112  0.5622  0.9069
  168SAPE  H12B18924   5.662   6.034   6.595  2.4720  0.2294  0.9353
  168SAPE   C1118925   5.863   5.980   6.527  0.3824 -0.4038 -0.7036
  168SAPE  H11A18926   5.888   5.912   6.611  0.4489  0.4702 -0.0067
  168SAPE  H11B18927   5.903   6.081   6.552  1.1000 -0.9368  0.3961
  168SAPE     P18928   6.005   5.814   6.379  0.3217  0.2328 -0.4312
  168SAPE   O1318929   5.902   5.708   6.386  0.2686 -0.1317  0.0357
  168SAPE   O1418930   6.076   5.816   6.252  0.1476 -0.2046  0.6748
  168SAPE   O1218931   5.937   5.950   6.410  0.4612  0.5242 -0.0022
  168SAPE   O1118932   6.109   5.796   6.501  0.3899 -0.3857 -0.4629
  168SAPE    C118933   6.191   5.896   6.558  0.4177 -0.3041  0.5842
  168SAPE    HA18934   6.278   5.922   6.495  0.2272 -1.6623 -0.2835
  168SAPE    HB18935   6.124   5.982   6.581  0.3303 -0.7159  1.9267
  168SAPE    C218936   6.241   5.870   6.701 -0.3295  0.2136 -0.2101
  168SAPE    HS18937   6.303   5.777   6.702  1.0053  1.0795  0.8341
  168SAPE   O2118938   6.139   5.862   6.798  0.7554  0.9982  0.0034
  168SAPE   C2118939   6.088   5.736   6.817  0.3858 -0.1632 -0.4564
  168SAPE   O2218940   6.129   5.630   6.778 -0.1225 -0.0636 -0.1395
  168SAPE   C2218941   5.966   5.747   6.899 -0.0181  0.3724 -0.3309
  168SAPE   H2R18942   5.933   5.853   6.903 -1.1571 -0.0157  1.6453
  168SAPE   H2S18943   5.881   5.689   6.858  0.7706 -0.0010 -1.5013
  168SAPE    C318944   6.336   5.985   6.738 -0.1512 -0.4084 -0.2150
  168SAPE    HX18945   6.282   6.082   6.738  0.2196 -0.1427  2.0664
  168SAPE    HY18946   6.418   5.994   6.663 -0.0650 -0.3910 -0.1198
  168SAPE   O3118947   6.381   5.968   6.876  0.4248 -0.0412  0.0413
  168SAPE   C3118948   6.460   5.862   6.902  0.6178 -0.9593  0.4573
  168SAPE   O3218949   6.503   5.789   6.820 -0.0526 -0.0366  0.5429
  168SAPE   C3218950   6.474   5.837   7.045  0.7355  0.4701 -0.3707
  168SAPE   H2X18951   6.536   5.747   7.065  1.0422  0.8048  0.1993
  168SAPE   H2Y18952   6.384   5.805   7.101  1.5220 -2.7486 -0.7365
  168SAPE   C2318953   6.005   5.695   7.049  0.5193 -0.5826  0.1803
  168SAPE   H3R18954   6.085   5.621   7.030  0.4747 -0.4546 -0.5375
  168SAPE   H3S18955   5.913   5.645   7.087  0.7182  0.1261  1.6923
  168SAPE   C2418956   6.054   5.798   7.152 -0.6929 -0.3355 -0.5934
  168SAPE   H4R18957   5.973   5.874   7.161 -0.9356 -0.6272 -0.3159
  168SAPE   H4S18958   6.143   5.846   7.106 -1.4211 -1.2895 -3.1973
  168SAPE   C2518959   6.069   5.735   7.285 -0.1389 -0.5380 -0.1144
  168SAPE   H5R18960   6.069   5.625   7.281 -2.8626 -0.6858  1.3660
  168SAPE   C2618961   6.053   5.802   7.401  1.1086  0.3354  0.1863
  168SAPE   H6R18962   6.080   5.741   7.489  0.8859  0.7218  0.5259
  168SAPE   C2718963   6.033   5.947   7.431 -0.3677  0.2878 -0.3793
  168SAPE   H7R18964   6.020   6.009   7.339  0.7040  2.1350  0.6409
  168SAPE   H7S18965   6.122   5.997   7.477 -1.7291  0.8545  1.7807
  168SAPE   C2818966   5.923   5.957   7.532  0.2532 -0.0822 -0.6969
  168SAPE   H8R18967   5.820   5.957   7.493 -0.8731  0.3086  2.0872
  168SAPE   C2918968   5.943   5.973   7.669 -0.2897 -0.0730 -0.3379
  168SAPE   H9R18969   5.854   5.959   7.732 -0.2066 -0.9459 -0.4020
  168SAPE  C21018970   6.073   5.990   7.749  0.7342  0.0409 -0.4356
  168SAPE  H10R18971   6.050   6.065   7.828  4.0358  0.3983  0.3351
  168SAPE  H10S18972   6.150   6.026   7.678 -1.6669 -0.4319 -3.5163
  168SAPE  C21118973   6.124   5.860   7.809  0.7609  0.2226  0.0095
  168SAPE  H11R18974   6.096   5.781   7.738  1.7234  1.2638 -1.5956
  168SAPE  C21218975   6.171   5.840   7.934  0.5285  0.1621  0.8485
  168SAPE  H12R18976   6.220   5.745   7.961  0.6600  0.1775  0.6636
  168SAPE  C21318977   6.201   5.949   8.036  0.6709  0.0357 -0.6369
  168SAPE  H13R18978   6.108   6.000   8.068 -0.4149 -2.7802  1.0525
  168SAPE  H13S18979   6.265   6.024   7.986  0.3341  0.5039 -0.3752
  168SAPE  C21418980   6.268   5.905   8.165  0.2072 -0.0016  0.3109
  168SAPE  H14R18981   6.270   5.796   8.183  3.3068 -0.1197 -0.1535
  168SAPE  C21518982   6.322   5.976   8.264  0.3530 -0.3439  0.1766
  168SAPE  H15R18983   6.376   5.925   8.345 -0.4600 -2.1531 -0.3721
  168SAPE  C21618984   6.328   6.131   8.271  0.1734 -0.7557  0.6530
  168SAPE  H16R18985   6.288   6.159   8.371 -1.1868 -2.0262  0.5068
  168SAPE  H16S18986   6.259   6.172   8.194 -1.4454  0.3131  2.5925
  168SAPE  C21718987   6.466   6.188   8.266 -0.5237  0.3434  0.0558
  168SAPE  H17R18988   6.458   6.299   8.274  0.1455  0.3661  0.4566
  168SAPE  H17S18989   6.490   6.175   8.158 -1.4666 -2.2481  0.0948
  168SAPE  C21818990   6.569   6.137   8.369 -0.1586  0.2557 -0.2615
  168SAPE  H18R18991   6.570   6.026   8.373 -0.4086  0.2723  0.3244
  168SAPE  H18S18992   6.555   6.187   8.467  2.2750  1.7195 -0.5952
  168SAPE  C21918993   6.711   6.179   8.345  0.3641  0.6709 -0.2191
  168SAPE  H19R18994   6.758   6.111   8.271 -0.9019  2.3860 -2.7317
  168SAPE  H19S18995   6.759   6.149   8.441 -1.1329 -0.5251  0.2093
  168SAPE  C22018996   6.747   6.322   8.322 -0.2212  0.3668 -0.0817
  168SAPE  H20R18997   6.857   6.334   8.329 -0.4373  1.9128  1.1276
  168SAPE  H20S18998   6.699   6.389   8.396 -1.0043  0.6318 -0.8057
  168SAPE  H20T18999   6.710   6.354   8.222  0.5900  2.7216  0.3231
  168SAPE   C3319000   6.522   5.956   7.129 -0.1760 -0.0833  0.3669
  168SAPE   H3X19001   6.450   6.041   7.122 -1.4543 -1.1447  0.1078
  168SAPE   H3Y19002   6.619   5.995   7.094 -0.7635  0.1419 -1.0552
  168SAPE   C3419003   6.553   5.911   7.270 -0.4645 -0.6130  0.6378
  168SAPE   H4X19004   6.606   5.992   7.325  1.1606 -0.6467 -0.8098
  168SAPE   H4Y19005   6.624   5.828   7.253 -0.7147 -0.0866 -4.9737
  168SAPE   C3519006   6.430   5.887   7.354 -0.6400 -0.0858  0.5028
  168SAPE   H5X19007   6.359   5.826   7.294 -1.7231  2.0581 -0.4875
  168SAPE   H5Y19008   6.378   5.985   7.346  0.9024  0.6030 -2.5445
  168SAPE   C3619009   6.441   5.842   7.499  0.3182  0.5571 -0.2099
  168SAPE   H6X19010   6.499   5.747   7.507  0.0207  0.2128 -1.8135
  168SAPE   H6Y19011   6.342   5.806   7.535 -0.3292 -0.8192 -3.0949
  168SAPE   C3719012   6.488   5.962   7.586 -0.6260 -0.6334  0.1851
  168SAPE   H7X19013   6.416   6.047   7.587  0.2541  0.1303  1.1559
  168SAPE   H7Y19014   6.583   5.997   7.540 -1.6594  1.0132 -0.8006
  168SAPE   C3819015   6.525   5.917   7.733  0.3327 -0.4292  0.0590
  168SAPE   H8X19016   6.602   5.840   7.711  2.6530  1.3951  1.3036
  168SAPE   H8Y19017   6.437   5.867   7.778 -2.8206  2.9953 -1.7689
  168SAPE   C3919018   6.581   6.025   7.826  0.9629  0.2157 -0.0312
  168SAPE   H9X19019   6.499   6.095   7.855  1.3295  1.0373 -0.8997
  168SAPE   H9Y19020   6.648   6.087   7.764  0.2422 -0.5418 -1.6249
  168SAPE  C31019021   6.634   5.975   7.962 -0.4705 -0.6692  0.7400
  168SAPE  H10X19022   6.550   5.939   8.026 -1.1205 -0.0781  0.2287
  168SAPE  H10Y19023   6.689   6.058   8.012 -1.9122  0.8507 -0.1030
  168SAPE  C31119024   6.715   5.844   7.941 -0.1094  0.4108 -0.0259
  168SAPE  H11X19025   6.785   5.849   7.855 -0.0494 -0.3860 -0.0272
  168SAPE  H11Y19026   6.638   5.764   7.934 -0.8303  1.0251  0.6304
  168SAPE  C31219027   6.809   5.815   8.066 -0.6114 -0.2384  0.0792
  168SAPE  H12X19028   6.842   5.709   8.055  1.4193  0.4925 -1.8272
  168SAPE  H12Y19029   6.740   5.819   8.152 -0.2110 -0.1909  0.4031
  168SAPE  C31319030   6.935   5.903   8.082 -0.0404  0.6025  0.0417
  168SAPE  H13X19031   6.899   6.007   8.097 -1.2770  0.0945  0.7371
  168SAPE  H13Y19032   6.991   5.898   7.986  1.1286 -1.2634  0.7717
  168SAPE  C31419033   7.032   5.864   8.203 -0.2543  0.2828  0.2159
  168SAPE  H14X19034   7.092   5.774   8.175 -0.7137  0.5671 -1.8111
  168SAPE  H14Y19035   6.969   5.827   8.287  0.3365  0.0024  0.5421
  168SAPE  C31519036   7.116   5.984   8.251  0.4367 -0.9933 -0.5514
  168SAPE  H15X19037   7.037   6.060   8.271  1.1804 -0.3333 -0.0853
  168SAPE  H15Y19038   7.174   6.036   8.172 -3.4745  2.0043 -1.8018
  168SAPE  C31619039   7.218   5.974   8.369  0.1045  0.7973  0.2237
  168SAPE  H16X19040   7.263   6.075   8.381 -0.8381  1.1740  0.7487
  168SAPE  H16Y19041   7.287   5.892   8.343 -0.3892  0.5236 -0.2546
  168SAPE  C31719042   7.164   5.919   8.503  0.4119  0.0966 -0.1652
  168SAPE  H17X19043   7.112   5.825   8.473 -0.1028 -0.0739  1.1862
  168SAPE  H17Y19044   7.082   5.987   8.535 -1.8401 -1.3338 -2.4516
  168SAPE  C31819045   7.267   5.899   8.616 -0.3749 -0.6196 -0.6386
  168SAPE  H18X19046   7.214   5.851   8.701  0.2313  1.3638  0.9312
  168SAPE  H18Y19047   7.326   5.990   8.642  0.0612 -1.2363  0.6122
  168SAPE  H18Z19048   7.344   5.829   8.576  0.9514 -0.3608  1.3365
  169SAPE     N19049   1.366   6.768   6.570  0.6421 -0.8070 -0.1649
  169SAPE   HN119050   1.285   6.726   6.520  0.4434 -1.7349  0.8999
  169SAPE   HN219051   1.421   6.683   6.592  1.1662 -0.5148 -0.3268
  169SAPE   HN319052   1.330   6.806   6.660 -0.1901 -1.1864 -0.3287
  169SAPE   C1219053   1.447   6.871   6.490  0.1058  0.1554 -0.3654
  169SAPE  H12A19054   1.512   6.817   6.418  0.6477  0.6404 -0.2539
  169SAPE  H12B19055   1.512   6.932   6.557  0.4647  0.5286 -1.0385
  169SAPE   C1119056   1.356   6.960   6.406  0.2576  0.1603 -0.4532
  169SAPE  H11A19057   1.315   6.898   6.324 -0.4317 -1.2526  0.8980
  169SAPE  H11B19058   1.407   7.043   6.353 -1.9920  1.0093 -1.4489
  169SAPE     P19059   1.231   7.161   6.509  0.0148 -0.1428 -0.3355
  169SAPE   O1319060   1.247   7.232   6.382  0.3630  0.2806  0.7284
  169SAPE   O1419061   1.111   7.190   6.592  0.8909  0.2080  0.4488
  169SAPE   O1219062   1.243   7.004   6.474  0.5606 -0.3486  0.5196
  169SAPE   O1119063   1.360   7.185   6.604  0.7505  0.2857  0.0690
  169SAPE    C119064   1.364   7.121   6.734 -0.1305 -0.8438  0.7449
  169SAPE    HA19065   1.279   7.051   6.746 -1.4181  0.2025 -1.6813
  169SAPE    HB19066   1.457   7.061   6.747 -0.1880 -0.8053  1.3453
  169SAPE    C219067   1.378   7.229   6.847 -0.0133  1.1136  0.3838
  169SAPE    HS19068   1.304   7.306   6.818 -1.5498 -0.0512  1.1137
  169SAPE   O2119069   1.512   7.281   6.851  0.2460 -0.6632  0.4235
  169SAPE   C2119070   1.527   7.410   6.867  0.5562 -0.2985  0.1578
  169SAPE   O2219071   1.442   7.497   6.859  0.3041  0.1650 -0.1596
  169SAPE   C2219072   1.671   7.442   6.919 -0.1454 -1.2410  0.7441
  169SAPE   H2R19073   1.732   7.350   6.912 -0.2799 -1.3791  1.2885
  169SAPE   H2S19074   1.722   7.519   6.859 -2.1701  0.6042  1.2439
  169SAPE    C319075   1.338   7.170   6.987  0.5254  0.1411 -0.5199
  169SAPE    HX19076   1.419   7.095   7.000 -0.0680 -0.4506 -0.1089
  169SAPE    HY19077   1.242   7.114   6.978  0.7912 -0.0548 -2.6736
  169SAPE   O3119078   1.343   7.267   7.098 -0.4580  0.0412  0.2225
  169SAPE   C3119079   1.243   7.355   7.090  0.1252 -0.4099 -0.0110
  169SAPE   O3219080   1.149   7.354   7.017 -0.3021 -0.1096  0.2736
  169SAPE   C3219081   1.291   7.468   7.180 -0.2705 -0.1465  0.5327
  169SAPE   H2X19082   1.379   7.524   7.143 -0.8866  1.2420  1.0781
  169SAPE   H2Y19083   1.301   7.442   7.287 -1.2873 -1.0656  0.4189
  169SAPE   C2319084   1.654   7.478   7.068 -0.2381  0.6073  0.2997
  169SAPE   H3R19085   1.610   7.382   7.104  0.9575 -0.2359 -0.3984
  169SAPE   H3S19086   1.581   7.559   7.088  2.0661  2.8417  0.2159
  169SAPE   C2419087   1.793   7.516   7.128  0.7276  0.2479  0.4168
  169SAPE   H4R19088   1.862   7.438   7.090 -0.8730 -0.7444 -0.5747
  169SAPE   H4S19089   1.777   7.521   7.237  0.3842 -0.0636  0.3824
  169SAPE   C2519090   1.843   7.643   7.076  0.6045 -0.4821 -0.1820
  169SAPE   H5R19091   1.867   7.638   6.968  0.4422  1.4001 -0.3354
  169SAPE   C2619092   1.855   7.762   7.137  0.3643 -0.6400 -0.6932
  169SAPE   H6R19093   1.879   7.844   7.068 -1.2461  1.4374  1.0776
  169SAPE   C2719094   1.828   7.787   7.282 -0.3422  0.8693 -0.4084
  169SAPE   H7R19095   1.783   7.700   7.333 -0.8386  1.6542  0.5139
  169SAPE   H7S19096   1.758   7.873   7.291 -0.5952  0.6153  0.0650
  169SAPE   C2819097   1.959   7.802   7.359 -0.4632 -0.7180  0.1165
  169SAPE   H8R19098   2.043   7.737   7.328 -0.7012 -0.8798 -0.1979
  169SAPE   C2919099   1.982   7.886   7.454  0.5102 -0.3112  0.2530
  169SAPE   H9R19100   2.079   7.886   7.506  0.5507 -0.4457  0.1775
  169SAPE  C21019101   1.878   7.980   7.515  0.4798 -0.0244  0.4105
  169SAPE  H10R19102   1.895   7.967   7.625 -1.6700  1.1930  0.9455
  169SAPE  H10S19103   1.777   7.938   7.496 -0.3803  2.9547 -2.3328
  169SAPE  C21119104   1.876   8.128   7.469  0.0823  0.6145  0.1923
  169SAPE  H11R19105   1.804   8.140   7.387  1.5709  0.1676 -1.2377
  169SAPE  C21219106   1.948   8.226   7.531  0.3935 -0.4173 -0.3347
  169SAPE  H12R19107   1.935   8.331   7.499  1.0527 -0.9545 -2.5430
  169SAPE  C21319108   2.024   8.198   7.657 -0.2657  0.8714 -0.6415
  169SAPE  H13R19109   2.125   8.232   7.626 -0.2080  0.6769 -0.6640
  169SAPE  H13S19110   2.033   8.093   7.692 -1.2051  1.2259  0.7377
  169SAPE  C21419111   1.978   8.285   7.778  0.6542  0.3389  0.1701
  169SAPE  H14R19112   1.949   8.387   7.749 -0.1639  0.3254  0.8971
  169SAPE  C21519113   2.000   8.265   7.907  0.2071 -0.5927 -0.0862
  169SAPE  H15R19114   1.951   8.334   7.977  0.8801  0.2029 -0.3915
  169SAPE  C21619115   2.063   8.135   7.962  0.5622 -0.7694 -0.3618
  169SAPE  H16R19116   2.173   8.148   7.961  0.6810 -1.6366  0.4799
  169SAPE  H16S19117   2.026   8.050   7.900  0.0153 -2.2338  1.8748
  169SAPE  C21719118   2.006   8.113   8.103  0.4179 -0.6163  0.8149
  169SAPE  H17R19119   1.899   8.082   8.101 -0.7217  2.6266 -3.3526
  169SAPE  H17S19120   2.002   8.212   8.155  3.4854  0.2830 -0.4257
  169SAPE  C21819121   2.079   8.003   8.182 -0.2270 -1.0817 -0.0218
  169SAPE  H18R19122   2.027   7.998   8.280  0.0491  1.0374  0.2803
  169SAPE  H18S19123   2.184   8.034   8.199  0.3120 -1.0917 -2.7463
  169SAPE  C21919124   2.094   7.873   8.104  0.4586  0.6842 -1.5356
  169SAPE  H19R19125   2.165   7.912   8.027  0.4523 -0.5273 -2.1802
  169SAPE  H19S19126   1.999   7.839   8.058 -0.2107  0.1985  0.1621
  169SAPE  C22019127   2.153   7.759   8.197 -0.6560  0.5716 -0.5317
  169SAPE  H20R19128   2.087   7.755   8.287  0.9621  1.4573  0.7357
  169SAPE  H20S19129   2.254   7.790   8.231 -1.2752  2.7240 -0.5212
  169SAPE  H20T19130   2.160   7.657   8.153 -1.0181 -0.1910  1.0950
  169SAPE   C3319131   1.179   7.575   7.188  0.2570 -0.3152 -0.2659
  169SAPE   H3X19132   1.089   7.521   7.222  1.7621 -3.5047 -0.9838
  169SAPE   H3Y19133   1.144   7.611   7.089 -2.2026 -1.9636 -0.0502
  169SAPE   C3419134   1.210   7.707   7.277 -0.2278  0.4007  0.1309
  169SAPE   H4X19135   1.249   7.678   7.377 -1.2006  0.7307  0.6144
  169SAPE   H4Y19136   1.113   7.757   7.293 -0.6794 -1.2577  3.2902
  169SAPE   C3519137   1.305   7.803   7.209 -0.0552 -0.9098  0.1030
  169SAPE   H5X19138   1.273   7.854   7.116  1.4101  0.4002  0.2605
  169SAPE   H5Y19139   1.402   7.752   7.189  0.6533  0.2864  0.3902
  169SAPE   C3619140   1.337   7.929   7.295 -0.7785 -0.6709 -0.6323
  169SAPE   H6X19141   1.253   7.997   7.321 -1.0000 -1.2299  0.1817
  169SAPE   H6Y19142   1.404   7.992   7.234 -1.6293 -1.2870 -2.2842
  169SAPE   C3719143   1.415   7.889   7.425  0.4458  0.4141  0.1202
  169SAPE   H7X19144   1.482   7.805   7.397  1.1982  1.4191 -1.2248
  169SAPE   H7Y19145   1.348   7.861   7.509  0.4065  1.2390  0.3733
  169SAPE   C3819146   1.495   8.009   7.485 -0.3283 -0.8084 -0.1913
  169SAPE   H8X19147   1.538   8.068   7.401 -2.3359 -1.0296 -1.4609
  169SAPE   H8Y19148   1.577   7.972   7.550 -0.6184 -0.6462  0.2715
  169SAPE   C3919149   1.413   8.101   7.574  0.2184  0.2830 -0.8825
  169SAPE   H9X19150   1.378   8.042   7.661  0.1234  0.5285 -0.7539
  169SAPE   H9Y19151   1.328   8.144   7.516 -0.9674 -0.0733  0.5302
  169SAPE  C31019152   1.494   8.220   7.630  0.9903 -1.0099 -0.2901
  169SAPE  H10X19153   1.527   8.272   7.537  0.7757 -0.5276 -0.0937
  169SAPE  H10Y19154   1.584   8.193   7.690 -0.8509  0.6201  3.4996
  169SAPE  C31119155   1.422   8.307   7.729 -0.4701  0.1087 -0.6533
  169SAPE  H11X19156   1.471   8.407   7.738  0.1382 -0.1179 -1.3573
  169SAPE  H11Y19157   1.438   8.254   7.825 -0.4840  0.9250 -0.1890
  169SAPE  C31219158   1.268   8.324   7.714 -0.2591 -0.0559  1.1787
  169SAPE  H12X19159   1.214   8.233   7.748 -3.3099  1.6459  1.3260
  169SAPE  H12Y19160   1.232   8.334   7.609  0.0498 -0.8574  0.9865
  169SAPE  C31319161   1.203   8.442   7.793 -0.7081  0.0221 -0.3170
  169SAPE  H13X19162   1.092   8.447   7.791 -0.9160  0.2779  3.6202
  169SAPE  H13Y19163   1.228   8.537   7.742 -2.0949 -0.5835 -2.2321
  169SAPE  C31419164   1.246   8.440   7.943 -0.1500 -0.1933 -0.2310
  169SAPE  H14X19165   1.224   8.542   7.980  0.2596 -0.0203 -0.4650
  169SAPE  H14Y19166   1.357   8.442   7.943 -0.1055  2.3523 -2.2459
  169SAPE  C31519167   1.177   8.323   8.021 -0.3330  0.1616  0.3906
  169SAPE  H15X19168   1.227   8.224   8.006  0.0936  0.2895  0.9404
  169SAPE  H15Y19169   1.072   8.305   7.987  0.7992 -3.3061 -1.8527
  169SAPE  C31619170   1.175   8.342   8.172  1.2546  0.5693 -0.2601
  169SAPE  H16X19171   1.129   8.437   8.206  0.5009  0.2069 -0.2505
  169SAPE  H16Y19172   1.273   8.340   8.224  0.2675 -0.3425  1.6561
  169SAPE  C31719173   1.107   8.221   8.235  0.4930 -0.5240  0.1101
  169SAPE  H17X19174   1.166   8.127   8.221 -0.0166 -0.5661 -2.1119
  169SAPE  H17Y19175   1.007   8.218   8.187 -0.0971  2.8575  0.8856
  169SAPE  C31819176   1.107   8.237   8.389 -0.1047  0.4110  1.3384
  169SAPE  H18X19177   1.041   8.320   8.423 -1.5016  0.1726 -0.6436
  169SAPE  H18Y19178   1.209   8.270   8.419 -0.1913  0.5294  1.5059
  169SAPE  H18Z19179   1.079   8.147   8.447 -0.5045  0.3600  1.0705
  170SAPE     N19180   5.616   4.530   6.425 -0.1515 -0.2352 -0.1866
  170SAPE   HN119181   5.606   4.608   6.357 -1.4486 -0.4777 -0.3075
  170SAPE   HN219182   5.528   4.539   6.479 -0.2826  1.4108 -0.6439
  170SAPE   HN319183   5.689   4.552   6.495  0.0713 -0.7631 -0.2438
  170SAPE   C1219184   5.679   4.399   6.381  0.1970 -0.2347  0.1605
  170SAPE  H12A19185   5.614   4.344   6.310  3.2414 -3.0071 -0.7007
  170SAPE  H12B19186   5.686   4.346   6.478 -1.3476 -0.3771  0.2250
  170SAPE   C1119187   5.812   4.420   6.319 -1.1044 -0.4668 -0.1845
  170SAPE  H11A19188   5.879   4.466   6.394 -1.1485 -2.5739  1.2178
  170SAPE  H11B19189   5.800   4.484   6.229  1.2179  1.7436  0.9462
  170SAPE     P19190   5.964   4.217   6.341  0.2571 -0.1126 -0.3338
  170SAPE   O1319191   5.990   4.078   6.295  0.1709 -0.7037  0.1665
  170SAPE   O1419192   6.083   4.304   6.359  0.5226  0.3260 -0.1323
  170SAPE   O1219193   5.864   4.299   6.258 -0.3515 -0.0588 -0.2533
  170SAPE   O1119194   5.882   4.213   6.473  0.1832 -0.5031  1.0008
  170SAPE    C119195   5.808   4.106   6.528 -0.1845 -0.2221 -0.2395
  170SAPE    HA19196   5.728   4.074   6.458 -0.0041 -3.1489  0.7834
  170SAPE    HB19197   5.872   4.017   6.545  2.0286  1.0867 -1.0993
  170SAPE    C219198   5.761   4.132   6.670  0.3032 -0.2260 -0.4370
  170SAPE    HS19199   5.733   4.030   6.704  0.0801 -0.5604 -1.5953
  170SAPE   O2119200   5.653   4.229   6.674  0.1181 -0.4235 -0.6822
  170SAPE   C2119201   5.574   4.210   6.774  0.8679  0.3805 -0.6013
  170SAPE   O2219202   5.579   4.116   6.854 -0.3773  0.2560  0.2679
  170SAPE   C2219203   5.462   4.318   6.770  0.5405  0.7448 -0.4937
  170SAPE   H2R19204   5.475   4.381   6.680  0.0946  1.4997 -0.0361
  170SAPE   H2S19205   5.361   4.274   6.758  0.5398  0.1401  1.3602
  170SAPE    C319206   5.884   4.186   6.755  0.0750 -0.8881 -1.3182
  170SAPE    HX19207   5.928   4.271   6.699 -1.5309 -0.5840 -2.1649
  170SAPE    HY19208   5.964   4.109   6.752  0.3436 -0.5793 -2.4480
  170SAPE   O3119209   5.847   4.209   6.892 -0.1068  0.0810 -0.1917
  170SAPE   C3119210   5.856   4.099   6.971  0.0164 -0.3236 -0.0306
  170SAPE   O3219211   5.896   3.993   6.936 -0.0310  0.3941 -0.1668
  170SAPE   C3219212   5.801   4.136   7.114  0.4860 -0.1911  0.2190
  170SAPE   H2X19213   5.692   4.152   7.109  0.7700  1.7193 -1.3218
  170SAPE   H2Y19214   5.841   4.238   7.137  2.6698 -0.6760 -1.1012
  170SAPE   C2319215   5.450   4.400   6.901  0.5166  0.0854 -0.0168
  170SAPE   H3R19216   5.473   4.335   6.988 -1.1494 -2.1655 -1.1505
  170SAPE   H3S19217   5.345   4.433   6.912  0.2405 -0.7852 -0.0404
  170SAPE   C2419218   5.543   4.529   6.909 -0.1480  0.2461 -0.0327
  170SAPE   H4R19219   5.501   4.595   6.989 -1.7089 -2.2502  1.3396
  170SAPE   H4S19220   5.530   4.570   6.806  0.9367 -0.7145 -0.5775
  170SAPE   C2519221   5.689   4.496   6.939 -0.0416  0.0968  0.0205
  170SAPE   H5R19222   5.752   4.469   6.853  0.3527 -0.8441  0.5904
  170SAPE   C2619223   5.736   4.473   7.062 -0.5208 -0.0639 -0.7831
  170SAPE   H6R19224   5.839   4.444   7.088 -1.2566 -0.2119  2.3899
  170SAPE   C2719225   5.655   4.481   7.188  0.2669  0.4069  1.1025
  170SAPE   H7R19226   5.706   4.418   7.264 -2.5917 -2.2323  1.0366
  170SAPE   H7S19227   5.557   4.431   7.173  1.0354 -0.7120 -0.4723
  170SAPE   C2819228   5.620   4.613   7.248 -0.6421 -0.1095  0.1083
  170SAPE   H8R19229   5.556   4.677   7.187  1.1386  0.7178 -0.9692
  170SAPE   C2919230   5.648   4.659   7.366 -0.5038 -0.3658  0.2940
  170SAPE   H9R19231   5.603   4.753   7.399 -1.7547 -0.7980 -0.1220
  170SAPE  C21019232   5.710   4.594   7.486 -0.1790 -0.5025  0.3934
  170SAPE  H10R19233   5.746   4.677   7.551 -0.3705  0.1010 -0.2543
  170SAPE  H10S19234   5.803   4.537   7.464  0.1892  0.3718 -0.4255
  170SAPE  C21119235   5.621   4.502   7.564 -0.0945  0.3274 -0.3951
  170SAPE  H11R19236   5.566   4.427   7.505 -0.6888  0.9310 -0.6297
  170SAPE  C21219237   5.603   4.501   7.696  0.5310 -0.6955  0.6169
  170SAPE  H12R19238   5.539   4.420   7.733 -2.0335  1.0782  0.3064
  170SAPE  C21319239   5.663   4.592   7.800  0.4383 -0.5102 -1.2565
  170SAPE  H13R19240   5.764   4.624   7.766 -0.0702  1.5306 -0.9640
  170SAPE  H13S19241   5.661   4.546   7.901 -0.9953  1.3650 -0.3776
  170SAPE  C21419242   5.583   4.714   7.815  1.0099 -0.0728  0.2975
  170SAPE  H14R19243   5.576   4.783   7.730  2.5576  2.0323  1.7925
  170SAPE  C21519244   5.512   4.753   7.923  0.3906  0.2743  0.1997
  170SAPE  H15R19245   5.458   4.848   7.930  0.4193  0.3085 -0.0259
  170SAPE  C21619246   5.490   4.678   8.050 -0.5180  0.5520  0.0790
  170SAPE  H16R19247   5.425   4.748   8.107  1.9574  1.0072  2.5290
  170SAPE  H16S19248   5.579   4.688   8.115 -2.1558  1.5986  2.3235
  170SAPE  C21719249   5.452   4.529   8.050  0.0305 -0.1426 -0.0730
  170SAPE  H17R19250   5.534   4.460   8.020  0.4062 -0.9422  2.4866
  170SAPE  H17S19251   5.363   4.516   7.984 -1.8411  0.1684  2.2511
  170SAPE  C21819252   5.423   4.488   8.200 -0.2020 -0.0538 -0.1735
  170SAPE  H18R19253   5.325   4.532   8.229  0.4180  0.4412  1.2007
  170SAPE  H18S19254   5.502   4.521   8.270 -1.2881 -1.4749  1.8292
  170SAPE  C21919255   5.407   4.335   8.217 -0.9743  0.1703 -0.0269
  170SAPE  H19R19256   5.332   4.298   8.143 -0.7830  0.3936 -0.3341
  170SAPE  H19S19257   5.359   4.314   8.315 -1.7682  0.6052 -0.3154
  170SAPE  C22019258   5.539   4.264   8.213 -0.0853  0.4235  0.0738
  170SAPE  H20R19259   5.529   4.170   8.271  2.5536 -0.6257 -0.9921
  170SAPE  H20S19260   5.625   4.320   8.256  1.4770  0.0275 -2.3270
  170SAPE  H20T19261   5.561   4.235   8.108  0.8237  2.6034 -0.3946
  170SAPE   C3319262   5.839   4.042   7.226 -0.1452 -0.1776  0.5801
  170SAPE   H3X19263   5.937   4.058   7.277 -0.7155 -0.4075  1.7892
  170SAPE   H3Y19264   5.858   3.952   7.163  1.3984  1.0097 -0.7173
  170SAPE   C3419265   5.730   4.021   7.332 -0.0941 -0.4891 -0.4214
  170SAPE   H4X19266   5.753   3.915   7.356 -2.5375 -0.6363  1.7208
  170SAPE   H4Y19267   5.629   4.022   7.285 -1.1243 -0.7895  1.6447
  170SAPE   C3519268   5.731   4.115   7.466  0.1225 -0.1691  0.4733
  170SAPE   H5X19269   5.712   4.213   7.417 -1.0773 -1.3478 -1.5625
  170SAPE   H5Y19270   5.836   4.111   7.502 -0.2043  1.0098  1.6744
  170SAPE   C3619271   5.618   4.087   7.558  0.2788 -1.2998  0.5542
  170SAPE   H6X19272   5.527   4.077   7.494  0.6655  1.7175 -0.6218
  170SAPE   H6Y19273   5.597   4.160   7.639  1.3222  1.5274 -1.5467
  170SAPE   C3719274   5.646   3.955   7.634 -0.0981  0.1324  0.7594
  170SAPE   H7X19275   5.744   3.954   7.686  1.1738  0.3116 -1.4677
  170SAPE   H7Y19276   5.634   3.869   7.565 -0.9194 -0.3105  1.4361
  170SAPE   C3819277   5.546   3.921   7.755 -0.4371 -0.3568  0.0168
  170SAPE   H8X19278   5.571   3.821   7.796 -0.5205 -0.4396 -0.1316
  170SAPE   H8Y19279   5.447   3.908   7.706 -1.0755  0.5799  1.0106
  170SAPE   C3919280   5.539   4.027   7.871 -0.0980  0.0868  0.4963
  170SAPE   H9X19281   5.491   4.110   7.813 -1.3463 -0.4158  0.7750
  170SAPE   H9Y19282   5.641   4.055   7.902  0.1411  1.1584 -1.1161
  170SAPE  C31019283   5.461   3.996   7.995  0.4602 -0.7782 -0.9921
  170SAPE  H10X19284   5.360   3.958   7.965 -0.0538 -1.1649  1.0807
  170SAPE  H10Y19285   5.457   4.087   8.058  3.6535  1.4903 -3.7353
  170SAPE  C31119286   5.514   3.877   8.060  0.0622  0.0997  0.0722
  170SAPE  H11X19287   5.620   3.901   8.082 -0.2501  0.5585  1.1736
  170SAPE  H11Y19288   5.517   3.781   8.005  1.6140  0.8709 -1.2797
  170SAPE  C31219289   5.440   3.854   8.197  0.7436  0.1066 -0.2738
  170SAPE  H12X19290   5.339   3.822   8.165 -0.5011  2.6986  0.8323
  170SAPE  H12Y19291   5.432   3.951   8.251  0.8958 -0.7136  1.2854
  170SAPE  C31319292   5.508   3.759   8.288  0.5684  0.6403 -0.8546
  170SAPE  H13X19293   5.469   3.779   8.390  0.3713  0.7517 -0.9524
  170SAPE  H13Y19294   5.618   3.773   8.288  0.4886  1.3333 -1.4708
  170SAPE  C31419295   5.483   3.616   8.252 -0.4174  0.9902  0.1525
  170SAPE  H14X19296   5.520   3.604   8.148 -3.4789 -2.5244 -0.7410
  170SAPE  H14Y19297   5.379   3.579   8.261 -0.4322  1.2610  1.2201
  170SAPE  C31519298   5.562   3.518   8.341 -0.4363 -0.6057 -0.8764
  170SAPE  H15X19299   5.665   3.516   8.299 -0.1024 -1.8884 -0.0585
  170SAPE  H15Y19300   5.537   3.412   8.318  1.5067 -1.2632 -0.1502
  170SAPE  C31619301   5.553   3.541   8.496  0.6110  0.2973 -0.4443
  170SAPE  H16X19302   5.444   3.536   8.517  0.8256  0.2034  0.6990
  170SAPE  H16Y19303   5.582   3.645   8.521 -0.8197  0.4200  0.8386
  170SAPE  C31719304   5.633   3.434   8.569  0.6836 -0.7738 -0.4414
  170SAPE  H17X19305   5.684   3.460   8.664  1.1868 -0.0503 -0.9001
  170SAPE  H17Y19306   5.725   3.417   8.510 -0.3339 -0.1047 -2.3012
  170SAPE  C31819307   5.551   3.305   8.589  0.0934  1.2560  0.0014
  170SAPE  H18X19308   5.484   3.316   8.677  2.4149  0.2538  2.0273
  170SAPE  H18Y19309   5.615   3.221   8.623  0.0424  1.2742  0.1481
  170SAPE  H18Z19310   5.484   3.281   8.504  0.7064  1.0117 -0.4127
  171SAPE     N19311   0.752   4.114   6.191 -0.6588  0.7313  0.0086
  171SAPE   HN119312   0.726   4.052   6.112  4.2429 -3.2006  0.9268
  171SAPE   HN219313   0.832   4.175   6.164 -0.6283  1.0610  0.8172
  171SAPE   HN319314   0.795   4.046   6.258  1.0470 -1.0873 -2.7089
  171SAPE   C1219315   0.630   4.183   6.250 -0.4097  0.5499 -0.5199
  171SAPE  H12A19316   0.545   4.174   6.178  0.2186 -0.8366 -1.1381
  171SAPE  H12B19317   0.659   4.289   6.268 -0.0628  0.4093 -0.2546
  171SAPE   C1119318   0.598   4.112   6.381  0.2496 -0.1454 -0.2418
  171SAPE  H11A19319   0.524   4.173   6.437  0.9177  0.7713 -0.3356
  171SAPE  H11B19320   0.678   4.119   6.458  1.3748  1.9754 -1.4896
  171SAPE     P19321   0.447   3.909   6.374  0.3318 -0.1187 -0.3010
  171SAPE   O1319322   0.350   3.955   6.270  0.0330  0.4068 -0.0698
  171SAPE   O1419323   0.460   3.760   6.386  0.5506  0.0002  0.0513
  171SAPE   O1219324   0.589   3.974   6.359  0.3085  1.3235 -0.3227
  171SAPE   O1119325   0.393   3.962   6.508  0.5243  0.2230  0.6016
  171SAPE    C119326   0.459   3.950   6.637  0.3098 -0.6033  0.0830
  171SAPE    HA19327   0.554   4.007   6.636  0.6527 -1.1427  1.0970
  171SAPE    HB19328   0.384   3.993   6.708 -0.7930  2.3492 -2.6262
  171SAPE    C219329   0.486   3.805   6.688  0.0497 -0.2100 -0.2280
  171SAPE    HS19330   0.427   3.728   6.633  0.8698 -3.5451  3.1559
  171SAPE   O2119331   0.443   3.800   6.828  0.4733 -0.4864  0.2529
  171SAPE   C2119332   0.424   3.679   6.875 -0.1346 -0.8085  0.7697
  171SAPE   O2219333   0.442   3.577   6.812  0.9559  0.4458 -0.1036
  171SAPE   C2219334   0.382   3.683   7.021  0.4566 -0.1717  0.6005
  171SAPE   H2R19335   0.400   3.781   7.069 -0.9450  0.2441  0.3338
  171SAPE   H2S19336   0.271   3.677   7.021  0.1761  3.0995  0.0884
  171SAPE    C319337   0.638   3.768   6.672  0.1297  0.1694 -0.0663
  171SAPE    HX19338   0.652   3.808   6.569 -1.7341 -2.0694 -1.2829
  171SAPE    HY19339   0.665   3.661   6.673 -0.8199 -0.0981  1.6624
  171SAPE   O3119340   0.721   3.843   6.761 -0.5651  0.1089  0.0138
  171SAPE   C3119341   0.768   3.781   6.870  0.3058 -0.1897  0.3323
  171SAPE   O3219342   0.760   3.660   6.891 -0.2638 -0.5097 -0.2756
  171SAPE   C3219343   0.858   3.879   6.942  0.3178 -0.3530  0.8004
  171SAPE   H2X19344   0.821   3.978   6.908 -1.2517 -2.1891 -3.6442
  171SAPE   H2Y19345   0.954   3.844   6.899 -0.7589 -2.6614  0.0943
  171SAPE   C2319346   0.441   3.566   7.096  0.2979 -0.1345 -0.4497
  171SAPE   H3R19347   0.552   3.568   7.087  0.2913  0.7709 -0.3821
  171SAPE   H3S19348   0.403   3.476   7.044 -1.5782 -0.0268  0.6472
  171SAPE   C2419349   0.412   3.561   7.245 -0.1870  0.1986  0.0424
  171SAPE   H4R19350   0.307   3.589   7.264 -0.1158 -1.2451  3.1252
  171SAPE   H4S19351   0.467   3.636   7.305  1.6695 -0.4470 -0.7576
  171SAPE   C2519352   0.443   3.429   7.304 -0.6038  0.2430 -0.1465
  171SAPE   H5R19353   0.442   3.341   7.238 -1.1640  1.3118 -1.6222
  171SAPE   C2619354   0.450   3.404   7.435  0.5292 -0.0833 -0.1829
  171SAPE   H6R19355   0.460   3.299   7.466  0.3196 -0.2398 -0.6265
  171SAPE   C2719356   0.438   3.495   7.552 -0.2531 -0.0019  0.3188
  171SAPE   H7R19357   0.385   3.587   7.520 -2.4416 -1.4110 -0.3893
  171SAPE   H7S19358   0.542   3.517   7.584 -0.0891 -2.0011  1.3133
  171SAPE   C2819359   0.371   3.450   7.678  0.0301 -0.0020 -0.2885
  171SAPE   H8R19360   0.435   3.428   7.765  1.1890 -1.4999 -1.4632
  171SAPE   C2919361   0.238   3.444   7.700 -0.0028 -0.1264 -0.2680
  171SAPE   H9R19362   0.197   3.395   7.789  1.0940 -2.5737 -1.0289
  171SAPE  C21019363   0.138   3.495   7.592 -1.1001 -0.5715 -0.6322
  171SAPE  H10R19364   0.186   3.512   7.493 -1.7640 -1.3690 -1.1100
  171SAPE  H10S19365   0.113   3.599   7.620  1.5058 -0.2832  0.9086
  171SAPE  C21119366   0.021   3.405   7.583 -0.1648 -0.9769  0.4694
  171SAPE  H11R19367   0.034   3.329   7.505  0.7961  0.5584 -0.9133
  171SAPE  C21219368  -0.092   3.406   7.652  0.1055 -0.3675  0.4836
  171SAPE  H12R19369  -0.167   3.326   7.638 -1.9287  1.3921  0.8046
  171SAPE  C21319370  -0.118   3.510   7.750  0.3646 -0.3018 -0.4814
  171SAPE  H13R19371  -0.022   3.542   7.797  0.2484  0.3390 -0.6694
  171SAPE  H13S19372  -0.176   3.463   7.832  0.8146 -1.0244 -0.5735
  171SAPE  C21419373  -0.189   3.633   7.698  0.3014  0.2865  0.1094
  171SAPE  H14R19374  -0.201   3.649   7.590  0.1456  1.3431  0.2739
  171SAPE  C21519375  -0.229   3.736   7.778 -0.2472  0.1804  0.1649
  171SAPE  H15R19376  -0.264   3.835   7.744 -0.1246  0.9288  2.1234
  171SAPE  C21619377  -0.227   3.734   7.929 -0.2572  0.3909 -0.0269
  171SAPE  H16R19378  -0.141   3.793   7.966  2.4935 -2.6415 -1.1216
  171SAPE  H16S19379  -0.210   3.635   7.977 -0.5604  0.3861  0.0781
  171SAPE  C21719380  -0.365   3.781   7.987 -0.3894 -0.5459  0.2059
  171SAPE  H17R19381  -0.448   3.732   7.932  1.5229 -0.7352 -2.7440
  171SAPE  H17S19382  -0.368   3.892   7.991  0.7705 -0.4433 -0.8666
  171SAPE  C21819383  -0.383   3.731   8.131 -0.0030 -0.0923  0.3438
  171SAPE  H18R19384  -0.399   3.621   8.131 -2.1870  0.1632 -0.8858
  171SAPE  H18S19385  -0.485   3.767   8.154  0.1147  0.3110  0.2514
  171SAPE  C21919386  -0.272   3.792   8.231 -0.4966  0.0580 -0.3363
  171SAPE  H19R19387  -0.273   3.901   8.213 -0.1349 -0.2029 -2.1074
  171SAPE  H19S19388  -0.170   3.756   8.202 -0.2935 -1.5555  2.0468
  171SAPE  C22019389  -0.297   3.745   8.365  0.1152 -0.8123  0.6619
  171SAPE  H20R19390  -0.387   3.796   8.406 -0.3240 -1.5984  0.6801
  171SAPE  H20S19391  -0.215   3.770   8.436  0.6838 -1.1426  0.1287
  171SAPE  H20T19392  -0.309   3.635   8.369  1.3177 -0.9468  0.9088
  171SAPE   C3319393   0.866   3.860   7.095 -0.2312  0.4055 -0.2287
  171SAPE   H3X19394   0.953   3.911   7.141  1.7311 -2.8506 -0.0618
  171SAPE   H3Y19395   0.897   3.755   7.113 -2.1687  0.1299  1.9696
  171SAPE   C3419396   0.740   3.886   7.174  0.0039  0.2457 -0.5750
  171SAPE   H4X19397   0.664   3.814   7.137 -0.0252  1.5658 -3.3088
  171SAPE   H4Y19398   0.706   3.985   7.138  0.2903 -0.7217 -3.8188
  171SAPE   C3519399   0.758   3.891   7.326  0.8077  0.7105 -0.5791
  171SAPE   H5X19400   0.811   3.982   7.361 -1.3284  1.1149  1.8642
  171SAPE   H5Y19401   0.806   3.794   7.352  1.4850  0.3576 -2.8914
  171SAPE   C3619402   0.620   3.873   7.402 -0.3300  0.8310  0.3689
  171SAPE   H6X19403   0.581   3.770   7.388  0.7925  0.4007  0.3237
  171SAPE   H6Y19404   0.541   3.937   7.357 -1.6235 -0.7298  0.3490
  171SAPE   C3719405   0.630   3.900   7.551  0.7086  0.9484  0.6987
  171SAPE   H7X19406   0.530   3.880   7.594 -0.1795  0.6631 -1.4400
  171SAPE   H7Y19407   0.666   4.005   7.555  0.0890  1.2585 -1.1412
  171SAPE   C3819408   0.729   3.804   7.622 -0.0727 -0.1159 -0.8996
  171SAPE   H8X19409   0.834   3.821   7.591 -0.2662  2.8065 -0.2244
  171SAPE   H8Y19410   0.707   3.696   7.604  1.0374 -0.0869 -2.5956
  171SAPE   C3919411   0.723   3.843   7.770  0.3856  0.1482  0.7652
  171SAPE   H9X19412   0.738   3.950   7.794 -2.0734  0.1120  2.9660
  171SAPE   H9Y19413   0.812   3.794   7.816  2.0076  2.6329  0.4541
  171SAPE  C31019414   0.596   3.815   7.851  0.2481  0.2442  0.4617
  171SAPE  H10X19415   0.500   3.827   7.795  0.2756  0.3207  0.4306
  171SAPE  H10Y19416   0.593   3.881   7.940 -1.3913  0.8584 -0.0019
  171SAPE  C31119417   0.590   3.664   7.888  0.8097 -0.8023 -1.2162
  171SAPE  H11X19418   0.692   3.621   7.896  2.4198  2.1189 -3.8446
  171SAPE  H11Y19419   0.531   3.613   7.809  0.2472 -0.6113 -0.9298
  171SAPE  C31219420   0.513   3.632   8.023  0.5388 -0.8824  0.6079
  171SAPE  H12X19421   0.411   3.676   8.025  0.1882 -1.6365  0.0257
  171SAPE  H12Y19422   0.567   3.688   8.101 -0.0536 -0.2184  0.5509
  171SAPE  C31319423   0.506   3.488   8.046 -0.1171 -0.2721  0.2522
  171SAPE  H13X19424   0.611   3.456   8.063 -0.2865  0.6075  3.6334
  171SAPE  H13Y19425   0.457   3.422   7.972 -0.0761 -0.5216  0.4488
  171SAPE  C31419426   0.433   3.470   8.176 -0.4092  0.2339 -0.1142
  171SAPE  H14X19427   0.326   3.502   8.166 -0.4324 -0.0898 -1.0176
  171SAPE  H14Y19428   0.490   3.537   8.245 -1.4744  0.6311  0.4119
  171SAPE  C31519429   0.436   3.329   8.232 -0.0270  0.6339 -0.4600
  171SAPE  H15X19430   0.536   3.285   8.250  0.3530  1.3055 -0.8648
  171SAPE  H15Y19431   0.385   3.262   8.159 -0.2853  1.3817 -0.9843
  171SAPE  C31619432   0.354   3.318   8.362  0.5408  0.3877 -0.1390
  171SAPE  H16X19433   0.256   3.367   8.349 -0.5623 -1.7520 -0.3573
  171SAPE  H16Y19434   0.411   3.381   8.433  0.2158  1.3289 -0.6992
  171SAPE  C31719435   0.345   3.170   8.407  0.2425 -0.2202 -0.4932
  171SAPE  H17X19436   0.447   3.150   8.446  0.0927 -0.4089 -0.1995
  171SAPE  H17Y19437   0.330   3.099   8.323 -1.2723  0.3834 -0.7668
  171SAPE  C31819438   0.245   3.152   8.520 -0.6509 -0.4794  0.5344
  171SAPE  H18X19439   0.143   3.184   8.491 -0.9734 -1.0101  1.0542
  171SAPE  H18Y19440   0.279   3.216   8.604 -0.2643 -1.3243  1.0382
  171SAPE  H18Z19441   0.238   3.047   8.556  0.7831 -0.8073 -0.0685
  172SAPE     N19442   2.983   1.059   6.376  0.4301 -0.0862  0.6547
  172SAPE   HN119443   3.022   0.974   6.423  0.4552  0.4388  1.6140
  172SAPE   HN219444   2.891   1.025   6.344 -0.5683  3.0883 -0.1116
  172SAPE   HN319445   3.037   1.077   6.289 -1.3456 -0.3419 -0.5306
  172SAPE   C1219446   2.993   1.170   6.488  0.3577  1.7974  0.1326
  172SAPE  H12A19447   3.073   1.129   6.553  0.0854 -0.0899 -0.6595
  172SAPE  H12B19448   2.899   1.166   6.547 -0.9919  1.2852 -1.9184
  172SAPE   C1119449   3.019   1.304   6.434  0.5780 -0.7842 -0.0061
  172SAPE  H11A19450   3.124   1.299   6.398  1.1764  0.2759  1.5174
  172SAPE  H11B19451   3.023   1.379   6.515  4.5465 -0.1510 -0.5694
  172SAPE     P19452   2.888   1.461   6.269 -0.3047  0.1085  0.1137
  172SAPE   O1319453   2.981   1.487   6.155 -0.3392 -0.0254  0.4367
  172SAPE   O1419454   2.747   1.467   6.236  0.5682 -0.2166  0.2910
  172SAPE   O1219455   2.916   1.324   6.338 -0.2685 -0.7096 -0.1529
  172SAPE   O1119456   2.913   1.567   6.374 -0.1385 -0.4197  0.1713
  172SAPE    C119457   2.831   1.578   6.486  0.2372  0.0578  0.6822
  172SAPE    HA19458   2.731   1.612   6.451 -0.6241 -2.7139  0.1368
  172SAPE    HB19459   2.810   1.477   6.529 -0.0280 -0.1193  0.1471
  172SAPE    C219460   2.887   1.662   6.600 -0.3045 -0.9916  0.0690
  172SAPE    HS19461   2.911   1.764   6.562  0.2749 -0.8604  0.7474
  172SAPE   O2119462   3.007   1.598   6.660  0.3330  0.0156 -0.2503
  172SAPE   C2119463   3.093   1.687   6.712 -0.5524  0.5566  0.1176
  172SAPE   O2219464   3.106   1.805   6.690  0.5210 -0.1310  0.0129
  172SAPE   C2219465   3.198   1.604   6.786  0.0872 -0.1326  0.1296
  172SAPE   H2R19466   3.241   1.549   6.700 -0.8025 -0.6993  0.0404
  172SAPE   H2S19467   3.274   1.683   6.806 -1.1121  1.8714 -2.6033
  172SAPE    C319468   2.775   1.689   6.700  0.8065  0.5232 -0.4251
  172SAPE    HX19469   2.758   1.588   6.743  4.3336 -0.6790 -1.4758
  172SAPE    HY19470   2.686   1.723   6.643  0.5072  0.0074 -0.2743
  172SAPE   O3119471   2.812   1.781   6.801  0.4807  0.2206 -0.7566
  172SAPE   C3119472   2.814   1.913   6.780 -0.2391  0.4848  0.5610
  172SAPE   O3219473   2.804   1.968   6.669  0.5482 -0.0745 -0.4826
  172SAPE   C3219474   2.820   1.993   6.910  0.6314  0.2941  0.8299
  172SAPE   H2X19475   2.725   2.011   6.965 -0.6848  0.5218 -1.3696
  172SAPE   H2Y19476   2.852   2.095   6.877  2.3104  0.0384  1.5692
  172SAPE   C2319477   3.154   1.517   6.905 -0.4663 -0.3141 -0.2720
  172SAPE   H3R19478   3.115   1.422   6.863  1.8530 -0.9563 -1.1331
  172SAPE   H3S19479   3.072   1.575   6.953 -0.3326  0.5545 -1.0493
  172SAPE   C2419480   3.270   1.479   7.001 -0.0613  0.5752  0.8593
  172SAPE   H4R19481   3.327   1.564   7.044  0.5960  1.6248 -1.8372
  172SAPE   H4S19482   3.345   1.433   6.933 -1.0081  2.1381 -1.4006
  172SAPE   C2519483   3.221   1.388   7.110  0.3737  0.1928  0.0705
  172SAPE   H5R19484   3.158   1.305   7.076  0.7674 -0.8438  1.7452
  172SAPE   C2619485   3.243   1.399   7.243  0.6039 -0.1812  0.4475
  172SAPE   H6R19486   3.212   1.310   7.300 -1.1668  0.2277  0.1866
  172SAPE   C2719487   3.320   1.508   7.316 -0.0705  0.5082  0.2117
  172SAPE   H7R19488   3.254   1.543   7.398  0.3597  0.2749  0.6590
  172SAPE   H7S19489   3.335   1.600   7.256  1.4397 -0.0798 -0.3546
  172SAPE   C2819490   3.447   1.469   7.375 -0.4878 -0.1119 -0.0798
  172SAPE   H8R19491   3.512   1.409   7.309 -0.7685 -0.4621 -0.0402
  172SAPE   C2919492   3.511   1.544   7.472 -0.4126  0.6193  0.5280
  172SAPE   H9R19493   3.604   1.496   7.503 -0.3944  1.2641  1.5367
  172SAPE  C21019494   3.477   1.669   7.547  0.0716  0.1162  0.1068
  172SAPE  H10R19495   3.387   1.722   7.509 -2.2636 -1.8042  2.5512
  172SAPE  H10S19496   3.563   1.732   7.518  1.6025 -2.1829 -0.6004
  172SAPE  C21119497   3.467   1.659   7.699  0.3051 -0.3690 -0.3380
  172SAPE  H11R19498   3.378   1.600   7.728  0.7958 -1.9611 -1.8643
  172SAPE  C21219499   3.556   1.691   7.792  0.5759 -0.6173 -0.4089
  172SAPE  H12R19500   3.529   1.665   7.895 -1.0967  1.2314 -0.3265
  172SAPE  C21319501   3.695   1.751   7.778  0.1496  0.0147 -0.3008
  172SAPE  H13R19502   3.714   1.837   7.846  1.8429  0.5890 -1.4343
  172SAPE  H13S19503   3.704   1.793   7.676 -1.3995  0.9744 -0.0738
  172SAPE  C21419504   3.800   1.649   7.811  0.6574  0.0297 -0.3046
  172SAPE  H14R19505   3.813   1.577   7.729  1.3950 -0.3933  0.1682
  172SAPE  C21519506   3.885   1.643   7.917  0.1536  0.9971 -0.4007
  172SAPE  H15R19507   3.964   1.567   7.905  0.8138  1.7461 -0.9405
  172SAPE  C21619508   3.900   1.732   8.036  0.2606 -0.0813  0.5584
  172SAPE  H16R19509   3.809   1.796   8.051 -0.4412 -1.1929  1.1831
  172SAPE  H16S19510   3.982   1.801   8.004  1.1751 -1.7628 -0.8770
  172SAPE  C21719511   3.940   1.654   8.158 -0.5093  0.3050  0.0745
  172SAPE  H17R19512   3.983   1.729   8.228  0.3953 -0.3311  0.2247
  172SAPE  H17S19513   4.012   1.573   8.134 -1.7360 -0.9808  0.6224
  172SAPE  C21819514   3.818   1.600   8.237  0.1460  0.3289 -0.0075
  172SAPE  H18R19515   3.796   1.500   8.192  1.4251  0.3943 -0.8321
  172SAPE  H18S19516   3.726   1.660   8.219 -0.1878  0.3534  1.6235
  172SAPE  C21919517   3.850   1.588   8.386  0.4200 -0.5712 -0.0505
  172SAPE  H19R19518   3.836   1.688   8.433 -2.5611  0.4812 -2.7662
  172SAPE  H19S19519   3.952   1.546   8.398  0.2606 -1.0432 -0.3229
  172SAPE  C22019520   3.757   1.489   8.451  0.1408  0.5983  0.8161
  172SAPE  H20R19521   3.797   1.478   8.554  2.9530 -0.9936 -0.3333
  172SAPE  H20S19522   3.767   1.388   8.405 -0.0972  0.9157  0.0515
  172SAPE  H20T19523   3.651   1.521   8.449 -1.0806 -2.9412  1.9378
  172SAPE   C3319524   2.917   1.943   7.013  0.1908  0.0230 -1.1168
  172SAPE   H3X19525   3.019   1.945   6.969  0.8982 -1.4185  0.3756
  172SAPE   H3Y19526   2.901   1.837   7.039  0.2522  0.8230  2.6730
  172SAPE   C3419527   2.915   2.028   7.140 -0.0986 -0.8285 -0.1341
  172SAPE   H4X19528   2.835   1.988   7.206 -0.2105  1.8460  1.4772
  172SAPE   H4Y19529   2.896   2.136   7.124 -2.9735 -1.2110  0.2693
  172SAPE   C3519530   3.047   2.010   7.217 -0.1746  0.1096 -0.8835
  172SAPE   H5X19531   3.127   2.073   7.171  1.2319 -1.4054 -0.6189
  172SAPE   H5Y19532   3.079   1.903   7.220 -0.7496 -0.0571  1.7866
  172SAPE   C3619533   3.020   2.045   7.366  0.1419 -0.4487  0.8670
  172SAPE   H6X19534   2.933   1.986   7.402  0.9012 -1.6235  0.8267
  172SAPE   H6Y19535   3.015   2.156   7.374 -0.9589 -0.4818  0.7027
  172SAPE   C3719536   3.132   1.994   7.450 -0.1275 -0.7393  0.8219
  172SAPE   H7X19537   3.226   2.020   7.396 -0.3657 -0.1692  0.6633
  172SAPE   H7Y19538   3.131   1.884   7.465 -1.0802 -0.8087  0.3034
  172SAPE   C3819539   3.146   2.056   7.592 -0.1163  0.4123 -0.1604
  172SAPE   H8X19540   3.228   1.999   7.641 -0.8941  0.1096  0.8027
  172SAPE   H8Y19541   3.056   2.038   7.654 -1.4420 -0.6292 -2.2875
  172SAPE   C3919542   3.182   2.204   7.607  0.3042  0.6907 -0.3381
  172SAPE   H9X19543   3.096   2.264   7.571  1.4179  2.4934 -0.0913
  172SAPE   H9Y19544   3.270   2.224   7.542  0.8107 -1.6381 -0.4420
  172SAPE  C31019545   3.215   2.249   7.745 -0.8415 -0.3081 -0.7043
  172SAPE  H10X19546   3.134   2.270   7.818 -0.0873 -0.3316  0.1654
  172SAPE  H10Y19547   3.274   2.343   7.740 -0.3370 -0.6641 -2.0379
  172SAPE  C31119548   3.321   2.172   7.834  0.1645  0.5066 -0.4320
  172SAPE  H11X19549   3.411   2.161   7.770  1.8743 -2.3593  2.2191
  172SAPE  H11Y19550   3.277   2.073   7.854  1.5027  0.3477  2.0156
  172SAPE  C31219551   3.364   2.240   7.968  1.1416  0.9402  0.6315
  172SAPE  H12X19552   3.391   2.155   8.035  1.3017 -0.1706 -0.7896
  172SAPE  H12Y19553   3.285   2.299   8.020  0.0949 -0.5221  0.7596
  172SAPE  C31319554   3.492   2.321   7.959  0.1408 -0.1129 -0.0214
  172SAPE  H13X19555   3.494   2.386   7.868  1.0409 -2.7019 -1.9859
  172SAPE  H13Y19556   3.578   2.251   7.948 -1.1187 -1.3849 -2.7789
  172SAPE  C31419557   3.522   2.415   8.082 -0.4333  0.8921 -0.1241
  172SAPE  H14X19558   3.445   2.495   8.083 -2.1518 -0.6730 -1.1540
  172SAPE  H14Y19559   3.622   2.460   8.063  0.3822 -0.5644  0.5324
  172SAPE  C31519560   3.532   2.338   8.217  0.0036  0.5002 -0.4587
  172SAPE  H15X19561   3.597   2.249   8.199 -0.7821 -0.2145  0.1328
  172SAPE  H15Y19562   3.431   2.297   8.240  0.5371 -0.4372  0.2664
  172SAPE  C31619563   3.580   2.433   8.329 -0.0868 -0.7716 -0.7110
  172SAPE  H16X19564   3.495   2.496   8.362 -0.6542 -1.5801 -0.5856
  172SAPE  H16Y19565   3.665   2.487   8.282  0.0240  0.7560  1.1648
  172SAPE  C31719566   3.623   2.347   8.447 -0.0292 -0.2190 -0.0676
  172SAPE  H17X19567   3.643   2.398   8.543  0.5334 -1.0358  0.2590
  172SAPE  H17Y19568   3.716   2.294   8.416  0.0464  0.4206 -0.9704
  172SAPE  C31819569   3.513   2.241   8.487  0.2142 -0.0651  0.3247
  172SAPE  H18X19570   3.504   2.172   8.400  1.4021  0.1064  0.0480
  172SAPE  H18Y19571   3.422   2.301   8.509  0.1018 -0.5595  1.2542
  172SAPE  H18Z19572   3.540   2.180   8.576 -0.9918 -0.5365  0.3951
  173SOPE     N19573   2.680   0.262  10.734 -0.0968 -0.0404 -0.5278
  173SOPE   HN119574   2.736   0.183  10.695  0.8385  0.8362 -1.0239
  173SOPE   HN219575   2.595   0.266  10.674  0.3445  2.2598 -1.1168
  173SOPE   HN319576   2.731   0.353  10.727 -1.2727  0.7420  0.6448
  173SOPE   C1219577   2.650   0.221  10.874 -0.1074  0.2189  0.8419
  173SOPE  H12A19578   2.609   0.118  10.860  0.8365 -0.1977  1.0546
  173SOPE  H12B19579   2.573   0.289  10.916 -1.0674  0.4981 -1.2033
  173SOPE   C1119580   2.783   0.205  10.951  1.2166 -0.4923 -0.4432
  173SOPE  H11A19581   2.768   0.164  11.054  1.4757  2.7586  1.0077
  173SOPE  H11B19582   2.815   0.311  10.962 -0.5411 -0.1197  1.9380
  173SOPE     P19583   3.023   0.124  10.946  0.0495 -0.0625 -0.4862
  173SOPE   O1319584   3.015   0.056  11.078  0.3621 -0.7160  0.6892
  173SOPE   O1419585   3.094   0.256  10.944  0.1797 -0.1669  0.3159
  173SOPE   O1219586   2.877   0.127  10.879 -0.2554  0.7709  0.2647
  173SOPE   O1119587   3.105   0.030  10.852 -0.4724  0.1956 -0.3520
  173SOPE    C119588   3.039  -0.079  10.788 -0.4335  0.5446  1.0670
  173SOPE    HA19589   2.936  -0.099  10.825 -1.2394  1.7647 -0.3704
  173SOPE    HB19590   3.100  -0.164  10.826  0.2046  1.3404  1.8584
  173SOPE    C219591   3.047  -0.073  10.633 -0.4111  0.4082  0.2287
  173SOPE    HS19592   3.047   0.036  10.612 -0.4586  0.8350  2.2340
  173SOPE   O2119593   2.931  -0.143  10.577  0.3711 -0.3077 -0.5948
  173SOPE   C2119594   2.824  -0.065  10.554 -0.2242 -1.0411  0.2631
  173SOPE   O2219595   2.830   0.055  10.581  0.2877 -0.2181  0.4976
  173SOPE   C2219596   2.717  -0.133  10.478  0.1186  0.4921 -0.1365
  173SOPE   H2R19597   2.642  -0.176  10.548  0.1130  0.4361 -0.1767
  173SOPE   H2S19598   2.743  -0.226  10.423  0.6306  0.4086  0.2433
  173SOPE    C319599   3.181  -0.138  10.571  0.0128 -0.2478 -0.4677
  173SOPE    HX19600   3.179  -0.244  10.604  1.3998 -0.2310 -0.2685
  173SOPE    HY19601   3.269  -0.082  10.608 -0.0161 -1.2616  1.2373
  173SOPE   O3119602   3.171  -0.151  10.427 -0.8128 -0.1489  0.4048
  173SOPE   C3119603   3.181  -0.040  10.361  0.1650 -0.4743  0.2519
  173SOPE   O3219604   3.178   0.071  10.411 -0.2519  0.1929  0.0988
  173SOPE   C3219605   3.194  -0.068  10.211 -0.4399 -0.8480  0.1955
  173SOPE   H2X19606   3.113  -0.133  10.172  1.8102 -3.1941 -0.8117
  173SOPE   H2Y19607   3.289  -0.123  10.194  0.1606  0.1608  0.1440
  173SOPE   C2319608   2.656  -0.031  10.376 -0.2392  0.3137  0.3878
  173SOPE   H3R19609   2.616   0.059  10.430 -4.0002 -1.1859  0.4017
  173SOPE   H3S19610   2.558  -0.070  10.343 -0.3641  0.5624  0.4533
  173SOPE   C2419611   2.736  -0.011  10.255  0.0497  0.3788  0.3009
  173SOPE   H4R19612   2.683   0.058  10.186  2.1225  1.2851 -0.4476
  173SOPE   H4S19613   2.832   0.037  10.281 -0.0445  0.7609 -0.0486
  173SOPE   C2519614   2.772  -0.139  10.185 -0.5182  0.2004 -0.3550
  173SOPE   H5R19615   2.856  -0.182  10.243  0.4725  1.1662 -1.0238
  173SOPE   H5S19616   2.692  -0.215  10.171 -1.2170  0.3615  2.3200
  173SOPE   C2619617   2.851  -0.094  10.054 -0.4689 -0.2941  0.1529
  173SOPE   H6R19618   2.893   0.008  10.067 -1.5176 -0.0966  2.7044
  173SOPE   H6S19619   2.943  -0.154  10.037 -0.1896 -0.7545  2.7761
  173SOPE   C2719620   2.757  -0.097   9.931  0.4363 -0.2253  0.6034
  173SOPE   H7R19621   2.737  -0.198   9.889 -0.5505  0.5861 -0.9688
  173SOPE   H7S19622   2.658  -0.052   9.957  0.5149  1.4595 -1.6948
  173SOPE   C2819623   2.814  -0.011   9.813 -0.0924 -0.0994  0.6638
  173SOPE   H8R19624   2.731  -0.007   9.739  1.7709 -0.7046 -1.5867
  173SOPE   H8S19625   2.835   0.089   9.858 -0.3429  0.1112  0.3157
  173SOPE   C2919626   2.933  -0.064   9.736  0.5430 -0.0810 -0.1222
  173SOPE   H9119627   3.026  -0.027   9.783  0.3808 -0.2784  0.3539
  173SOPE  C21019628   2.928  -0.128   9.616 -0.8325  0.5861  0.0727
  173SOPE  H10119629   3.025  -0.155   9.573  0.1196  0.9280  1.8796
  173SOPE  C21119630   2.805  -0.165   9.538  0.1087  0.0713 -0.3690
  173SOPE  H11R19631   2.714  -0.114   9.578 -0.1830  0.2320 -1.2282
  173SOPE  H11S19632   2.783  -0.273   9.524 -1.4782  0.4618 -1.0805
  173SOPE  C21219633   2.811  -0.108   9.396 -0.4282 -0.5143  0.6177
  173SOPE  H12R19634   2.846  -0.003   9.406  2.2162 -1.2425 -0.0626
  173SOPE  H12S19635   2.709  -0.120   9.355 -0.3826 -0.4289  0.4770
  173SOPE  C21319636   2.914  -0.164   9.292  0.3958 -0.5198  0.4480
  173SOPE  H13R19637   2.903  -0.275   9.295 -0.6453 -0.4389  0.0020
  173SOPE  H13S19638   3.014  -0.134   9.331 -0.2183  0.2644  1.4718
  173SOPE  C21419639   2.876  -0.120   9.149 -0.5402  0.1929  0.5291
  173SOPE  H14R19640   2.878  -0.009   9.141  1.3144  0.3188  2.0396
  173SOPE  H14S19641   2.770  -0.145   9.130 -0.0450 -1.3850 -0.3480
  173SOPE  C21519642   2.969  -0.181   9.038 -0.3995 -0.7051  0.0481
  173SOPE  H15R19643   2.956  -0.291   9.029  1.5297 -0.8300 -2.7336
  173SOPE  H15S19644   3.075  -0.166   9.068  0.1944 -4.6997  0.5236
  173SOPE  C21619645   2.932  -0.121   8.905  0.1289  0.2244 -0.4521
  173SOPE  H16R19646   2.931  -0.010   8.903 -0.7216  0.2129 -1.2802
  173SOPE  H16S19647   2.829  -0.154   8.880 -0.5349  1.3038  0.7243
  173SOPE  C21719648   3.015  -0.181   8.785  0.1728  0.0200 -0.3457
  173SOPE  H17R19649   2.991  -0.289   8.788 -1.2431  0.3250  1.0940
  173SOPE  H17S19650   3.121  -0.174   8.818 -0.1922  1.1113  0.7249
  173SOPE  C21819651   2.975  -0.103   8.662 -0.2813  0.1191  0.5554
  173SOPE  H18R19652   2.892  -0.157   8.612 -2.4259  0.5843  3.3671
  173SOPE  H18S19653   3.060  -0.104   8.590  0.5809 -0.5403  1.5599
  173SOPE  H18T19654   2.948   0.001   8.690  1.4492  0.1194  2.3807
  173SOPE   C3319655   3.211   0.062  10.121  0.6411 -0.5177  0.0980
  173SOPE   H3X19656   3.252   0.149  10.176 -0.9732  0.3611  0.0016
  173SOPE   H3Y19657   3.117   0.107  10.082  0.5200 -0.5017  0.4099
  173SOPE   C3419658   3.300   0.037  10.005 -0.6357 -0.2473  0.3056
  173SOPE   H4X19659   3.280  -0.064   9.965 -1.4241  0.1131 -0.2182
  173SOPE   H4Y19660   3.406   0.044  10.040  0.0042 -0.3259 -1.5333
  173SOPE   C3519661   3.290   0.126   9.881  0.0841 -0.2915  0.2835
  173SOPE   H5X19662   3.357   0.215   9.883  1.0439 -1.0018  0.2831
  173SOPE   H5Y19663   3.185   0.159   9.867  0.2251 -0.8002 -2.3307
  173SOPE   C3619664   3.318   0.055   9.746  0.0628 -0.1371 -0.4937
  173SOPE   H6X19665   3.251  -0.034   9.738  1.2884 -1.1947  0.4110
  173SOPE   H6Y19666   3.419   0.010   9.747  0.3173  0.3411  1.7012
  173SOPE   C3719667   3.288   0.147   9.627 -0.2449  0.1593 -0.8958
  173SOPE   H7X19668   3.351   0.239   9.630  0.2382 -0.1514 -1.3687
  173SOPE   H7Y19669   3.187   0.193   9.639 -0.5569 -0.7313  0.0783
  173SOPE   C3819670   3.279   0.079   9.490 -0.3438  0.2734 -0.3193
  173SOPE   H8X19671   3.205  -0.004   9.489  0.4904 -0.4946 -0.0623
  173SOPE   H8Y19672   3.376   0.029   9.468 -0.1824  0.7478 -0.7159
  173SOPE   C3919673   3.245   0.187   9.387 -0.3778  0.7647 -0.2216
  173SOPE   H9X19674   3.333   0.254   9.382 -0.5947  1.2680  1.7826
  173SOPE   H9Y19675   3.156   0.247   9.419 -0.1860  1.7382 -1.4151
  173SOPE  C31019676   3.217   0.120   9.252  0.4072  0.1343 -0.2306
  173SOPE  H10X19677   3.129   0.052   9.256 -1.4274  2.3671  3.7355
  173SOPE  H10Y19678   3.312   0.065   9.235  0.6729  0.4484  0.2126
  173SOPE  C31119679   3.198   0.216   9.145  0.2686 -0.4700  0.1212
  173SOPE  H11X19680   3.286   0.278   9.118  1.0809 -0.6123  2.2370
  173SOPE  H11Y19681   3.125   0.287   9.189  1.2898  0.9449 -0.4291
  173SOPE  C31219682   3.127   0.157   9.023  0.6217  0.1701 -0.2136
  173SOPE  H12X19683   3.030   0.115   9.059  2.2986 -2.5973  1.5020
  173SOPE  H12Y19684   3.185   0.071   8.984  0.3230  0.2747 -0.9129
  173SOPE  C31319685   3.099   0.262   8.920  0.4656 -0.7035 -0.6811
  173SOPE  H13X19686   3.176   0.343   8.925 -2.4054  2.1608  3.3115
  173SOPE  H13Y19687   3.002   0.311   8.944  0.7123  0.3386 -1.7122
  173SOPE  C31419688   3.105   0.211   8.776  0.1457 -0.7033 -0.0174
  173SOPE  H14X19689   3.006   0.165   8.755  0.3340 -1.2081  0.1607
  173SOPE  H14Y19690   3.174   0.124   8.767  1.0776  0.1593 -1.8563
  173SOPE  C31519691   3.130   0.317   8.665 -0.7334  0.4375  0.0492
  173SOPE  H15X19692   3.111   0.277   8.563 -0.2843 -1.5696  0.7056
  173SOPE  H15Y19693   3.238   0.344   8.670 -0.7535  0.3810  1.2520
  173SOPE  C31619694   3.047   0.440   8.677 -0.3053 -0.1121 -0.3078
  173SOPE  H16X19695   3.052   0.482   8.780  1.6205  1.8205 -1.1125
  173SOPE  H16Y19696   2.941   0.407   8.672  0.3785 -2.7412  1.1652
  173SOPE  C31719697   3.062   0.540   8.563  0.9496 -0.0343 -0.2494
  173SOPE  H17X19698   3.030   0.487   8.471  1.9318  0.1391 -0.6975
  173SOPE  H17Y19699   3.171   0.561   8.557  0.8274  1.0872  0.9943
  173SOPE  C31819700   2.983   0.673   8.582  0.3762 -0.0674  0.5431
  173SOPE  H18X19701   2.879   0.660   8.619 -0.4096  0.3878 -1.3946
  173SOPE  H18Y19702   2.990   0.737   8.492  0.4513  1.7513  1.7819
  173SOPE  H18Z19703   3.017   0.739   8.666 -3.0947  2.0621  0.4533
  174SOPE     N19704   2.677   0.831  10.883 -0.5231  0.8042  0.3183
  174SOPE   HN119705   2.751   0.762  10.907  1.5038  2.7522 -0.0110
  174SOPE   HN219706   2.679   0.916  10.942  1.7179  0.3018  1.0292
  174SOPE   HN319707   2.591   0.772  10.892 -0.4549  0.7057  0.3263
  174SOPE   C1219708   2.696   0.859  10.733  0.7956 -0.0253  0.0490
  174SOPE  H12A19709   2.774   0.938  10.731 -0.4352  1.2358  0.6859
  174SOPE  H12B19710   2.596   0.898  10.705  0.0779 -1.6089  0.2882
  174SOPE   C1119711   2.751   0.732  10.661 -0.2409  0.3049  0.1143
  174SOPE  H11A19712   2.751   0.758  10.553 -0.2193  0.0585  0.0548
  174SOPE  H11B19713   2.687   0.641  10.665  1.4432 -0.9415 -0.3985
  174SOPE     P19714   2.926   0.599  10.816 -0.3710 -0.0066 -0.3673
  174SOPE   O1319715   2.835   0.629  10.926 -0.2473  0.3286 -0.2186
  174SOPE   O1419716   3.069   0.611  10.859 -0.2380 -0.5870  0.6286
  174SOPE   O1219717   2.886   0.710  10.705  0.3289 -0.2830  0.0855
  174SOPE   O1119718   2.893   0.458  10.750 -0.4407  0.7748 -0.3112
  174SOPE    C119719   3.004   0.399  10.678  0.4808  0.2335 -0.0104
  174SOPE    HA19720   3.013   0.290  10.703  2.2446  0.5726  1.0267
  174SOPE    HB19721   3.100   0.440  10.716 -0.8262  1.3623  2.3299
  174SOPE    C219722   2.983   0.430  10.524  0.7564  0.1226  0.2259
  174SOPE    HS19723   2.986   0.540  10.513  0.9242 -0.1570 -4.3167
  174SOPE   O2119724   2.861   0.375  10.468 -0.1987  0.1459 -0.4889
  174SOPE   C2119725   2.796   0.438  10.370 -0.3715 -0.6123  0.2166
  174SOPE   O2219726   2.820   0.557  10.337 -0.0009 -1.0434  0.6550
  174SOPE   C2219727   2.680   0.338  10.329 -0.3578 -0.6456 -0.0289
  174SOPE   H2R19728   2.604   0.348  10.410 -0.9636  2.3054 -0.8491
  174SOPE   H2S19729   2.713   0.233  10.340  4.6007  0.5135 -1.4071
  174SOPE    C319730   3.106   0.377  10.451  0.5602 -0.4136  0.6270
  174SOPE    HX19731   3.127   0.276  10.491 -0.0811  0.1394  2.4669
  174SOPE    HY19732   3.193   0.441  10.477  0.0638  0.9855 -0.9800
  174SOPE   O3119733   3.085   0.368  10.311 -0.4168  0.2690 -0.0281
  174SOPE   C3119734   3.159   0.442  10.234  0.2716  0.5388 -0.4896
  174SOPE   O3219735   3.255   0.509  10.259 -0.0094  0.3909  0.8243
  174SOPE   C3219736   3.093   0.431  10.097 -0.3973 -0.4062 -0.0319
  174SOPE   H2X19737   3.003   0.496  10.101  0.1187  0.2764  0.8087
  174SOPE   H2Y19738   3.055   0.329  10.074  0.5472 -0.7832  0.0644
  174SOPE   C2319739   2.611   0.370  10.193  0.4940 -0.2713  0.2314
  174SOPE   H3R19740   2.571   0.473  10.205  1.8482  0.4227 -0.9137
  174SOPE   H3S19741   2.523   0.302  10.192  0.4011 -0.1552  0.4862
  174SOPE   C2419742   2.706   0.360  10.067  0.0867 -0.0507 -0.1127
  174SOPE   H4R19743   2.762   0.455  10.054  0.1276 -0.0195  0.2778
  174SOPE   H4S19744   2.764   0.265  10.072  0.4164  0.1541 -0.0170
  174SOPE   C2519745   2.626   0.362   9.933 -0.0455  0.3707 -0.9169
  174SOPE   H5R19746   2.577   0.263   9.931 -1.9583  1.2334 -0.1061
  174SOPE   H5S19747   2.544   0.437   9.934 -0.3178  0.0814  0.5997
  174SOPE   C2619748   2.721   0.377   9.810  0.0563  0.0083 -0.8313
  174SOPE   H6R19749   2.797   0.456   9.828  0.4750 -0.4702 -0.4707
  174SOPE   H6S19750   2.778   0.284   9.788 -0.2718 -0.1849 -0.8638
  174SOPE   C2719751   2.640   0.404   9.680  0.7000 -0.8760  0.3690
  174SOPE   H7R19752   2.538   0.366   9.702 -0.2177  1.7816  1.0897
  174SOPE   H7S19753   2.626   0.513   9.663 -2.0959 -0.8913  1.8562
  174SOPE   C2819754   2.695   0.349   9.555  0.2071  0.8677  0.3023
  174SOPE   H8R19755   2.698   0.239   9.568 -1.2336  1.0147  2.3358
  174SOPE   H8S19756   2.635   0.374   9.466 -0.3146 -1.5194 -0.0647
  174SOPE   C2919757   2.841   0.385   9.529  0.4202  0.1996 -1.3922
  174SOPE   H9119758   2.913   0.384   9.612 -0.8009 -1.6109 -0.2786
  174SOPE  C21019759   2.890   0.408   9.410  0.0102 -0.0118  0.4080
  174SOPE  H10119760   2.998   0.427   9.406 -0.4456  2.9969 -1.2394
  174SOPE  C21119761   2.825   0.410   9.273  0.0021 -0.3640 -0.0577
  174SOPE  H11R19762   2.726   0.456   9.294  0.3467  0.4172 -0.1052
  174SOPE  H11S19763   2.818   0.304   9.240  1.6716 -0.4442 -0.2586
  174SOPE  C21219764   2.899   0.505   9.182  0.2120  0.6063 -0.2717
  174SOPE  H12R19765   2.996   0.461   9.151  0.0725 -0.3602  0.6000
  174SOPE  H12S19766   2.916   0.607   9.222  2.5066  0.0488  0.3103
  174SOPE  C21319767   2.819   0.547   9.056 -0.6401 -0.4125  0.0170
  174SOPE  H13R19768   2.720   0.594   9.074  0.6444  2.2460  0.6137
  174SOPE  H13S19769   2.801   0.454   8.999  0.8448 -1.5092  1.2776
  174SOPE  C21419770   2.899   0.655   8.969 -0.2993  0.7759 -0.3021
  174SOPE  H14R19771   2.839   0.647   8.875  0.2530  1.3540 -0.7141
  174SOPE  H14S19772   3.003   0.627   8.939  0.3208 -1.0551  3.0188
  174SOPE  C21519773   2.910   0.804   9.017  0.3788 -1.0128 -0.1125
  174SOPE  H15R19774   2.977   0.818   9.105  0.1680 -0.7415  0.0038
  174SOPE  H15S19775   2.805   0.833   9.038  0.4369 -1.2403  0.5325
  174SOPE  C21619776   2.962   0.887   8.898 -0.3894 -0.4517 -0.5666
  174SOPE  H16R19777   3.056   0.847   8.855  0.6450  0.2869  0.9170
  174SOPE  H16S19778   2.987   0.987   8.939 -1.7274 -0.4384  0.2650
  174SOPE  C21719779   2.854   0.927   8.800  0.1687  0.2247 -0.5456
  174SOPE  H17R19780   2.779   0.979   8.863 -0.1250  0.3564 -0.9960
  174SOPE  H17S19781   2.801   0.838   8.760  2.5055 -1.2150 -0.6597
  174SOPE  C21819782   2.909   1.008   8.680  0.6957  0.8075  0.8036
  174SOPE  H18R19783   2.975   0.943   8.619 -0.4009  1.3004 -1.0275
  174SOPE  H18S19784   2.967   1.098   8.709  1.0226  0.5171  1.0511
  174SOPE  H18T19785   2.820   1.041   8.621 -0.1436 -0.8507  1.0880
  174SOPE   C3319786   3.180   0.484   9.981  0.1438 -0.4123  0.7757
  174SOPE   H3X19787   3.276   0.429   9.984 -0.2075 -1.0143  1.0815
  174SOPE   H3Y19788   3.195   0.592  10.003 -2.3219 -0.2151  1.8086
  174SOPE   C3419789   3.130   0.472   9.832 -0.4193 -0.0762  0.2823
  174SOPE   H4X19790   3.034   0.522   9.811 -0.5689 -0.5258 -0.1199
  174SOPE   H4Y19791   3.095   0.368   9.812  2.2764 -1.4091  1.7800
  174SOPE   C3519792   3.240   0.521   9.732  0.5348  0.8187  0.3560
  174SOPE   H5X19793   3.321   0.445   9.728  0.9569  1.1752  1.5199
  174SOPE   H5Y19794   3.280   0.613   9.781  0.0648  1.2622 -0.0818
  174SOPE   C3619795   3.184   0.534   9.588 -0.4560  0.4866  0.0997
  174SOPE   H6X19796   3.105   0.609   9.569  2.3069  2.8924 -2.9499
  174SOPE   H6Y19797   3.142   0.436   9.554 -2.3053  0.9411  0.9357
  174SOPE   C3719798   3.299   0.561   9.499  0.0560  0.3116 -0.6527
  174SOPE   H7X19799   3.370   0.476   9.508 -0.6479 -0.0847  2.5127
  174SOPE   H7Y19800   3.351   0.649   9.542 -0.7156  0.7290 -0.5648
  174SOPE   C3819801   3.267   0.575   9.353  0.3667 -0.3748 -0.3636
  174SOPE   H8X19802   3.194   0.494   9.329  1.2787 -1.6758  1.0845
  174SOPE   H8Y19803   3.352   0.574   9.282  0.4732 -0.4515 -0.2330
  174SOPE   C3919804   3.189   0.711   9.320 -0.4114  0.3030 -0.4958
  174SOPE   H9X19805   3.085   0.711   9.359  0.4404 -1.3659  2.0225
  174SOPE   H9Y19806   3.189   0.713   9.209  1.4754  1.3382 -0.5118
  174SOPE  C31019807   3.259   0.845   9.361  0.6659 -0.0835 -0.2644
  174SOPE  H10X19808   3.349   0.856   9.297  1.4656 -1.7481  0.4909
  174SOPE  H10Y19809   3.282   0.847   9.470 -1.7242  0.3861  0.2794
  174SOPE  C31119810   3.161   0.961   9.337  0.0144 -0.1573 -0.6008
  174SOPE  H11X19811   3.097   0.975   9.427  0.3318 -0.9960 -0.2295
  174SOPE  H11Y19812   3.082   0.937   9.262 -2.2494  0.1202  1.5467
  174SOPE  C31219813   3.222   1.104   9.315  0.2622  0.1094 -0.2223
  174SOPE  H12X19814   3.276   1.115   9.219  0.8893 -0.6456  0.0350
  174SOPE  H12Y19815   3.299   1.108   9.395 -0.4209  1.9812  0.3980
  174SOPE  C31319816   3.129   1.221   9.340 -0.2438 -0.2726  0.3612
  174SOPE  H13X19817   3.190   1.314   9.353 -0.1502 -0.6462  3.4182
  174SOPE  H13Y19818   3.077   1.199   9.435 -0.0993  2.2047  1.1042
  174SOPE  C31419819   3.026   1.251   9.222  0.1484 -0.5497 -0.3028
  174SOPE  H14X19820   2.941   1.321   9.238 -1.1364 -2.2854  0.7305
  174SOPE  H14Y19821   2.969   1.160   9.194 -0.3329 -0.5022  0.4979
  174SOPE  C31519822   3.094   1.292   9.088  0.2705  0.1470 -0.4452
  174SOPE  H15X19823   3.138   1.194   9.058  3.2623  1.4120 -0.5297
  174SOPE  H15Y19824   3.170   1.373   9.094 -1.4455  1.8391 -0.5473
  174SOPE  C31619825   2.988   1.323   8.980  0.2730 -0.0878 -0.1256
  174SOPE  H16X19826   2.928   1.411   9.014  0.4776  0.4156 -1.0342
  174SOPE  H16Y19827   2.926   1.231   8.978 -0.0392  0.1131  0.1142
  174SOPE  C31719828   3.057   1.347   8.856  0.0386 -0.6051 -0.1145
  174SOPE  H17X19829   3.094   1.248   8.820 -0.6804 -0.9752  0.1451
  174SOPE  H17Y19830   3.135   1.424   8.871 -0.8499  0.4845 -0.8462
  174SOPE  C31819831   2.976   1.403   8.737  0.4154 -0.4127  0.3879
  174SOPE  H18X19832   2.910   1.335   8.679 -1.6762  3.3690 -2.0049
  174SOPE  H18Y19833   3.054   1.435   8.665  2.7442 -3.1031  1.4942
  174SOPE  H18Z19834   2.906   1.484   8.767 -0.5243 -1.2369  0.4834
  175SOPE     N19835   5.283   2.582  10.719  0.1266  0.6712 -0.2515
  175SOPE   HN119836   5.326   2.596  10.813 -1.6875 -2.0123  1.0896
  175SOPE   HN219837   5.359   2.597  10.649  0.5152  0.7672  0.1858
  175SOPE   HN319838   5.208   2.653  10.711  0.5841  1.0762 -1.0494
  175SOPE   C1219839   5.221   2.442  10.704 -0.1771 -0.6130  0.4913
  175SOPE  H12A19840   5.123   2.458  10.754 -0.7729 -0.7683 -0.6116
  175SOPE  H12B19841   5.283   2.364  10.752  0.7701 -1.4603 -1.9907
  175SOPE   C1119842   5.188   2.400  10.557 -0.5327  0.0233 -1.0488
  175SOPE  H11A19843   5.144   2.298  10.551  2.0313 -1.1923 -0.3240
  175SOPE  H11B19844   5.288   2.396  10.508  0.2667  3.5324  0.0259
  175SOPE     P19845   4.941   2.472  10.498 -0.0933 -0.2929  0.1028
  175SOPE   O1319846   4.874   2.586  10.422 -0.0611 -0.5047 -0.0972
  175SOPE   O1419847   4.894   2.455  10.638  0.4527 -0.1739  0.2378
  175SOPE   O1219848   5.097   2.491  10.488 -0.4574  0.4085  0.3658
  175SOPE   O1119849   4.919   2.332  10.429 -0.6654 -0.3035  0.4163
  175SOPE    C119850   4.965   2.302  10.302  0.3915  0.5178  0.1994
  175SOPE    HA19851   5.040   2.220  10.310 -1.8693 -2.1524 -3.2872
  175SOPE    HB19852   5.022   2.383  10.251 -0.9779  0.6619 -1.1577
  175SOPE    C219853   4.846   2.243  10.216  0.1679  0.2576 -0.2556
  175SOPE    HS19854   4.808   2.151  10.265  0.4214 -0.4953 -1.4281
  175SOPE   O2119855   4.890   2.212  10.086  0.1364 -0.0820  0.6369
  175SOPE   C2119856   4.932   2.092  10.054 -0.4171 -0.3919 -0.8553
  175SOPE   O2219857   4.968   2.012  10.137  0.8907 -0.2941 -0.2965
  175SOPE   C2219858   4.961   2.083   9.909 -0.2210  0.0397  0.3279
  175SOPE   H2R19859   5.030   2.165   9.883  1.2087 -0.9969  0.7595
  175SOPE   H2S19860   4.866   2.111   9.858 -0.1428 -0.5183 -0.1474
  175SOPE    C319861   4.723   2.337  10.211  0.4743  0.5188  0.8860
  175SOPE    HX19862   4.751   2.438  10.175  2.2682 -0.1680  0.2239
  175SOPE    HY19863   4.683   2.352  10.313 -0.7745  0.5428  0.4191
  175SOPE   O3119864   4.627   2.281  10.122  0.1792  0.2905 -0.1703
  175SOPE   C3119865   4.540   2.202  10.177  0.3875  0.7646 -0.4050
  175SOPE   O3219866   4.529   2.193  10.298  0.0899 -0.0131  0.7870
  175SOPE   C3219867   4.452   2.121  10.083 -0.5427  0.4146 -0.3538
  175SOPE   H2X19868   4.357   2.175  10.067 -2.2628 -1.7967  1.7108
  175SOPE   H2Y19869   4.429   2.024  10.130  0.1752 -0.5366 -1.8808
  175SOPE   C2319870   4.998   1.942   9.869  0.1711 -1.0196 -0.1575
  175SOPE   H3R19871   4.929   1.870   9.918  2.4473 -2.3683  1.2563
  175SOPE   H3S19872   5.100   1.916   9.906  1.0301  1.0911 -0.8839
  175SOPE   C2419873   4.997   1.929   9.715 -0.1713  0.0249 -0.2497
  175SOPE   H4R19874   4.894   1.948   9.678 -0.7388 -0.6216  0.9446
  175SOPE   H4S19875   5.069   1.998   9.665 -2.9932  3.1817 -0.2917
  175SOPE   C2519876   5.044   1.791   9.664  0.2635  0.0905  0.3867
  175SOPE   H5R19877   5.135   1.760   9.720  0.3373 -0.8922 -0.2520
  175SOPE   H5S19878   4.961   1.721   9.687 -0.2103  1.0972  1.9047
  175SOPE   C2619879   5.071   1.791   9.511 -0.1852 -0.2176 -0.2224
  175SOPE   H6R19880   5.142   1.877   9.504 -0.0947 -0.3390 -0.8109
  175SOPE   H6S19881   5.132   1.701   9.489  0.7429  0.2681  0.2618
  175SOPE   C2719882   4.950   1.808   9.426 -0.0298 -1.2478  0.2926
  175SOPE   H7R19883   4.887   1.719   9.448 -1.7211  0.4568  2.8326
  175SOPE   H7S19884   4.888   1.890   9.467  0.6423 -0.8952  0.6289
  175SOPE   C2819885   4.977   1.822   9.273  0.0718 -0.0505  0.2560
  175SOPE   H8R19886   4.878   1.832   9.222  0.2803 -0.5090 -0.2455
  175SOPE   H8S19887   5.023   1.922   9.258  1.0305 -0.7375 -1.6892
  175SOPE   C2919888   5.057   1.707   9.220 -0.1185 -0.3950  0.5042
  175SOPE   H9119889   5.010   1.607   9.225  1.5462 -1.1418  2.4080
  175SOPE  C21019890   5.187   1.711   9.177  0.1876  0.2602  0.5166
  175SOPE  H10119891   5.231   1.617   9.143 -0.3950  0.2975 -0.3842
  175SOPE  C21119892   5.276   1.830   9.183 -0.5893 -0.0633  1.0542
  175SOPE  H11R19893   5.375   1.791   9.217 -0.4557 -2.1392 -1.4662
  175SOPE  H11S19894   5.246   1.905   9.260  2.4134 -0.1217  2.4691
  175SOPE  C21219895   5.314   1.886   9.048 -0.5992 -0.6587 -0.6811
  175SOPE  H12R19896   5.351   1.808   8.978  0.8160 -0.5264 -0.1080
  175SOPE  H12S19897   5.411   1.937   9.063 -1.2341  0.4923 -0.3313
  175SOPE  C21319898   5.212   1.975   8.973  0.4479 -0.2668 -0.4537
  175SOPE  H13R19899   5.194   2.064   9.038 -0.0070  0.6183 -1.7581
  175SOPE  H13S19900   5.113   1.927   8.965  0.7862 -1.2188  0.7388
  175SOPE  C21419901   5.258   2.005   8.831 -0.8353 -0.4830 -0.1734
  175SOPE  H14R19902   5.330   1.928   8.795  0.3537  0.5672 -0.0893
  175SOPE  H14S19903   5.314   2.101   8.835 -0.1045 -0.3774 -5.5641
  175SOPE  C21519904   5.148   2.017   8.728 -0.1223  0.2042  0.4893
  175SOPE  H15R19905   5.082   2.099   8.764 -0.8049 -0.7989  1.6111
  175SOPE  H15S19906   5.087   1.923   8.722  0.7848 -0.4772  1.5256
  175SOPE  C21619907   5.189   2.055   8.585  0.1444  0.2458 -0.0272
  175SOPE  H16R19908   5.260   1.985   8.537 -0.5385 -0.5043  0.0472
  175SOPE  H16S19909   5.244   2.152   8.590  0.6800  0.0087 -1.0152
  175SOPE  C21719910   5.056   2.064   8.500 -0.3239  0.4683 -0.8636
  175SOPE  H17R19911   4.989   2.124   8.565 -0.5098 -2.0516  1.4605
  175SOPE  H17S19912   5.012   1.963   8.488 -0.4891  0.4196  0.1220
  175SOPE  C21819913   5.063   2.115   8.354  0.3955  0.4147  0.4123
  175SOPE  H18R19914   5.132   2.051   8.294 -0.0446  0.3716 -0.0534
  175SOPE  H18S19915   5.123   2.209   8.350  0.4212  0.3673 -0.8033
  175SOPE  H18T19916   4.969   2.108   8.296  0.0345  0.9310  0.9259
  175SOPE   C3319917   4.522   2.069   9.954  0.7292  0.2279 -0.4522
  175SOPE   H3X19918   4.566   1.970   9.978  1.6699  1.1126  1.6779
  175SOPE   H3Y19919   4.609   2.135   9.934  0.9499 -0.4444 -1.8033
  175SOPE   C3419920   4.426   2.066   9.839 -0.7923 -0.7377  0.1593
  175SOPE   H4X19921   4.325   2.112   9.850 -0.4462 -0.0964  0.7582
  175SOPE   H4Y19922   4.401   1.960   9.813 -0.0597 -0.9031  0.0984
  175SOPE   C3519923   4.486   2.122   9.709  0.1597 -0.0648 -0.3430
  175SOPE   H5X19924   4.577   2.063   9.687 -0.6088 -1.0023 -1.0772
  175SOPE   H5Y19925   4.507   2.231   9.721  1.6325 -0.4884  1.4503
  175SOPE   C3619926   4.384   2.084   9.596  0.1569 -0.0624  0.1007
  175SOPE   H6X19927   4.285   2.128   9.625  1.8927  1.8910  3.8497
  175SOPE   H6Y19928   4.359   1.976   9.601 -2.1674  0.3945 -0.5470
  175SOPE   C3719929   4.425   2.119   9.449 -0.0889  0.0730 -0.6794
  175SOPE   H7X19930   4.523   2.072   9.430  1.1410  2.0477  0.4435
  175SOPE   H7Y19931   4.432   2.230   9.442 -1.1541  0.1295 -1.0796
  175SOPE   C3819932   4.324   2.086   9.339  0.8513  0.0844 -0.2954
  175SOPE   H8X19933   4.237   2.153   9.358  0.7807  0.1199 -0.7333
  175SOPE   H8Y19934   4.299   1.978   9.341  0.2434  0.1670 -1.7530
  175SOPE   C3919935   4.377   2.102   9.189 -0.1842 -0.5350 -0.0274
  175SOPE   H9X19936   4.470   2.041   9.176  0.5330  0.7440 -1.2842
  175SOPE   H9Y19937   4.408   2.206   9.166  0.8878 -0.9461 -0.5245
  175SOPE  C31019938   4.275   2.064   9.085  0.8296  0.1993  0.4987
  175SOPE  H10X19939   4.194   2.141   9.091  0.4476  0.0309 -1.6640
  175SOPE  H10Y19940   4.217   1.973   9.111 -1.0982  1.4767  0.9403
  175SOPE  C31119941   4.324   2.061   8.937 -0.1486  0.6907 -0.5440
  175SOPE  H11X19942   4.419   2.003   8.947  1.5654  3.4272  0.0172
  175SOPE  H11Y19943   4.349   2.162   8.899  1.0919 -0.0154 -1.7078
  175SOPE  C31219944   4.221   1.994   8.845 -0.0575  0.4855 -0.1209
  175SOPE  H12X19945   4.140   2.069   8.829 -2.6532 -2.1727 -0.2030
  175SOPE  H12Y19946   4.170   1.903   8.882  2.6076 -0.2340  2.1047
  175SOPE  C31319947   4.274   1.964   8.703  0.5147  0.6748  0.1058
  175SOPE  H13X19948   4.331   1.869   8.701  2.7329  1.8852  1.5570
  175SOPE  H13Y19949   4.334   2.052   8.669  0.0976  1.1553  0.6025
  175SOPE  C31419950   4.157   1.951   8.601 -0.1046 -0.0389  0.0065
  175SOPE  H14X19951   4.093   1.866   8.633  0.6147  0.0834  1.8861
  175SOPE  H14Y19952   4.201   1.920   8.503 -1.1549 -5.5465  0.9245
  175SOPE  C31519953   4.076   2.078   8.580  0.2340 -0.2461  0.2339
  175SOPE  H15X19954   4.142   2.167   8.583 -0.9982  0.6872  0.4436
  175SOPE  H15Y19955   3.994   2.089   8.654 -0.5783  0.5539 -0.7614
  175SOPE  C31619956   3.985   2.078   8.451 -0.6074 -0.1577  0.1866
  175SOPE  H16X19957   4.051   2.055   8.365 -1.7636  2.8285 -1.6514
  175SOPE  H16Y19958   3.947   2.182   8.440  0.0548  0.5514  3.4481
  175SOPE  C31719959   3.864   1.979   8.438 -0.2207  0.1569 -0.3493
  175SOPE  H17X19960   3.793   2.001   8.520 -1.0509 -0.5780 -0.8614
  175SOPE  H17Y19961   3.905   1.876   8.449 -0.5004  0.1314  0.5474
  175SOPE  C31819962   3.787   1.990   8.315  0.0462 -0.7330  0.5547
  175SOPE  H18X19963   3.734   2.087   8.298  0.6431 -0.5142 -0.1057
  175SOPE  H18Y19964   3.704   1.920   8.292 -1.6445  1.2307  0.3591
  175SOPE  H18Z19965   3.851   1.976   8.226 -2.0367 -0.1871 -1.1258
  176SOPE     N19966   4.076   0.531  10.993  0.1790  0.0508 -0.0352
  176SOPE   HN119967   4.118   0.487  11.077 -2.8071 -2.0882  0.4833
  176SOPE   HN219968   3.986   0.480  10.986  1.4058 -2.7891  2.4685
  176SOPE   HN319969   4.131   0.508  10.908  0.8916  0.4068  0.3199
  176SOPE   C1219970   4.056   0.680  11.015 -0.4323 -0.2888  0.1540
  176SOPE  H12A19971   4.010   0.699  11.114 -0.1979  1.0171  0.0258
  176SOPE  H12B19972   3.990   0.712  10.932  0.0863  0.5704  0.0558
  176SOPE   C1119973   4.183   0.762  11.011  0.3406  0.4146 -0.4837
  176SOPE  H11A19974   4.247   0.733  11.097  1.4080 -1.6120 -1.8981
  176SOPE  H11B19975   4.154   0.869  11.018  0.4953  0.4453 -0.2707
  176SOPE     P19976   4.358   0.837  10.826  0.1404 -0.0607  0.3098
  176SOPE   O1319977   4.484   0.763  10.794  0.7060  0.2591  0.5308
  176SOPE   O1419978   4.378   0.960  10.909 -0.0073  0.2921 -0.1976
  176SOPE   O1219979   4.248   0.740  10.882  0.2634 -0.3517  0.3463
  176SOPE   O1119980   4.292   0.888  10.692  0.0030 -0.6680  0.1509
  176SOPE    C119981   4.267   0.788  10.595  0.1212 -0.8635 -0.8011
  176SOPE    HA19982   4.185   0.720  10.628 -0.8014  0.2558 -0.7068
  176SOPE    HB19983   4.362   0.738  10.566  1.1129  1.6266 -2.1065
  176SOPE    C219984   4.206   0.854  10.468 -0.1189 -0.0805  0.5520
  176SOPE    HS19985   4.189   0.786  10.382  0.2391  0.6369 -0.0981
  176SOPE   O2119986   4.284   0.974  10.429 -0.1672  0.2452  0.3506
  176SOPE   C2119987   4.390   0.952  10.362  0.8756 -0.9262  0.1347
  176SOPE   O2219988   4.447   0.848  10.341 -0.1238 -0.0984  0.1231
  176SOPE   C2219989   4.451   1.093  10.319 -0.6847  0.1378 -0.4478
  176SOPE   H2R19990   4.475   1.140  10.417 -2.2701 -1.1992  0.6469
  176SOPE   H2S19991   4.367   1.151  10.276 -0.9586  0.3269  0.3170
  176SOPE    C319992   4.062   0.919  10.499  0.1284 -0.1786 -0.2960
  176SOPE    HX19993   4.062   1.016  10.552  1.2447 -0.0191 -0.5624
  176SOPE    HY19994   4.018   0.837  10.559  2.9104 -1.8126 -0.2794
  176SOPE   O3119995   4.000   0.933  10.367  0.4575  0.3051  0.0368
  176SOPE   C3119996   3.895   1.010  10.356  0.1609 -0.3921  0.1744
  176SOPE   O3219997   3.861   1.085  10.444 -0.1708  0.5591  0.9717
  176SOPE   C3219998   3.843   1.010  10.210  0.3548  1.0384  0.4927
  176SOPE   H2X19999   3.754   1.077  10.216 -0.0931  0.4715  0.3651
  176SOPE   H2Y20000   3.796   0.910  10.203 -0.0016  1.3208 -3.1363
  176SOPE   C2320001   4.582   1.095  10.238 -0.3062  0.3603  0.0435
  176SOPE   H3R20002   4.663   1.045  10.296  1.2119  0.9371 -1.4843
  176SOPE   H3S20003   4.615   1.201  10.236 -1.3354  0.7185  0.8890
  176SOPE   C2420004   4.561   1.042  10.096  0.7592 -0.3310 -0.6679
  176SOPE   H4R20005   4.661   1.031  10.050 -0.1748 -0.3756 -2.8410
  176SOPE   H4S20006   4.517   0.941  10.107  1.1639 -0.4087  0.3670
  176SOPE   C2520007   4.477   1.134  10.002  0.0928  0.1457 -0.0466
  176SOPE   H5R20008   4.375   1.139  10.046 -0.8286 -1.1334 -1.9231
  176SOPE   H5S20009   4.525   1.234  10.007  1.6444 -0.5066 -0.8347
  176SOPE   C2620010   4.451   1.083   9.857 -0.4465 -0.5135 -0.1353
  176SOPE   H6R20011   4.534   1.012   9.841 -0.2155 -0.1210 -0.7144
  176SOPE   H6S20012   4.354   1.029   9.851  0.2045 -1.6928 -0.2031
  176SOPE   C2720013   4.463   1.191   9.750 -0.6092  0.0291  0.0836
  176SOPE   H7R20014   4.380   1.264   9.759 -0.5066  0.7432 -3.2198
  176SOPE   H7S20015   4.556   1.249   9.766 -1.1236  1.2627 -1.1968
  176SOPE   C2820016   4.465   1.138   9.605 -0.4008 -0.2479  0.2848
  176SOPE   H8R20017   4.561   1.085   9.587  0.0404  0.7865 -0.5473
  176SOPE   H8S20018   4.389   1.058   9.593  2.7210 -3.8084  2.2153
  176SOPE   C2920019   4.452   1.242   9.499 -0.3180  0.5248  0.4458
  176SOPE   H9120020   4.527   1.322   9.507 -0.2898  0.4420  1.0643
  176SOPE  C21020021   4.367   1.252   9.398 -0.4295 -0.5253 -0.1854
  176SOPE  H10120022   4.379   1.337   9.329  0.7066 -1.2148 -0.8628
  176SOPE  C21120023   4.254   1.161   9.360  0.8551 -0.1224 -0.5901
  176SOPE  H11R20024   4.165   1.225   9.380  0.1240 -0.5715 -2.2337
  176SOPE  H11S20025   4.252   1.071   9.424  1.6158  0.4581  0.2724
  176SOPE  C21220026   4.262   1.127   9.209  0.2566  0.3916  0.6313
  176SOPE  H12R20027   4.358   1.073   9.194  0.9580  1.6905  0.2746
  176SOPE  H12S20028   4.259   1.225   9.157  0.2287  0.0825  0.0484
  176SOPE  C21320029   4.142   1.043   9.160  0.4370  0.5124  0.6689
  176SOPE  H13R20030   4.040   1.080   9.187 -0.0366 -1.8857  2.5094
  176SOPE  H13S20031   4.141   0.951   9.223 -2.4190 -0.3652 -0.4838
  176SOPE  C21420032   4.143   1.002   9.008 -0.1044  0.0014  0.6860
  176SOPE  H14R20033   4.051   0.944   8.985 -0.5855  1.2231 -0.6652
  176SOPE  H14S20034   4.232   0.939   8.990 -1.9545 -2.3530 -1.0020
  176SOPE  C21520035   4.146   1.125   8.911 -0.2969  0.2646 -0.4225
  176SOPE  H15R20036   4.241   1.179   8.933 -0.0264  0.7551 -2.6154
  176SOPE  H15S20037   4.055   1.188   8.915  0.5909  1.6771 -1.1379
  176SOPE  C21620038   4.164   1.066   8.773 -1.1250 -0.0618 -0.6686
  176SOPE  H16R20039   4.087   0.996   8.734 -0.7902 -0.3451 -0.8356
  176SOPE  H16S20040   4.248   0.995   8.791 -1.3136  0.4141  2.6172
  176SOPE  C21720041   4.193   1.174   8.663 -1.2322 -0.0858 -0.3071
  176SOPE  H17R20042   4.187   1.131   8.561 -2.1630 -0.2907 -0.1738
  176SOPE  H17S20043   4.297   1.208   8.683 -1.7618  0.6163  1.4239
  176SOPE  C21820044   4.104   1.307   8.657  0.5120 -0.0350 -0.1795
  176SOPE  H18R20045   4.152   1.378   8.587  0.4200  0.1566 -0.0491
  176SOPE  H18S20046   4.113   1.343   8.762 -0.7485 -2.3188  0.7765
  176SOPE  H18T20047   4.000   1.287   8.622 -0.2854  1.1399  1.3682
  176SOPE   C3320048   3.935   1.059  10.099 -0.7131  0.2199 -0.0944
  176SOPE   H3X20049   4.039   1.023  10.111 -1.6602 -2.2806  1.4578
  176SOPE   H3Y20050   3.945   1.170  10.103  0.2121  0.1988 -1.2219
  176SOPE   C3420051   3.886   1.019   9.954 -0.7501  0.4323 -0.9716
  176SOPE   H4X20052   3.913   0.912   9.940 -0.6659  0.4160 -0.6930
  176SOPE   H4Y20053   3.941   1.078   9.876 -1.0152  0.8348 -0.8560
  176SOPE   C3520054   3.733   1.034   9.939  0.0622  0.1051  0.4542
  176SOPE   H5X20055   3.700   1.124   9.995 -2.0683 -2.1797  3.1622
  176SOPE   H5Y20056   3.686   0.958  10.005  1.5174 -0.2195  1.1331
  176SOPE   C3620057   3.691   1.029   9.794  0.4394 -0.0482  0.6592
  176SOPE   H6X20058   3.744   1.114   9.745 -0.0305 -0.2452 -0.2129
  176SOPE   H6Y20059   3.581   1.046   9.788  0.1980 -1.9470 -2.2251
  176SOPE   C3720060   3.729   0.909   9.710  0.2178 -0.1257  0.1656
  176SOPE   H7X20061   3.712   0.811   9.759 -0.8827  0.0860  0.2273
  176SOPE   H7Y20062   3.839   0.904   9.695  0.4233 -2.7601  1.9179
  176SOPE   C3820063   3.657   0.910   9.571 -0.2731  0.4472  0.0475
  176SOPE   H8X20064   3.556   0.956   9.577 -0.3835  0.5358 -1.8692
  176SOPE   H8Y20065   3.630   0.803   9.561  1.0796  0.1161 -0.2705
  176SOPE   C3920066   3.745   0.965   9.463  0.1867  0.2133  0.8338
  176SOPE   H9X20067   3.842   0.913   9.465 -0.3549 -1.3251 -3.0575
  176SOPE   H9Y20068   3.766   1.072   9.487 -0.8171  0.5422  0.3351
  176SOPE  C31020069   3.674   0.949   9.328 -0.0626 -0.4704  0.0653
  176SOPE  H10X20070   3.565   0.972   9.333  0.3908  2.2068 -0.9799
  176SOPE  H10Y20071   3.677   0.839   9.312 -1.3993 -1.3807  4.5432
  176SOPE  C31120072   3.722   1.029   9.200 -0.1684  0.4081  1.0171
  176SOPE  H11X20073   3.827   0.996   9.185 -0.1509  0.6636  0.5491
  176SOPE  H11Y20074   3.710   1.137   9.219  3.6402  1.1118  0.2045
  176SOPE  C31220075   3.647   0.976   9.071  0.0334 -0.3652  0.0094
  176SOPE  H12X20076   3.646   0.865   9.073 -0.8665 -0.5233 -3.2465
  176SOPE  H12Y20077   3.705   0.991   8.977 -0.8919 -0.4154 -0.5782
  176SOPE  C31320078   3.505   1.032   9.046  0.3713  0.6262  0.8611
  176SOPE  H13X20079   3.509   1.140   9.069 -0.4985  1.5021 -2.5571
  176SOPE  H13Y20080   3.450   1.000   9.138  1.7793  2.6131  2.4857
  176SOPE  C31420081   3.454   1.014   8.905 -0.0691  0.3201  0.5821
  176SOPE  H14X20082   3.520   1.067   8.833  2.5465 -1.0994  1.7900
  176SOPE  H14Y20083   3.356   1.066   8.908 -0.0038  0.3848  2.3961
  176SOPE  C31520084   3.449   0.867   8.860  0.6903  0.5027 -0.4310
  176SOPE  H15X20085   3.551   0.824   8.851  0.8100  0.7245 -0.1449
  176SOPE  H15Y20086   3.401   0.878   8.760 -3.1392  2.5030  1.3816
  176SOPE  C31620087   3.354   0.785   8.947 -0.1943 -0.3943 -0.2654
  176SOPE  H16X20088   3.260   0.836   8.976  0.5610  0.8710  0.0194
  176SOPE  H16Y20089   3.401   0.764   9.046 -0.0012  1.3641  0.0432
  176SOPE  C31720090   3.315   0.656   8.882  0.0379 -0.3448  0.4178
  176SOPE  H17X20091   3.286   0.679   8.777 -2.1218  0.0113  1.0541
  176SOPE  H17Y20092   3.224   0.619   8.934  0.7143 -1.1880  1.0227
  176SOPE  C31820093   3.415   0.546   8.889 -0.2898 -0.6401  0.6047
  176SOPE  H18X20094   3.461   0.539   8.990 -1.6806 -0.2164  1.2989
  176SOPE  H18Y20095   3.509   0.565   8.833 -0.5526  1.8538  0.8841
  176SOPE  H18Z20096   3.374   0.447   8.860 -0.1107 -0.4247 -0.4174
  177SOPE     N20097   3.805   0.127  11.092  0.4766  0.8195 -0.0069
  177SOPE   HN120098   3.812   0.203  11.022 -1.5692  1.2789  0.2264
  177SOPE   HN220099   3.707   0.090  11.092  1.0612 -0.8196 -0.2920
  177SOPE   HN320100   3.828   0.157  11.189  0.9647  0.5722 -0.0480
  177SOPE   C1220101   3.899   0.016  11.042  0.0395 -0.2361  0.0940
  177SOPE  H12A20102   3.918  -0.037  11.138  1.8647 -1.5410 -0.9363
  177SOPE  H12B20103   3.993   0.069  11.016 -0.9452  0.8384 -1.4567
  177SOPE   C1120104   3.831  -0.065  10.929  0.1708 -0.1423 -0.2458
  177SOPE  H11A20105   3.888  -0.138  10.868 -0.2591  0.0386 -0.8658
  177SOPE  H11B20106   3.788   0.013  10.863 -1.2727  1.5433  2.4696
  177SOPE     P20107   3.577  -0.112  10.994 -0.0486  0.1112 -0.0627
  177SOPE   O1320108   3.566   0.031  11.026  0.3088  0.0354  0.3375
  177SOPE   O1420109   3.516  -0.208  11.090  0.9271 -0.7255  0.3587
  177SOPE   O1220110   3.731  -0.147  10.986  0.4332 -0.0422  0.3821
  177SOPE   O1120111   3.517  -0.146  10.851 -0.0412 -0.5231  0.7284
  177SOPE    C120112   3.468  -0.251  10.786 -0.1857  0.2502 -0.2378
  177SOPE    HA20113   3.424  -0.216  10.690  1.0337 -0.6753 -1.1742
  177SOPE    HB20114   3.384  -0.296  10.844  0.6266 -1.2617 -0.1942
  177SOPE    C220115   3.580  -0.356  10.769 -0.0709 -0.1295  0.2881
  177SOPE    HS20116   3.618  -0.393  10.866  0.7857 -0.1953 -0.0650
  177SOPE   O2120117   3.697  -0.311  10.696 -0.5680 -0.5668  0.1464
  177SOPE   C2120118   3.805  -0.384  10.706  0.6505 -0.5553  0.1346
  177SOPE   O2220119   3.824  -0.480  10.775  0.1338 -0.1264 -0.5489
  177SOPE   C2220120   3.898  -0.322  10.603  0.2464  0.4345  0.4383
  177SOPE   H2R20121   3.933  -0.223  10.639 -0.2805  0.9676 -0.4792
  177SOPE   H2S20122   3.855  -0.301  10.503  0.2911  0.3283  0.3971
  177SOPE    C320123   3.523  -0.480  10.692 -0.7334  0.2555  0.4718
  177SOPE    HX20124   3.465  -0.539  10.765  2.7730 -2.5335  1.3058
  177SOPE    HY20125   3.605  -0.554  10.678  0.4979  1.5616  0.4778
  177SOPE   O3120126   3.448  -0.455  10.571 -0.1674 -0.1551 -1.0505
  177SOPE   C3120127   3.506  -0.486  10.461 -0.0386  0.0412  0.4846
  177SOPE   O3220128   3.619  -0.527  10.449 -0.5231  0.1813 -0.0658
  177SOPE   C3220129   3.408  -0.473  10.341 -0.8934 -0.0984 -0.4113
  177SOPE   H2X20130   3.365  -0.372  10.354 -0.6182  0.0899 -0.9480
  177SOPE   H2Y20131   3.313  -0.530  10.354 -0.3013 -1.0387 -0.1552
  177SOPE   C2320132   4.023  -0.417  10.571 -0.3880  0.1435  0.4728
  177SOPE   H3R20133   4.025  -0.504  10.640  1.2018 -1.4033 -1.3877
  177SOPE   H3S20134   4.119  -0.363  10.589 -0.0469 -0.4196  0.3604
  177SOPE   C2420135   4.031  -0.484  10.431  0.4759  0.4351 -0.3488
  177SOPE   H4R20136   4.104  -0.568  10.427 -0.5504 -0.4953 -0.1124
  177SOPE   H4S20137   3.933  -0.527  10.399  0.2420  1.3951 -0.9549
  177SOPE   C2520138   4.069  -0.382  10.323  0.7983  0.0937  0.5239
  177SOPE   H5R20139   4.003  -0.292  10.320 -1.9548 -1.7785  1.5253
  177SOPE   H5S20140   4.175  -0.348  10.332  0.2065  2.4869 -0.6143
  177SOPE   C2620141   4.056  -0.437  10.181  0.3403  0.7268  0.2127
  177SOPE   H6R20142   4.087  -0.543  10.167  0.0879  0.3025  2.4855
  177SOPE   H6S20143   3.947  -0.443  10.161  0.4569  1.5772 -0.7516
  177SOPE   C2720144   4.118  -0.340  10.081  0.0105 -0.0872 -0.3275
  177SOPE   H7R20145   4.098  -0.237  10.119  2.2348  0.2658  0.0149
  177SOPE   H7S20146   4.228  -0.342  10.092 -0.1619 -1.0687  1.5356
  177SOPE   C2820147   4.076  -0.359   9.939  0.0161 -0.1672  0.4399
  177SOPE   H8R20148   3.966  -0.363   9.958  0.5012 -0.9244  3.6937
  177SOPE   H8S20149   4.099  -0.263   9.890 -0.5069 -0.7735 -1.0569
  177SOPE   C2920150   4.131  -0.487   9.872  0.1754  0.2262 -0.4533
  177SOPE   H9120151   4.152  -0.572   9.939  0.3398 -1.5357 -2.6151
  177SOPE  C21020152   4.157  -0.505   9.745  0.3676 -0.7206 -0.0390
  177SOPE  H10120153   4.191  -0.606   9.719 -0.0807 -0.4157 -2.0262
  177SOPE  C21120154   4.148  -0.407   9.631  0.7017 -0.2478  0.8598
  177SOPE  H11R20155   4.238  -0.343   9.615  0.4947  0.1848  1.3865
  177SOPE  H11S20156   4.071  -0.329   9.651  1.0508  0.0991  0.8653
  177SOPE  C21220157   4.123  -0.480   9.502 -0.3949 -0.0947  0.2764
  177SOPE  H12R20158   4.040  -0.552   9.515 -0.1831 -0.5311 -0.7191
  177SOPE  H12S20159   4.216  -0.535   9.476 -0.4592  0.7204 -1.8025
  177SOPE  C21320160   4.098  -0.372   9.387 -0.1045 -0.7537  0.2783
  177SOPE  H13R20161   4.184  -0.303   9.376  0.6063 -1.4470  1.3292
  177SOPE  H13S20162   4.006  -0.313   9.410 -0.2549 -1.1779  0.7780
  177SOPE  C21420163   4.079  -0.438   9.249 -0.3761 -0.1795  0.6263
  177SOPE  H14R20164   3.989  -0.502   9.244  0.9317 -2.1352  1.0319
  177SOPE  H14S20165   4.170  -0.498   9.228 -1.0275 -1.1808  0.6156
  177SOPE  C21520166   4.083  -0.339   9.133 -0.2935  0.2697 -0.3573
  177SOPE  H15R20167   4.172  -0.277   9.160 -0.9702  0.9627  0.3165
  177SOPE  H15S20168   3.991  -0.278   9.137 -0.3212  0.3338 -1.5663
  177SOPE  C21620169   4.115  -0.410   9.004 -0.5865  0.0192  0.7281
  177SOPE  H16R20170   4.052  -0.490   8.959 -0.3543  0.2355 -0.0010
  177SOPE  H16S20171   4.207  -0.467   9.029 -0.2542 -0.6160 -1.6652
  177SOPE  C21720172   4.150  -0.312   8.890 -0.4722  0.1632 -0.5673
  177SOPE  H17R20173   4.182  -0.380   8.808  1.4627  0.3254 -0.0014
  177SOPE  H17S20174   4.249  -0.266   8.913 -0.1304 -1.3938  1.4272
  177SOPE  C21820175   4.033  -0.219   8.865 -0.0124  0.7519  0.4175
  177SOPE  H18R20176   4.043  -0.166   8.768 -0.5299 -1.4537 -0.9192
  177SOPE  H18S20177   4.033  -0.148   8.950  1.5107  0.4155  0.7144
  177SOPE  H18T20178   3.933  -0.269   8.860 -0.1753  0.7936  2.5809
  177SOPE   C3320179   3.476  -0.491  10.195 -0.5555 -0.5253 -0.0441
  177SOPE   H3X20180   3.501  -0.596  10.171  1.6739 -0.9486  3.2976
  177SOPE   H3Y20181   3.563  -0.423  10.179 -0.1386 -0.7504  1.1090
  177SOPE   C3420182   3.375  -0.438  10.093 -0.5108  1.0052  0.2370
  177SOPE   H4X20183   3.354  -0.332  10.118 -2.6550  0.2701  1.8900
  177SOPE   H4Y20184   3.280  -0.496  10.099  0.8462 -1.3943 -0.1868
  177SOPE   C3520185   3.427  -0.437   9.951  0.5629 -0.8140 -0.1548
  177SOPE   H5X20186   3.459  -0.539   9.921  0.1058 -0.6018 -1.4555
  177SOPE   H5Y20187   3.522  -0.380   9.951  1.1693 -1.8010  0.3712
  177SOPE   C3620188   3.329  -0.385   9.847 -0.7728  0.2511  0.1511
  177SOPE   H6X20189   3.331  -0.275   9.862 -1.9088  0.6575 -2.2082
  177SOPE   H6Y20190   3.230  -0.431   9.868 -1.0797  1.2366  0.9648
  177SOPE   C3720191   3.367  -0.423   9.701  0.0751  0.5052 -0.6506
  177SOPE   H7X20192   3.339  -0.529   9.685 -0.0182 -0.1876  3.1391
  177SOPE   H7Y20193   3.476  -0.413   9.680  0.2808  1.1820  0.6283
  177SOPE   C3820194   3.294  -0.330   9.599  0.4768  1.1977 -0.6866
  177SOPE   H8X20195   3.314  -0.222   9.615  0.2832  0.7524  4.0219
  177SOPE   H8Y20196   3.186  -0.351   9.616  0.6860  1.5930  1.4822
  177SOPE   C3920197   3.322  -0.389   9.460 -0.0191 -1.1421  0.3765
  177SOPE   H9X20198   3.295  -0.496   9.455  0.0390 -1.1391 -0.0095
  177SOPE   H9Y20199   3.433  -0.393   9.458  0.0952  0.5565  1.2596
  177SOPE  C31020200   3.271  -0.295   9.346 -0.5327  0.1461 -0.1627
  177SOPE  H10X20201   3.308  -0.191   9.353 -0.3176  0.3646 -3.0854
  177SOPE  H10Y20202   3.160  -0.289   9.351 -0.8144 -2.3238 -1.6641
  177SOPE  C31120203   3.302  -0.350   9.206 -0.6122  0.0131  0.0515
  177SOPE  H11X20204   3.411  -0.367   9.198 -0.6203 -2.0476  2.8188
  177SOPE  H11Y20205   3.269  -0.269   9.138  0.9881  0.4868 -0.1892
  177SOPE  C31220206   3.226  -0.478   9.173  0.2578 -0.1644  0.0773
  177SOPE  H12X20207   3.124  -0.460   9.212 -0.9995  2.3428 -3.7816
  177SOPE  H12Y20208   3.275  -0.568   9.215 -0.5530 -0.6499 -0.0068
  177SOPE  C31320209   3.209  -0.494   9.020  0.2272  0.2480 -0.0017
  177SOPE  H13X20210   3.310  -0.498   8.975 -0.5535  0.5419 -1.8583
  177SOPE  H13Y20211   3.148  -0.409   8.984 -0.9836  0.1055  1.5974
  177SOPE  C31420212   3.133  -0.626   8.999 -0.0947  0.8254 -0.0002
  177SOPE  H14X20213   3.024  -0.615   9.017  0.1319  3.3735  0.1880
  177SOPE  H14Y20214   3.175  -0.698   9.073 -1.2922  0.8044  0.6686
  177SOPE  C31520215   3.162  -0.689   8.855  0.3067 -0.6386  0.3837
  177SOPE  H15X20216   3.154  -0.800   8.848  0.3367 -0.5775 -0.7799
  177SOPE  H15Y20217   3.266  -0.660   8.830  0.2411 -1.4868 -0.9811
  177SOPE  C31620218   3.080  -0.629   8.738 -0.4224 -0.5235 -0.3970
  177SOPE  H16X20219   3.083  -0.518   8.745 -1.9630 -0.4540 -0.4807
  177SOPE  H16Y20220   2.974  -0.659   8.749 -0.3232 -0.9581 -0.5900
  177SOPE  C31720221   3.140  -0.677   8.598  0.1243 -0.2229 -0.0955
  177SOPE  H17X20222   3.251  -0.672   8.593  0.0824 -0.6111 -2.0148
  177SOPE  H17Y20223   3.104  -0.619   8.511  1.2216  0.9213  0.1809
  177SOPE  C31820224   3.117  -0.830   8.563  0.6179  0.3430 -0.0994
  177SOPE  H18X20225   3.147  -0.912   8.632 -0.0050 -0.8045 -1.1541
  177SOPE  H18Y20226   3.167  -0.844   8.465  3.2914  1.5572  0.9772
  177SOPE  H18Z20227   3.007  -0.837   8.547  0.7814 -0.2470 -1.0235
  178SOPE     N20228   6.691   0.214  10.851  0.1095  0.4676 -0.5879
  178SOPE   HN120229   6.758   0.251  10.921  1.6560 -2.2082 -0.5076
  178SOPE   HN220230   6.593   0.224  10.884  0.4701  0.8996  0.3588
  178SOPE   HN320231   6.719   0.114  10.848  2.2117  1.0340 -1.9718
  178SOPE   C1220232   6.687   0.287  10.722  0.3578 -0.3166  0.1467
  178SOPE  H12A20233   6.655   0.391  10.745  1.5632 -0.1999  1.4192
  178SOPE  H12B20234   6.622   0.229  10.654  1.0949 -2.1636  0.9611
  178SOPE   C1120235   6.828   0.293  10.662 -0.2403  0.5552  0.3434
  178SOPE  H11A20236   6.891   0.366  10.717  1.3852 -0.0362 -0.6606
  178SOPE  H11B20237   6.797   0.338  10.565 -0.6217 -1.8978 -0.7456
  178SOPE     P20238   7.029   0.112  10.668 -0.0395 -0.4224 -0.2812
  178SOPE   O1320239   7.048  -0.035  10.658 -0.3048 -0.4199 -0.1504
  178SOPE   O1420240   7.043   0.169  10.803 -0.8574 -0.3790  0.2284
  178SOPE   O1220241   6.884   0.163  10.625  0.3349  0.0434 -0.2551
  178SOPE   O1120242   7.127   0.200  10.569 -0.6487  0.7399  0.0584
  178SOPE    C120243   7.082   0.271  10.456 -0.0401  0.2212 -0.1868
  178SOPE    HA20244   7.026   0.360  10.491 -0.6719 -0.4258  0.4801
  178SOPE    HB20245   7.008   0.210  10.399  1.2598 -2.2180  0.6018
  178SOPE    C220246   7.203   0.320  10.359 -0.3737  0.1331  0.4879
  178SOPE    HS20247   7.206   0.430  10.369 -1.8012  0.2045  0.2844
  178SOPE   O2120248   7.165   0.280  10.221  0.6154 -0.1235 -0.2853
  178SOPE   C2120249   7.068   0.358  10.177  0.0114  0.0605  0.0105
  178SOPE   O2220250   7.010   0.451  10.233  0.2096 -0.1738  0.1566
  178SOPE   C2220251   7.038   0.307  10.028 -0.0150 -0.8533  0.5243
  178SOPE   H2R20252   7.025   0.197  10.030 -0.1657 -0.8391  2.5508
  178SOPE   H2S20253   7.124   0.338   9.966 -1.2852  0.5559 -0.6157
  178SOPE    C320254   7.341   0.258  10.391 -0.3168 -0.0847  0.6936
  178SOPE    HX20255   7.327   0.149  10.405  0.7075 -0.3924 -0.4695
  178SOPE    HY20256   7.380   0.300  10.486 -0.6045  2.1497 -0.1180
  178SOPE   O3120257   7.439   0.285  10.285 -0.3262  0.5777 -0.1973
  178SOPE   C3120258   7.444   0.189  10.192  0.5580  0.1093  0.0968
  178SOPE   O3220259   7.382   0.079  10.198  0.1953 -0.3388  0.1106
  178SOPE   C3220260   7.536   0.226  10.076 -0.7329 -0.1352 -0.5385
  178SOPE   H2X20261   7.640   0.192  10.098 -1.4282 -1.7619  0.3835
  178SOPE   H2Y20262   7.541   0.335  10.058  0.8648 -0.3309 -1.4492
  178SOPE   C2320263   6.907   0.379   9.982  0.1785  0.3632  0.1730
  178SOPE   H3R20264   6.927   0.488   9.986  2.3468  0.0359 -0.1109
  178SOPE   H3S20265   6.835   0.367  10.065 -1.7556  0.3243 -1.4565
  178SOPE   C2420266   6.859   0.349   9.840 -0.0181  0.4280  0.0869
  178SOPE   H4R20267   6.860   0.239   9.826 -0.0671  0.4868 -0.4042
  178SOPE   H4S20268   6.759   0.392   9.815 -0.2578 -0.8340 -1.2651
  178SOPE   C2520269   6.945   0.401   9.722 -0.1454  0.2868  0.2322
  178SOPE   H5R20270   6.967   0.509   9.727  1.0515  0.0044  1.6192
  178SOPE   H5S20271   7.046   0.354   9.725 -0.8030 -1.1817  0.4163
  178SOPE   C2620272   6.880   0.369   9.584 -0.1532  0.2862  0.3196
  178SOPE   H6R20273   6.952   0.402   9.505  1.2225 -1.3600  0.8280
  178SOPE   H6S20274   6.878   0.259   9.572 -1.2306  0.1559  1.5105
  178SOPE   C2720275   6.731   0.411   9.557  0.4521 -0.8168 -0.9108
  178SOPE   H7R20276   6.711   0.388   9.450  0.7646  0.2626 -1.2201
  178SOPE   H7S20277   6.662   0.356   9.623  1.6595  1.7611  2.8519
  178SOPE   C2820278   6.690   0.557   9.580 -0.4294  0.2553  0.0137
  178SOPE   H8R20279   6.588   0.575   9.542 -0.2502 -1.1629 -1.2299
  178SOPE   H8S20280   6.701   0.577   9.688  0.6956 -1.3254  0.2406
  178SOPE   C2920281   6.784   0.652   9.514 -0.8550 -0.2298  0.2158
  178SOPE   H9120282   6.889   0.636   9.544 -0.6120 -1.5607 -1.1970
  178SOPE  C21020283   6.766   0.745   9.416 -0.4253  0.2276  0.5292
  178SOPE  H10120284   6.850   0.807   9.381 -2.1821  2.3379 -0.1810
  178SOPE  C21120285   6.637   0.784   9.359 -1.2247  0.3600 -0.4182
  178SOPE  H11R20286   6.560   0.709   9.384  0.0138 -0.4973  1.0188
  178SOPE  H11S20287   6.653   0.789   9.249  2.7337  0.9343  0.0193
  178SOPE  C21220288   6.592   0.920   9.414 -0.4185  0.0452  0.3703
  178SOPE  H12R20289   6.506   0.956   9.353  0.2211 -0.8464 -1.1321
  178SOPE  H12S20290   6.673   0.994   9.403  0.8877 -1.0284  2.2579
  178SOPE  C21320291   6.561   0.918   9.560  0.1293  1.2024 -0.2347
  178SOPE  H13R20292   6.639   0.862   9.616 -0.4628 -0.7816 -1.2911
  178SOPE  H13S20293   6.461   0.871   9.573 -0.3861  1.1455 -3.4773
  178SOPE  C21420294   6.544   1.054   9.625 -1.3024  0.0010  0.0122
  178SOPE  H14R20295   6.461   1.098   9.566 -0.3701 -1.0662 -2.2140
  178SOPE  H14S20296   6.640   1.104   9.601 -0.6585 -2.0503 -2.0951
  178SOPE  C21520297   6.513   1.049   9.779 -0.8370 -0.1475 -0.4646
  178SOPE  H15R20298   6.598   1.017   9.844  0.6780 -3.1948 -3.6272
  178SOPE  H15S20299   6.449   0.961   9.801  0.0819 -0.8579 -0.5940
  178SOPE  C21620300   6.454   1.186   9.828  1.0952 -0.1401  0.2278
  178SOPE  H16R20301   6.361   1.215   9.776  0.0288 -1.9105  1.0476
  178SOPE  H16S20302   6.531   1.266   9.821  1.3408 -0.2602  1.3320
  178SOPE  C21720303   6.393   1.174   9.972  0.4980  0.4793  0.5948
  178SOPE  H17R20304   6.319   1.091   9.973 -0.0991  0.9403 -1.3580
  178SOPE  H17S20305   6.343   1.272   9.991 -3.6392 -1.2714 -0.1714
  178SOPE  C21820306   6.505   1.144  10.074 -0.4065 -0.8837  0.1288
  178SOPE  H18R20307   6.576   1.228  10.090 -2.2249  0.4911  1.5122
  178SOPE  H18S20308   6.564   1.052  10.054 -0.0402 -1.0065  1.7130
  178SOPE  H18T20309   6.454   1.126  10.171  1.4830  0.9007  1.5405
  178SOPE   C3320310   7.499   0.154   9.948  0.0213 -0.2209  0.8925
  178SOPE   H3X20311   7.404   0.196   9.910  1.7737  1.6791 -1.7325
  178SOPE   H3Y20312   7.489   0.045   9.971  0.0445  0.2989  3.7691
  178SOPE   C3420313   7.610   0.183   9.843 -0.1000  0.2947  0.3872
  178SOPE   H4X20314   7.710   0.146   9.871 -0.5788 -0.1036  1.6283
  178SOPE   H4Y20315   7.617   0.291   9.818  1.8115  0.2607  0.6858
  178SOPE   C3520316   7.575   0.102   9.716  0.2063 -0.5394  0.4381
  178SOPE   H5X20317   7.604   0.163   9.628  0.4222 -0.3177  0.6600
  178SOPE   H5Y20318   7.465   0.086   9.708  0.2543 -0.5006 -0.3338
  178SOPE   C3620319   7.643  -0.032   9.710 -0.4897  0.0921  0.1591
  178SOPE   H6X20320   7.598  -0.113   9.772 -1.1789  0.4594  0.1492
  178SOPE   H6Y20321   7.740  -0.022   9.762 -0.6519  0.0259  0.4806
  178SOPE   C3720322   7.651  -0.088   9.572 -0.5647 -0.5547  0.0735
  178SOPE   H7X20323   7.706  -0.185   9.571 -0.1741 -0.3341 -0.1017
  178SOPE   H7Y20324   7.713  -0.029   9.502 -1.6350 -0.2150 -0.6141
  178SOPE   C3820325   7.518  -0.123   9.509 -0.2407 -0.4330 -0.9634
  178SOPE   H8X20326   7.458  -0.030   9.496  1.0274  0.2562 -2.2201
  178SOPE   H8Y20327   7.468  -0.199   9.573  1.4993  0.4713  1.5913
  178SOPE   C3920328   7.537  -0.188   9.369  0.1924 -0.1704  0.0326
  178SOPE   H9X20329   7.564  -0.296   9.372  1.2325  0.0333 -1.0604
  178SOPE   H9Y20330   7.605  -0.128   9.306 -1.8020  3.3164  0.9152
  178SOPE  C31020331   7.411  -0.179   9.284 -0.2062 -0.6755  0.4266
  178SOPE  H10X20332   7.380  -0.075   9.263  4.3763  0.6137 -1.1433
  178SOPE  H10Y20333   7.331  -0.241   9.329 -1.3991 -0.6454 -1.5438
  178SOPE  C31120334   7.441  -0.243   9.143  0.5332 -0.3652 -0.0671
  178SOPE  H11X20335   7.483  -0.346   9.137 -1.5876 -1.2201 -1.2990
  178SOPE  H11Y20336   7.513  -0.172   9.098  0.0898  0.2138  0.1247
  178SOPE  C31220337   7.321  -0.245   9.058  0.9267  0.9354  0.9249
  178SOPE  H12X20338   7.236  -0.282   9.119  1.0212 -0.0110  0.5066
  178SOPE  H12Y20339   7.334  -0.322   8.979  1.7517 -0.7549  2.6404
  178SOPE  C31320340   7.287  -0.117   8.981  0.1856 -0.7258 -0.1822
  178SOPE  H13X20341   7.374  -0.077   8.926 -0.3579 -2.5592 -2.5562
  178SOPE  H13Y20342   7.257  -0.039   9.055 -0.1227 -0.0624 -0.9920
  178SOPE  C31420343   7.157  -0.133   8.895  0.3074 -0.1272  0.4851
  178SOPE  H14X20344   7.080  -0.160   8.970  1.4912 -2.6103  0.9282
  178SOPE  H14Y20345   7.166  -0.213   8.818  1.1530  1.9943 -1.7575
  178SOPE  C31520346   7.116  -0.013   8.817  0.5158  0.1006  0.9824
  178SOPE  H15X20347   7.130   0.086   8.867 -0.9040 -0.1383  1.9056
  178SOPE  H15Y20348   7.006  -0.015   8.808  0.2499  0.1368  3.3901
  178SOPE  C31620349   7.181   0.001   8.685 -0.2271  0.5149  0.2662
  178SOPE  H16X20350   7.163  -0.079   8.609  0.8269  0.6786 -0.1834
  178SOPE  H16Y20351   7.292  -0.003   8.695  0.1509  0.1747 -2.9816
  178SOPE  C31720352   7.143   0.129   8.618  1.0482  0.0168 -0.3793
  178SOPE  H17X20353   7.173   0.220   8.676 -1.1902  0.4226  0.2151
  178SOPE  H17Y20354   7.034   0.140   8.604  1.3311  0.6003 -2.3996
  178SOPE  C31820355   7.200   0.138   8.475 -0.0414 -0.3322  0.3293
  178SOPE  H18X20356   7.292   0.076   8.472 -1.4319 -2.4955 -0.3701
  178SOPE  H18Y20357   7.229   0.243   8.458  0.2237 -0.4588  0.0049
  178SOPE  H18Z20358   7.124   0.112   8.398 -0.1564 -1.5181  0.8232
  179SOPE     N20359   5.345   0.294   6.515 -0.7374 -0.0293  0.5669
  179SOPE   HN120360   5.396   0.204   6.516 -2.9558 -1.3941  2.3918
  179SOPE   HN220361   5.313   0.310   6.418  0.4921  1.6683  0.4077
  179SOPE   HN320362   5.421   0.363   6.531 -0.4718 -0.0755 -0.4491
  179SOPE   C1220363   5.244   0.295   6.623  0.5525  0.2259  0.2880
  179SOPE  H12A20364   5.219   0.190   6.647 -1.1671 -0.2737 -3.0446
  179SOPE  H12B20365   5.155   0.344   6.576 -0.2644  1.0261  2.5457
  179SOPE   C1120366   5.299   0.368   6.748 -0.0773 -0.4214  0.4505
  179SOPE  H11A20367   5.402   0.339   6.776 -0.1878  0.9313  2.4902
  179SOPE  H11B20368   5.231   0.326   6.826  2.3957 -3.8622  0.9637
  179SOPE     P20369   5.391   0.610   6.684 -0.0700  0.5098  0.5151
  179SOPE   O1320370   5.321   0.726   6.629 -0.5870  0.0203  0.4281
  179SOPE   O1420371   5.474   0.531   6.583  0.1826 -0.1819  0.3109
  179SOPE   O1220372   5.287   0.511   6.749 -0.0191 -0.5081  0.6827
  179SOPE   O1120373   5.485   0.658   6.794 -0.1535 -0.0014 -0.3352
  179SOPE    C120374   5.578   0.578   6.872  0.0487 -0.4677  0.2156
  179SOPE    HA20375   5.680   0.612   6.845  0.1091 -0.8781 -0.0768
  179SOPE    HB20376   5.563   0.469   6.860  0.2036 -0.5027  0.3381
  179SOPE    C220377   5.561   0.586   7.032 -0.9653  0.3429  0.3577
  179SOPE    HS20378   5.648   0.547   7.089 -2.0145 -1.2244  0.9414
  179SOPE   O2120379   5.444   0.518   7.075  0.1490 -0.4502 -0.1384
  179SOPE   C2120380   5.463   0.391   7.108 -0.0950 -0.3710 -0.5943
  179SOPE   O2220381   5.568   0.330   7.100 -0.8036  0.3740  0.3959
  179SOPE   C2220382   5.319   0.346   7.134 -0.5522  0.5614  0.4900
  179SOPE   H2R20383   5.267   0.344   7.036 -1.8173  1.0888  1.1216
  179SOPE   H2S20384   5.271   0.416   7.206 -1.7708  0.7860 -0.5055
  179SOPE    C320385   5.562   0.738   7.081 -0.0294 -0.1726 -0.0438
  179SOPE    HX20386   5.462   0.782   7.058 -0.3837 -0.4848  0.8440
  179SOPE    HY20387   5.648   0.787   7.031  1.4561  0.6365  3.1125
  179SOPE   O3120388   5.593   0.739   7.224  0.0039 -0.4421  0.0391
  179SOPE   C3120389   5.602   0.868   7.268  0.5801 -0.0964  0.4231
  179SOPE   O3220390   5.588   0.968   7.198  0.0602  0.1379 -0.3185
  179SOPE   C3220391   5.625   0.876   7.421  0.3860 -0.0634  0.1979
  179SOPE   H2X20392   5.640   0.981   7.453 -2.1058  0.3424  0.2331
  179SOPE   H2Y20393   5.722   0.826   7.445  0.8190  1.3740  1.6132
  179SOPE   C2320394   5.314   0.206   7.190 -0.5038 -0.2235 -0.1565
  179SOPE   H3R20395   5.332   0.125   7.116  0.4134  0.6883 -0.9668
  179SOPE   H3S20396   5.211   0.194   7.230  0.1710 -0.4590  1.5908
  179SOPE   C2420397   5.416   0.181   7.307  0.6920 -0.5351  0.2483
  179SOPE   H4R20398   5.392   0.086   7.358  1.6227 -1.2345 -0.5854
  179SOPE   H4S20399   5.524   0.179   7.278  0.7309  0.2052  0.3142
  179SOPE   C2520400   5.399   0.286   7.422  0.2170  1.0004  0.4896
  179SOPE   H5R20401   5.428   0.390   7.397 -1.6265  1.9313  1.8906
  179SOPE   H5S20402   5.295   0.305   7.457 -0.9114 -3.3408  0.0572
  179SOPE   C2620403   5.457   0.226   7.548  0.1591 -0.7992 -0.4424
  179SOPE   H6R20404   5.388   0.150   7.591 -0.0589  0.8126  2.3447
  179SOPE   H6S20405   5.553   0.174   7.530  0.6152 -1.2500  2.6881
  179SOPE   C2720406   5.476   0.330   7.656  0.3468  0.2564 -0.5492
  179SOPE   H7R20407   5.540   0.408   7.611 -0.7416  0.2456 -2.2021
  179SOPE   H7S20408   5.374   0.368   7.676 -0.4055 -2.2726  0.9449
  179SOPE   C2820409   5.554   0.270   7.782  0.2942 -0.5908 -0.4969
  179SOPE   H8R20410   5.656   0.246   7.747  0.3817  2.1134 -2.3548
  179SOPE   H8S20411   5.566   0.361   7.844 -0.2570 -0.2717 -0.8427
  179SOPE   C2920412   5.489   0.158   7.858 -0.2541 -0.4021 -0.9334
  179SOPE   H9120413   5.505   0.067   7.798  0.9845 -0.8832  0.0686
  179SOPE  C21020414   5.412   0.168   7.966  0.8777  0.3279 -0.0660
  179SOPE  H10120415   5.360   0.074   7.992  0.9291  0.3388  0.0771
  179SOPE  C21120416   5.377   0.294   8.037  0.3220  0.4389 -0.1993
  179SOPE  H11R20417   5.268   0.299   8.055 -0.0066  0.3949 -1.9776
  179SOPE  H11S20418   5.398   0.383   7.973 -1.9990 -0.7031 -2.7589
  179SOPE  C21220419   5.473   0.319   8.159 -0.0752  0.1079  0.0641
  179SOPE  H12R20420   5.570   0.363   8.129 -0.2698 -1.5761 -3.5181
  179SOPE  H12S20421   5.490   0.220   8.205 -0.1608  0.2600  0.4256
  179SOPE  C21320422   5.399   0.404   8.261  0.6821 -0.9001  0.1871
  179SOPE  H13R20423   5.314   0.344   8.301  1.3545 -1.3566  0.9504
  179SOPE  H13S20424   5.367   0.501   8.216 -0.4853 -1.8120 -1.0542
  179SOPE  C21420425   5.506   0.445   8.359 -0.3663  0.3718 -0.2650
  179SOPE  H14R20426   5.579   0.515   8.313  2.0322 -0.4105  2.0540
  179SOPE  H14S20427   5.555   0.356   8.405 -3.0465 -0.3904  1.3152
  179SOPE  C21520428   5.448   0.543   8.467 -1.0640  0.5678  0.1171
  179SOPE  H15R20429   5.354   0.510   8.516 -1.2978  2.0819  0.7599
  179SOPE  H15S20430   5.437   0.639   8.413  0.7444  0.6718 -0.1430
  179SOPE  C21620431   5.547   0.566   8.576  0.5607 -0.5254  0.0350
  179SOPE  H16R20432   5.636   0.622   8.541  0.9830  0.0317  1.8737
  179SOPE  H16S20433   5.572   0.465   8.616 -0.1674 -0.4138  0.8070
  179SOPE  C21720434   5.490   0.658   8.683  0.2420 -0.1152 -0.8641
  179SOPE  H17R20435   5.402   0.608   8.728  0.7199 -1.8365 -1.7348
  179SOPE  H17S20436   5.452   0.754   8.643  1.1527  1.1281  1.0714
  179SOPE  C21820437   5.573   0.698   8.800  0.0079 -0.4509  0.0596
  179SOPE  H18R20438   5.512   0.747   8.879  0.4836 -2.0018  1.4523
  179SOPE  H18S20439   5.663   0.753   8.765  1.8443 -2.0639  1.9763
  179SOPE  H18T20440   5.618   0.606   8.842 -1.7457 -1.5721 -0.4132
  179SOPE   C3320441   5.501   0.818   7.502 -0.7480  0.4888  0.0522
  179SOPE   H3X20442   5.459   0.725   7.457 -0.9730 -0.3038  1.8230
  179SOPE   H3Y20443   5.422   0.896   7.504 -0.6729  0.5566  0.5223
  179SOPE   C3420444   5.552   0.766   7.638 -0.1604  0.0487 -0.1093
  179SOPE   H4X20445   5.650   0.715   7.637 -0.8363 -1.4494  2.1529
  179SOPE   H4Y20446   5.475   0.699   7.682  1.7096  0.2366  3.9310
  179SOPE   C3520447   5.577   0.886   7.739 -0.8176 -0.8890 -0.1329
  179SOPE   H5X20448   5.474   0.924   7.760 -0.8815 -0.8180 -0.5613
  179SOPE   H5Y20449   5.647   0.958   7.691 -0.0027 -1.0794  0.7391
  179SOPE   C3620450   5.653   0.849   7.863  0.7290  0.3479 -0.5470
  179SOPE   H6X20451   5.690   0.936   7.922 -0.2217 -0.7417  1.7693
  179SOPE   H6Y20452   5.737   0.781   7.836  0.2369 -0.1182 -0.9121
  179SOPE   C3720453   5.562   0.767   7.960  0.0517 -0.1606  0.9754
  179SOPE   H7X20454   5.538   0.667   7.918  0.1024  1.2306 -2.8053
  179SOPE   H7Y20455   5.458   0.806   7.965  0.2023  0.1921  1.4129
  179SOPE   C3820456   5.614   0.740   8.098  0.6591 -0.2530 -0.4455
  179SOPE   H8X20457   5.704   0.674   8.096  0.9606  0.1714 -1.9813
  179SOPE   H8Y20458   5.534   0.701   8.165  1.0495  0.6299  0.5578
  179SOPE   C3920459   5.673   0.863   8.174 -0.5799 -0.4470  0.4513
  179SOPE   H9X20460   5.592   0.938   8.179  0.2679  0.6628 -1.4541
  179SOPE   H9Y20461   5.770   0.899   8.133 -0.3860 -1.1424  0.2825
  179SOPE  C31020462   5.711   0.823   8.315 -0.4827 -0.4660 -0.3719
  179SOPE  H10X20463   5.787   0.743   8.301  0.4032  0.2569  0.1932
  179SOPE  H10Y20464   5.628   0.769   8.365 -1.0212 -2.0258 -2.7575
  179SOPE  C31120465   5.750   0.941   8.409  0.0351  0.2552  0.2859
  179SOPE  H11X20466   5.651   0.977   8.444 -0.9550  0.8263 -2.8003
  179SOPE  H11Y20467   5.801   1.019   8.349 -1.0823  1.3986  0.7967
  179SOPE  C31220468   5.841   0.886   8.523 -0.3541  0.2633 -0.4050
  179SOPE  H12X20469   5.923   0.826   8.478 -0.9917 -1.6428  0.8408
  179SOPE  H12Y20470   5.783   0.818   8.590 -2.5915  0.6844 -1.7843
  179SOPE  C31320471   5.892   0.988   8.619 -0.6653  0.6479  0.3406
  179SOPE  H13X20472   5.799   1.028   8.664 -1.6743  0.9634 -1.9240
  179SOPE  H13Y20473   5.934   1.069   8.555  0.5938  1.1006  1.6575
  179SOPE  C31420474   5.992   0.944   8.726  0.3949  0.3888 -0.1669
  179SOPE  H14X20475   6.068   0.873   8.689  0.7849  0.7715 -0.1014
  179SOPE  H14Y20476   5.933   0.879   8.795 -0.5228 -0.9862 -2.1384
  179SOPE  C31520477   6.048   1.048   8.814 -0.1591 -0.1831  0.6163
  179SOPE  H15X20478   6.096   1.126   8.751 -3.0303 -1.7185 -3.9238
  179SOPE  H15Y20479   6.126   0.992   8.871 -0.6999  1.2257  2.8927
  179SOPE  C31620480   5.945   1.112   8.907  0.8785  0.2819 -0.0466
  179SOPE  H16X20481   5.908   1.027   8.969  2.4710 -0.4081 -0.0059
  179SOPE  H16Y20482   5.858   1.156   8.853  2.1779  2.3326 -0.5531
  179SOPE  C31720483   5.995   1.233   8.986  0.1991  0.0515  0.1324
  179SOPE  H17X20484   6.024   1.321   8.925  0.4424 -0.5824 -0.6793
  179SOPE  H17Y20485   6.087   1.219   9.047 -0.8727 -1.6035  1.4769
  179SOPE  C31820486   5.882   1.286   9.083  0.2581  0.6853 -0.1760
  179SOPE  H18X20487   5.911   1.377   9.140 -0.5004 -0.7461  2.6722
  179SOPE  H18Y20488   5.864   1.216   9.166  0.7518  0.4029 -0.3015
  179SOPE  H18Z20489   5.788   1.306   9.027  0.7767  0.1871 -1.2631
  180SOPE     N20490   3.636   6.497   6.141 -0.1785 -0.0338 -0.1728
  180SOPE   HN120491   3.541   6.463   6.164  0.3396  0.9252  4.3127
  180SOPE   HN220492   3.637   6.601   6.144 -3.3745  0.0628  0.8161
  180SOPE   HN320493   3.652   6.472   6.041  2.2981  0.8192 -0.0722
  180SOPE   C1220494   3.748   6.434   6.230 -0.0249  0.0684 -0.2488
  180SOPE  H12A20495   3.701   6.430   6.331 -0.7968 -1.3005 -0.6434
  180SOPE  H12B20496   3.828   6.511   6.226 -0.5462  0.5692 -1.7401
  180SOPE   C1120497   3.795   6.296   6.193  0.1692  0.1952 -0.7130
  180SOPE  H11A20498   3.809   6.284   6.084 -0.9880 -0.3793 -0.8140
  180SOPE  H11B20499   3.721   6.218   6.218  0.4317 -0.0559 -0.7118
  180SOPE     P20500   4.059   6.280   6.205  0.0656 -0.5105  0.2003
  180SOPE   O1320501   4.072   6.421   6.167  0.2197  0.1364  0.6456
  180SOPE   O1420502   4.070   6.175   6.099 -0.2542 -0.1553  0.0455
  180SOPE   O1220503   3.915   6.261   6.271 -0.0184 -0.2963 -0.1263
  180SOPE   O1120504   4.159   6.237   6.316  1.0048 -0.0966 -0.7747
  180SOPE    C120505   4.135   6.214   6.459 -0.7054 -0.4771 -0.2620
  180SOPE    HA20506   4.188   6.120   6.485 -2.3079 -1.0902  0.9983
  180SOPE    HB20507   4.028   6.189   6.475 -0.9943  0.9088  0.0810
  180SOPE    C220508   4.201   6.315   6.564 -0.2455  0.5089  0.2562
  180SOPE    HS20509   4.158   6.414   6.539 -0.9116  0.4310  1.0629
  180SOPE   O2120510   4.345   6.319   6.554 -0.2729 -0.3077 -0.4319
  180SOPE   C2120511   4.395   6.425   6.502  0.0662 -0.0714  0.6093
  180SOPE   O2220512   4.339   6.507   6.428  0.0039  0.4653 -0.7905
  180SOPE   C2220513   4.541   6.436   6.534 -0.7181  0.1025  0.4076
  180SOPE   H2R20514   4.564   6.545   6.539  0.1114  0.2790 -3.7557
  180SOPE   H2S20515   4.594   6.405   6.442 -0.4605 -0.2823  0.6788
  180SOPE    C320516   4.165   6.273   6.699 -0.3308 -1.2405 -0.4742
  180SOPE    HX20517   4.217   6.176   6.712  1.8366 -0.1890 -0.8988
  180SOPE    HY20518   4.058   6.244   6.707 -0.2836 -1.2603  0.0907
  180SOPE   O3120519   4.205   6.357   6.810 -0.8685  0.0743  0.2486
  180SOPE   C3120520   4.133   6.455   6.824  0.0899  0.4512 -0.1067
  180SOPE   O3220521   4.036   6.489   6.760  0.1853 -0.0338  0.9092
  180SOPE   C3220522   4.169   6.522   6.955  0.1900 -0.5397  0.4252
  180SOPE   H2X20523   4.083   6.587   6.981  1.2952  1.3647 -0.4367
  180SOPE   H2Y20524   4.253   6.591   6.933  0.1214 -0.6178 -0.0808
  180SOPE   C2320525   4.591   6.354   6.656  0.0778  0.2509 -0.2862
  180SOPE   H3R20526   4.552   6.250   6.659  1.2893 -0.2516 -1.2027
  180SOPE   H3S20527   4.544   6.420   6.732 -1.8035 -1.6930  0.3329
  180SOPE   C2420528   4.741   6.358   6.674 -0.0906 -0.5136 -0.4961
  180SOPE   H4R20529   4.792   6.347   6.575 -0.1967  1.0892 -0.7617
  180SOPE   H4S20530   4.767   6.460   6.710  0.3234 -0.8679  0.2316
  180SOPE   C2520531   4.803   6.255   6.775  0.0825  0.2816  0.5538
  180SOPE   H5R20532   4.813   6.152   6.733  2.0782  0.4124  0.6042
  180SOPE   H5S20533   4.908   6.287   6.791  0.4757 -0.2991 -0.6932
  180SOPE   C2620534   4.734   6.242   6.906 -0.0387 -0.1490 -0.1078
  180SOPE   H6R20535   4.626   6.219   6.899 -0.5870  1.5839  1.6956
  180SOPE   H6S20536   4.787   6.167   6.969 -0.6228  0.2543  0.8767
  180SOPE   C2720537   4.742   6.369   6.992  1.0109 -0.1634  1.1047
  180SOPE   H7R20538   4.849   6.387   7.017  1.2447 -1.3880  1.0232
  180SOPE   H7S20539   4.706   6.451   6.926 -1.6585 -1.9350  0.1911
  180SOPE   C2820540   4.646   6.352   7.111  0.4624 -0.1098 -1.0969
  180SOPE   H8R20541   4.617   6.452   7.150  2.3983 -1.0078  3.3864
  180SOPE   H8S20542   4.553   6.306   7.072  1.9742 -2.4224 -2.2308
  180SOPE   C2920543   4.685   6.273   7.234 -0.2409 -0.1135 -0.2456
  180SOPE   H9120544   4.708   6.166   7.223  1.9559 -0.0443  2.3584
  180SOPE  C21020545   4.704   6.321   7.360 -0.1319 -0.3058 -0.7446
  180SOPE  H10120546   4.747   6.247   7.429  1.0911  0.2407 -0.8973
  180SOPE  C21120547   4.693   6.461   7.415  0.2489  0.3289 -0.1030
  180SOPE  H11R20548   4.592   6.508   7.408  0.1384  0.0405 -0.4690
  180SOPE  H11S20549   4.766   6.537   7.379 -0.2661  1.3650  0.9718
  180SOPE  C21220550   4.712   6.471   7.562  0.4011  0.0030 -0.2815
  180SOPE  H12R20551   4.664   6.566   7.594 -0.2652 -0.3659 -0.1595
  180SOPE  H12S20552   4.819   6.465   7.590 -0.1381 -0.1680  1.9127
  180SOPE  C21320553   4.636   6.367   7.650 -0.2689  0.6871 -0.4469
  180SOPE  H13R20554   4.691   6.271   7.640 -0.3084  0.6300 -0.1262
  180SOPE  H13S20555   4.528   6.365   7.623 -0.1561  3.4420 -1.3880
  180SOPE  C21420556   4.647   6.413   7.800 -0.2658  0.8938  0.2712
  180SOPE  H14R20557   4.614   6.519   7.812 -1.6522  0.5392 -0.3013
  180SOPE  H14S20558   4.756   6.413   7.822  0.2400 -0.9275 -1.8830
  180SOPE  C21520559   4.583   6.324   7.905 -0.3392 -0.8763  0.8581
  180SOPE  H15R20560   4.597   6.217   7.879  0.4063 -1.0966  2.0591
  180SOPE  H15S20561   4.473   6.334   7.890  0.1735 -0.5395 -3.9563
  180SOPE  C21620562   4.641   6.346   8.052  0.3378 -0.0509 -0.3776
  180SOPE  H16R20563   4.750   6.323   8.053  0.4677  0.1182 -3.5288
  180SOPE  H16S20564   4.586   6.273   8.116 -0.5786 -1.0193 -2.2051
  180SOPE  C21720565   4.613   6.480   8.108  0.2036 -0.6528 -0.0725
  180SOPE  H17R20566   4.505   6.501   8.120  0.5285  0.5147  0.9505
  180SOPE  H17S20567   4.656   6.554   8.038  0.3753 -1.0570 -0.3952
  180SOPE  C21820568   4.674   6.506   8.249 -0.0170  0.5266 -0.3730
  180SOPE  H18R20569   4.662   6.417   8.315 -0.8839  0.6172 -0.3952
  180SOPE  H18S20570   4.625   6.600   8.283  2.0156  1.9519 -1.2214
  180SOPE  H18T20571   4.781   6.532   8.242  0.0295  0.3996 -0.1675
  180SOPE   C3320572   4.217   6.427   7.069 -0.4477 -0.6498  0.0322
  180SOPE   H3X20573   4.306   6.364   7.046 -0.4890 -0.5408 -0.4373
  180SOPE   H3Y20574   4.127   6.364   7.086  0.5219 -1.9082  0.6605
  180SOPE   C3420575   4.254   6.505   7.191  0.5311 -0.1850  0.4481
  180SOPE   H4X20576   4.193   6.597   7.182 -2.7345 -2.3555 -3.3525
  180SOPE   H4Y20577   4.361   6.535   7.189  1.0120 -1.0823  4.2710
  180SOPE   C3520578   4.205   6.439   7.325  0.1468 -0.1771  1.0786
  180SOPE   H5X20579   4.270   6.350   7.340 -0.8585 -1.2455 -0.6385
  180SOPE   H5Y20580   4.098   6.408   7.327  0.8174 -2.7104  2.9858
  180SOPE   C3620581   4.223   6.532   7.441  0.2576  0.1518 -0.2430
  180SOPE   H6X20582   4.136   6.599   7.428 -0.6564 -1.2652 -1.7162
  180SOPE   H6Y20583   4.312   6.595   7.420  0.8647  0.3786  2.5758
  180SOPE   C3720584   4.228   6.470   7.582  0.1314  0.2416 -0.0751
  180SOPE   H7X20585   4.332   6.437   7.605  0.5169  3.0556  2.8498
  180SOPE   H7Y20586   4.153   6.389   7.580  1.2617 -0.8470  0.6484
  180SOPE   C3820587   4.177   6.571   7.684  0.0176  0.2387  0.1031
  180SOPE   H8X20588   4.066   6.578   7.674 -0.1423  0.1428  1.5379
  180SOPE   H8Y20589   4.221   6.673   7.687 -0.8391  0.6237  0.0935
  180SOPE   C3920590   4.207   6.528   7.826  0.1089 -0.0446 -0.5811
  180SOPE   H9X20591   4.316   6.544   7.842 -0.1649  0.7997  0.4997
  180SOPE   H9Y20592   4.182   6.420   7.836  1.0685 -0.1038  1.9148
  180SOPE  C31020593   4.133   6.600   7.934  0.6142  0.4323  0.5537
  180SOPE  H10X20594   4.024   6.591   7.911  0.6857  1.7539 -0.3839
  180SOPE  H10Y20595   4.166   6.706   7.935  0.9333  0.4097 -2.0963
  180SOPE  C31120596   4.164   6.532   8.073 -0.4851  0.4420 -0.1552
  180SOPE  H11X20597   4.274   6.535   8.086  0.1027  0.8343 -4.0346
  180SOPE  H11Y20598   4.133   6.426   8.063 -0.6339  0.5586 -1.0044
  180SOPE  C31220599   4.096   6.596   8.192 -0.2288 -0.3026 -0.8243
  180SOPE  H12X20600   3.985   6.590   8.199 -0.2743  1.2863  0.7313
  180SOPE  H12Y20601   4.126   6.703   8.185 -1.9965  0.3521  0.5729
  180SOPE  C31320602   4.136   6.545   8.331 -0.0065 -0.2422  0.5899
  180SOPE  H13X20603   4.100   6.442   8.349 -0.9094 -0.0547 -0.0947
  180SOPE  H13Y20604   4.087   6.604   8.411 -1.8356  1.8207 -1.8755
  180SOPE  C31420605   4.285   6.547   8.358  0.1910  0.3030  0.2658
  180SOPE  H14X20606   4.323   6.648   8.334 -0.6481  0.7483  0.7855
  180SOPE  H14Y20607   4.334   6.469   8.294 -1.4283 -1.6420  1.2654
  180SOPE  C31520608   4.320   6.524   8.501 -0.2999 -1.1204  0.0884
  180SOPE  H15X20609   4.264   6.439   8.545 -1.1932  0.1430  1.4708
  180SOPE  H15Y20610   4.281   6.614   8.552  0.7099  0.2297 -1.4362
  180SOPE  C31620611   4.475   6.521   8.526  0.0937 -0.8142 -0.1553
  180SOPE  H16X20612   4.509   6.611   8.470 -0.5794 -1.0036 -0.8888
  180SOPE  H16Y20613   4.513   6.432   8.472 -1.6848 -0.9885 -1.1882
  180SOPE  C31720614   4.514   6.529   8.673 -0.0924  0.4813  0.5848
  180SOPE  H17X20615   4.483   6.434   8.722  1.1722 -1.0137 -1.3389
  180SOPE  H17Y20616   4.462   6.616   8.718 -2.9007 -0.1176 -1.2285
  180SOPE  C31820617   4.664   6.531   8.688 -0.6161 -0.3738  0.2184
  180SOPE  H18X20618   4.693   6.555   8.792  1.3084  0.4744 -0.4685
  180SOPE  H18Y20619   4.701   6.615   8.625 -0.1783  0.2699  1.3139
  180SOPE  H18Z20620   4.716   6.444   8.643 -1.9861 -0.8482 -0.5199
  181SOPE     N20621   4.759   4.602   5.987  0.0855  0.6955 -0.3627
  181SOPE   HN120622   4.752   4.526   5.916 -1.1191  0.0906  0.3700
  181SOPE   HN220623   4.659   4.612   6.012  0.1482 -0.5889  0.4631
  181SOPE   HN320624   4.791   4.691   5.943 -0.1387  1.4386  0.9387
  181SOPE   C1220625   4.849   4.545   6.092  0.0093 -0.2192 -0.2222
  181SOPE  H12A20626   4.821   4.593   6.189  1.1344 -1.5818  0.8087
  181SOPE  H12B20627   4.954   4.570   6.066  0.0539  0.1736  0.3046
  181SOPE   C1120628   4.815   4.392   6.096  0.3224  0.0079  0.2168
  181SOPE  H11A20629   4.716   4.371   6.143  0.5976 -1.7126  0.1156
  181SOPE  H11B20630   4.893   4.371   6.172  0.7171  3.1406  0.8083
  181SOPE     P20631   4.779   4.176   5.959 -0.5311 -0.1248  0.0596
  181SOPE   O1320632   4.843   4.096   5.847  0.1648  0.0436  0.1142
  181SOPE   O1420633   4.634   4.184   5.940  0.6895  0.6321 -0.0809
  181SOPE   O1220634   4.839   4.328   5.971  0.2422  0.1120 -0.2265
  181SOPE   O1120635   4.802   4.107   6.100 -0.0788 -0.1288 -0.8084
  181SOPE    C120636   4.934   4.056   6.115  0.6761  0.2962 -0.5716
  181SOPE    HA20637   5.009   4.132   6.084  1.8615 -0.3215  0.6354
  181SOPE    HB20638   4.956   3.959   6.066 -0.4503 -0.6095  0.6604
  181SOPE    C220639   4.975   4.031   6.265 -0.1099 -0.1056  0.4663
  181SOPE    HS20640   5.086   4.030   6.273 -0.2203 -0.6311  2.3253
  181SOPE   O2120641   4.912   3.904   6.295  0.4026 -0.5319  0.1538
  181SOPE   C2120642   4.965   3.845   6.392 -0.0671 -0.1962  0.0518
  181SOPE   O2220643   5.053   3.883   6.466 -0.3847 -0.1436 -1.1819
  181SOPE   C2220644   4.890   3.711   6.426  0.2358 -0.4626  0.3018
  181SOPE   H2R20645   4.924   3.641   6.346  0.2992 -0.6789  0.5159
  181SOPE   H2S20646   4.783   3.734   6.407  0.8278  1.6415 -0.8402
  181SOPE    C320647   4.920   4.146   6.356 -0.0008  0.3339 -0.2908
  181SOPE    HX20648   4.809   4.148   6.346 -0.1097  1.4026  0.8813
  181SOPE    HY20649   4.959   4.244   6.319 -0.2036  1.9805  3.3969
  181SOPE   O3120650   4.957   4.135   6.498 -0.1440  0.1459  0.3825
  181SOPE   C3120651   4.893   4.203   6.583  0.6351 -0.4291  0.4439
  181SOPE   O3220652   4.791   4.266   6.559  0.7513 -0.0834  0.3019
  181SOPE   C3220653   4.953   4.185   6.724 -0.7917 -0.3329 -0.9485
  181SOPE   H2X20654   5.036   4.259   6.726  1.2109 -2.4448 -1.7484
  181SOPE   H2Y20655   4.994   4.084   6.746  0.7272  0.7217  1.4793
  181SOPE   C2320656   4.909   3.652   6.568 -0.3275 -0.5319  0.1133
  181SOPE   H3R20657   5.017   3.631   6.583  0.3415 -0.7318 -3.7980
  181SOPE   H3S20658   4.862   3.552   6.577 -0.7376 -0.1862  2.0733
  181SOPE   C2420659   4.870   3.733   6.694 -0.0590  0.0851  1.0487
  181SOPE   H4R20660   4.922   3.831   6.679  1.6678 -0.9935 -0.4728
  181SOPE   H4S20661   4.764   3.766   6.693 -0.7801 -2.0214 -1.5057
  181SOPE   C2520662   4.910   3.665   6.828 -0.0229 -0.7042  0.3114
  181SOPE   H5R20663   4.834   3.588   6.851 -0.0837 -1.3080 -1.6782
  181SOPE   H5S20664   5.007   3.616   6.802  1.2144 -0.1515  3.4887
  181SOPE   C2620665   4.925   3.755   6.951 -0.3813 -0.3655 -0.1368
  181SOPE   H6R20666   4.971   3.849   6.913  1.1243 -1.4530 -1.1268
  181SOPE   H6S20667   4.825   3.776   6.994 -1.0889 -0.7458 -1.5309
  181SOPE   C2720668   5.012   3.698   7.065 -1.0479 -0.6097  0.4911
  181SOPE   H7R20669   4.960   3.619   7.125  0.1768 -2.4221 -0.7300
  181SOPE   H7S20670   5.104   3.657   7.019 -0.9008  0.4492 -0.1748
  181SOPE   C2820671   5.090   3.798   7.164 -0.4538  0.8930 -0.1625
  181SOPE   H8R20672   5.161   3.735   7.222 -0.4190  0.3559 -0.7788
  181SOPE   H8S20673   5.147   3.867   7.098 -0.3324  1.1669  0.2244
  181SOPE   C2920674   4.996   3.880   7.248  0.4359  0.8453  0.6007
  181SOPE   H9120675   4.914   3.928   7.192 -1.2457 -0.8097  1.5415
  181SOPE  C21020676   4.987   3.892   7.385  0.9213  0.5788 -0.1935
  181SOPE  H10120677   4.907   3.951   7.432 -0.4993 -0.7496 -0.8485
  181SOPE  C21120678   5.074   3.821   7.483  0.2639 -0.0281 -0.4297
  181SOPE  H11R20679   5.179   3.841   7.452 -0.2600  3.3427 -0.4602
  181SOPE  H11S20680   5.057   3.712   7.480  0.8930 -0.2088  1.4572
  181SOPE  C21220681   5.052   3.863   7.635  0.2446 -0.3594  0.1111
  181SOPE  H12R20682   5.101   3.779   7.688 -0.3778 -0.9481 -0.2242
  181SOPE  H12S20683   4.943   3.857   7.656  0.0489  0.2391 -0.6901
  181SOPE  C21320684   5.115   3.993   7.681  0.1660 -0.4610 -0.3493
  181SOPE  H13R20685   5.081   4.076   7.616 -1.7347  0.4145  1.6415
  181SOPE  H13S20686   5.224   3.985   7.664  0.3780  1.9111 -0.3771
  181SOPE  C21420687   5.068   4.019   7.828 -0.2356 -0.2204  0.0753
  181SOPE  H14R20688   5.116   3.941   7.892 -0.2525 -0.5099 -0.2630
  181SOPE  H14S20689   4.958   4.010   7.817 -0.2178  0.4042 -0.6806
  181SOPE  C21520690   5.123   4.154   7.885 -0.5670  0.3704 -0.8062
  181SOPE  H15R20691   5.096   4.246   7.827  0.9477  2.7929  2.0800
  181SOPE  H15S20692   5.234   4.157   7.880 -0.4709  0.3766  0.8138
  181SOPE  C21620693   5.068   4.187   8.025  0.0732  0.6906  0.4886
  181SOPE  H16R20694   4.958   4.206   8.025 -0.1702 -0.2726 -1.9806
  181SOPE  H16S20695   5.111   4.278   8.072  0.6022  0.8863 -0.3611
  181SOPE  C21720696   5.124   4.075   8.125  0.1128  0.7212  0.3590
  181SOPE  H17R20697   5.234   4.063   8.112  0.0481 -2.0280  1.6402
  181SOPE  H17S20698   5.075   3.978   8.101  1.4185  0.1912 -0.2864
  181SOPE  C21820699   5.098   4.101   8.273 -0.1784 -0.2710  0.0025
  181SOPE  H18R20700   5.101   4.211   8.288  2.6739 -0.3568  0.5652
  181SOPE  H18S20701   5.175   4.042   8.327  1.4240  1.1355 -0.6611
  181SOPE  H18T20702   4.994   4.063   8.289  0.2683 -1.4747  0.1373
  181SOPE   C3320703   4.844   4.224   6.830 -0.4697  0.0715 -0.1599
  181SOPE   H3X20704   4.775   4.138   6.839  0.5265 -0.8170 -0.7321
  181SOPE   H3Y20705   4.792   4.317   6.801 -2.2295 -1.2604 -1.4640
  181SOPE   C3420706   4.911   4.237   6.972  0.0921 -0.2396  0.9602
  181SOPE   H4X20707   4.975   4.327   6.957  1.0136 -0.7509  1.6489
  181SOPE   H4Y20708   4.973   4.146   6.993 -0.8455 -1.0487  0.2743
  181SOPE   C3520709   4.824   4.287   7.089 -0.5097  0.3178  0.4045
  181SOPE   H5X20710   4.737   4.219   7.079  0.8035 -1.6089  1.3778
  181SOPE   H5Y20711   4.786   4.390   7.071 -0.8076  0.0377 -0.6415
  181SOPE   C3620712   4.891   4.288   7.220  0.1239  0.3730 -0.6596
  181SOPE   H6X20713   4.984   4.349   7.223  0.3583 -0.0126  1.1011
  181SOPE   H6Y20714   4.923   4.184   7.240 -2.2543 -0.7711 -2.2854
  181SOPE   C3720715   4.782   4.329   7.326  0.9261 -0.1998 -0.2537
  181SOPE   H7X20716   4.680   4.290   7.305  1.4218 -1.2923 -0.7169
  181SOPE   H7Y20717   4.766   4.438   7.335  0.8488 -0.3967  3.2287
  181SOPE   C3820718   4.814   4.286   7.472 -0.5825  0.0134 -0.1727
  181SOPE   H8X20719   4.906   4.339   7.507 -0.4607 -0.6511  0.5668
  181SOPE   H8Y20720   4.848   4.180   7.466 -1.7199 -0.2946 -1.7151
  181SOPE   C3920721   4.703   4.311   7.578 -0.0782  0.6864  0.2291
  181SOPE   H9X20722   4.610   4.259   7.545 -0.3953  1.2316  0.2543
  181SOPE   H9Y20723   4.677   4.419   7.577 -0.0232  0.7113 -1.6354
  181SOPE  C31020724   4.741   4.263   7.719  0.7607 -0.0398  0.2196
  181SOPE  H10X20725   4.829   4.320   7.755 -1.0671  4.2180 -1.3722
  181SOPE  H10Y20726   4.762   4.154   7.725 -1.6267 -0.5464  0.3398
  181SOPE  C31120727   4.633   4.303   7.829 -0.1356  0.6366 -0.5179
  181SOPE  H11X20728   4.540   4.244   7.810  0.8676 -0.6112 -1.7034
  181SOPE  H11Y20729   4.605   4.410   7.813  0.3960  0.5376 -2.2960
  181SOPE  C31220730   4.678   4.261   7.970 -0.5793  0.2357  0.0245
  181SOPE  H12X20731   4.765   4.326   7.992 -0.8167  0.6650 -0.2909
  181SOPE  H12Y20732   4.711   4.155   7.970  0.0972  0.4324 -0.7286
  181SOPE  C31320733   4.562   4.271   8.073  0.2369 -0.0725 -1.1634
  181SOPE  H13X20734   4.472   4.208   8.055  0.4266 -1.3782  1.7513
  181SOPE  H13Y20735   4.523   4.371   8.043 -1.0386 -1.3409 -4.0913
  181SOPE  C31420736   4.602   4.249   8.219  0.1349  0.5485 -0.2059
  181SOPE  H14X20737   4.702   4.293   8.239  1.3988 -2.0428 -0.4210
  181SOPE  H14Y20738   4.629   4.143   8.240  1.2311  0.9222  0.3613
  181SOPE  C31520739   4.506   4.305   8.321 -0.7304  0.2162  0.2353
  181SOPE  H15X20740   4.489   4.409   8.288 -1.0005 -0.2927 -1.2940
  181SOPE  H15Y20741   4.552   4.305   8.422 -1.7400  0.7892  0.7067
  181SOPE  C31620742   4.378   4.221   8.312  0.8112 -0.0832  0.1551
  181SOPE  H16X20743   4.402   4.114   8.323  1.1200  0.0095  0.3996
  181SOPE  H16Y20744   4.332   4.233   8.212  1.8543 -0.4243 -0.3757
  181SOPE  C31720745   4.280   4.260   8.427  0.2676 -0.2200 -0.7729
  181SOPE  H17X20746   4.260   4.369   8.416 -1.1678 -0.5850 -2.1421
  181SOPE  H17Y20747   4.330   4.239   8.524 -1.0332 -0.1240 -0.0475
  181SOPE  C31820748   4.137   4.199   8.432  0.0958  0.9596  0.1126
  181SOPE  H18X20749   4.079   4.235   8.344 -1.4472 -0.4262  0.5279
  181SOPE  H18Y20750   4.086   4.236   8.523 -0.9719 -2.0002  0.8078
  181SOPE  H18Z20751   4.142   4.090   8.414  0.6504  1.0584 -0.3694
  182SOPE     N20752   4.952   6.092   5.947  0.3371  0.0750  0.3487
  182SOPE   HN120753   4.912   6.171   6.001 -0.0444 -0.3925  0.7549
  182SOPE   HN220754   5.030   6.048   6.000  1.5124 -0.9992 -2.1122
  182SOPE   HN320755   4.985   6.123   5.853 -2.5686 -4.5636 -2.5917
  182SOPE   C1220756   4.845   5.984   5.923  0.5381 -0.0148 -0.1215
  182SOPE  H12A20757   4.775   6.027   5.848 -0.1898  0.2889  0.7236
  182SOPE  H12B20758   4.788   5.979   6.018  0.4077 -0.0647 -0.2024
  182SOPE   C1120759   4.903   5.847   5.881  0.8987 -0.1556  0.3339
  182SOPE  H11A20760   4.942   5.862   5.778  0.0396  0.2988  0.0651
  182SOPE  H11B20761   4.817   5.779   5.870  0.5587  0.3672 -0.2830
  182SOPE     P20762   4.969   5.736   6.107  0.0699 -0.1082  0.0548
  182SOPE   O1320763   5.101   5.715   6.169 -0.1977 -0.3278 -0.4841
  182SOPE   O1420764   4.882   5.625   6.111  0.3890  0.1974  0.3625
  182SOPE   O1220765   5.000   5.784   5.961  0.0183 -0.5352  0.5250
  182SOPE   O1120766   4.902   5.860   6.175 -0.2781  0.3638 -0.3388
  182SOPE    C120767   4.966   5.922   6.288  0.3423 -0.0391 -0.0896
  182SOPE    HA20768   4.976   6.031   6.264  0.7215  0.1699  0.9657
  182SOPE    HB20769   5.072   5.899   6.309 -0.7141 -2.6531  3.3322
  182SOPE    C220770   4.887   5.923   6.415 -0.1158  0.8435 -0.1903
  182SOPE    HS20771   4.919   6.005   6.482  0.5615  0.4652 -0.0454
  182SOPE   O2120772   4.882   5.791   6.473 -0.3798  0.0970  0.1779
  182SOPE   C2120773   4.970   5.775   6.578 -0.5988 -1.0750  0.9721
  182SOPE   O2220774   5.054   5.855   6.609 -0.1457  0.3796 -0.7064
  182SOPE   C2220775   4.936   5.644   6.644 -0.6298 -0.4430  0.0408
  182SOPE   H2R20776   5.037   5.603   6.669 -0.7688 -0.9594 -0.2190
  182SOPE   H2S20777   4.895   5.583   6.560  1.5507 -0.3985 -1.1397
  182SOPE    C320778   4.736   5.942   6.376 -0.0227 -0.3725 -0.2989
  182SOPE    HX20779   4.700   5.851   6.324  1.2651 -1.7598  1.1383
  182SOPE    HY20780   4.735   6.021   6.298 -1.4846 -1.2708 -1.2328
  182SOPE   O3120781   4.648   5.983   6.490 -0.0015 -0.9611 -0.0581
  182SOPE   C3120782   4.558   5.889   6.522  0.0269 -0.0191  0.5061
  182SOPE   O3220783   4.540   5.784   6.463  0.4345 -0.0880  0.2417
  182SOPE   C3220784   4.464   5.933   6.635 -0.9163  0.7040 -0.5664
  182SOPE   H2X20785   4.364   5.885   6.643 -0.7924  0.4448 -0.5430
  182SOPE   H2Y20786   4.456   6.042   6.614  2.8271  0.8332 -2.0899
  182SOPE   C2320787   4.841   5.654   6.764 -0.2733 -0.9946 -0.4567
  182SOPE   H3R20788   4.822   5.549   6.795  0.8008 -1.3809 -1.0294
  182SOPE   H3S20789   4.748   5.704   6.729  1.0296  1.6607 -0.3300
  182SOPE   C2420790   4.888   5.728   6.884 -0.0661 -0.5699  0.1072
  182SOPE   H4R20791   4.880   5.837   6.865  0.7696 -0.6727 -0.9533
  182SOPE   H4S20792   4.818   5.702   6.966  1.0323  1.7514  1.9332
  182SOPE   C2520793   5.030   5.683   6.932  0.0851 -0.9850 -0.4323
  182SOPE   H5R20794   5.018   5.575   6.958 -2.9602 -0.5678  0.3176
  182SOPE   H5S20795   5.108   5.695   6.853 -1.5480 -1.6868 -2.2323
  182SOPE   C2620796   5.080   5.767   7.052 -0.2538  0.5787 -0.2871
  182SOPE   H6R20797   5.118   5.867   7.021  0.3383  1.0196  1.6914
  182SOPE   H6S20798   4.992   5.784   7.118 -1.7502 -0.5680 -1.8862
  182SOPE   C2720799   5.193   5.689   7.115 -0.4616 -1.0056 -0.2673
  182SOPE   H7R20800   5.154   5.591   7.150 -0.1810 -0.2419  2.3893
  182SOPE   H7S20801   5.268   5.685   7.033 -2.3126  0.0772 -2.0681
  182SOPE   C2820802   5.266   5.768   7.222 -0.6145  0.3856  0.3675
  182SOPE   H8R20803   5.311   5.861   7.180  0.7922 -1.2692 -2.0849
  182SOPE   H8S20804   5.194   5.797   7.301  0.1666  1.7716  0.6006
  182SOPE   C2920805   5.369   5.672   7.259  0.3974 -0.0347  0.4617
  182SOPE   H9120806   5.448   5.651   7.185 -0.3781  1.0598 -0.7068
  182SOPE  C21020807   5.377   5.602   7.371 -0.3688 -0.4940 -0.2572
  182SOPE  H10120808   5.463   5.535   7.376 -0.5953 -0.7395  0.5052
  182SOPE  C21120809   5.285   5.602   7.487  0.1514 -0.4040 -0.0587
  182SOPE  H11R20810   5.289   5.492   7.503  2.0407 -0.5270 -1.0776
  182SOPE  H11S20811   5.183   5.627   7.450  0.5064 -0.2076 -0.9465
  182SOPE  C21220812   5.315   5.683   7.611  0.0023 -0.0965  0.5443
  182SOPE  H12R20813   5.351   5.785   7.588  1.9239 -0.8525  0.0486
  182SOPE  H12S20814   5.402   5.641   7.665  1.4934 -0.0306 -1.7091
  182SOPE  C21320815   5.193   5.695   7.715 -0.2368  0.0309  0.2919
  182SOPE  H13R20816   5.124   5.611   7.691  0.9001 -1.3596  1.6892
  182SOPE  H13S20817   5.145   5.794   7.700  0.9910  0.5950 -0.0564
  182SOPE  C21420818   5.234   5.672   7.862 -0.1447 -0.4064 -0.6162
  182SOPE  H14R20819   5.303   5.585   7.866  0.3567  0.0137  0.4829
  182SOPE  H14S20820   5.148   5.668   7.932  0.7943  0.2400  0.6244
  182SOPE  C21520821   5.299   5.803   7.917 -1.0962  0.2425  0.3262
  182SOPE  H15R20822   5.229   5.887   7.902 -0.7921  0.1521 -1.9519
  182SOPE  H15S20823   5.388   5.821   7.854  0.2237  1.0275  2.3191
  182SOPE  C21620824   5.324   5.805   8.068 -0.4667 -0.2078 -0.6910
  182SOPE  H16R20825   5.239   5.812   8.139  1.6583 -0.8990  2.1230
  182SOPE  H16S20826   5.382   5.898   8.084 -1.2287  0.5055 -1.9138
  182SOPE  C21720827   5.388   5.676   8.114  0.0561 -0.2595  0.1725
  182SOPE  H17R20828   5.455   5.646   8.031  2.2802  0.9933  1.4299
  182SOPE  H17S20829   5.316   5.593   8.130  0.1090 -0.1599  0.9572
  182SOPE  C21820830   5.469   5.675   8.241 -0.2719  0.6553 -0.5037
  182SOPE  H18R20831   5.400   5.694   8.326  1.7567  0.4367  1.2910
  182SOPE  H18S20832   5.556   5.744   8.245  0.1325  0.2257 -1.4157
  182SOPE  H18T20833   5.508   5.574   8.263  0.5396  1.3302  1.3770
  182SOPE   C3320834   4.543   5.937   6.771  0.7975 -0.4869 -0.4306
  182SOPE   H3X20835   4.615   6.021   6.775 -0.3290  0.4974 -0.0970
  182SOPE   H3Y20836   4.591   5.838   6.785 -0.0916 -0.7451  1.0898
  182SOPE   C3420837   4.439   5.958   6.887  0.4861 -0.0628  0.1170
  182SOPE   H4X20838   4.358   5.882   6.878  0.5066 -0.0379 -0.3183
  182SOPE   H4Y20839   4.392   6.053   6.852 -0.4091 -0.2435  0.8044
  182SOPE   C3520840   4.485   5.974   7.035  0.1427  0.2672  0.2265
  182SOPE   H5X20841   4.557   6.058   7.029 -1.2328  1.4045 -2.8076
  182SOPE   H5Y20842   4.544   5.884   7.064  1.5683  0.8846 -0.6831
  182SOPE   C3620843   4.372   5.989   7.129  0.1035 -0.3138  0.5022
  182SOPE   H6X20844   4.344   5.882   7.128  0.8557 -0.5082  0.3357
  182SOPE   H6Y20845   4.293   6.055   7.087 -1.1919 -0.5592  2.4232
  182SOPE   C3720846   4.413   6.053   7.260  0.1634  0.2482  0.4626
  182SOPE   H7X20847   4.417   6.158   7.225  0.8340  0.4805  1.2014
  182SOPE   H7Y20848   4.513   6.018   7.293  0.0433 -0.9179 -0.3238
  182SOPE   C3820849   4.312   6.031   7.374 -0.1456 -0.9700  0.0048
  182SOPE   H8X20850   4.292   5.922   7.378  0.5951 -1.2035 -1.7840
  182SOPE   H8Y20851   4.216   6.081   7.347  1.0129  1.7983  0.6692
  182SOPE   C3920852   4.358   6.096   7.501 -0.3719 -0.6730 -0.5004
  182SOPE   H9X20853   4.373   6.205   7.490 -0.5176 -0.8089 -2.1914
  182SOPE   H9Y20854   4.460   6.056   7.518 -0.0288  0.5284  0.4307
  182SOPE  C31020855   4.261   6.060   7.618  0.4855 -0.6506  0.4689
  182SOPE  H10X20856   4.230   5.954   7.605  1.9131 -0.8142 -2.2473
  182SOPE  H10Y20857   4.173   6.128   7.613 -0.0691 -1.4139 -0.4577
  182SOPE  C31120858   4.330   6.076   7.754  0.6514  0.4990 -0.5329
  182SOPE  H11X20859   4.384   6.173   7.749 -0.8364  1.3585 -0.3973
  182SOPE  H11Y20860   4.400   5.990   7.761  0.6610  0.3798 -1.8056
  182SOPE  C31220861   4.230   6.080   7.868 -0.1673  0.7708 -0.3971
  182SOPE  H12X20862   4.172   5.986   7.862  1.8409 -0.8485  3.0191
  182SOPE  H12Y20863   4.171   6.174   7.857  0.2154  1.0578 -0.0046
  182SOPE  C31320864   4.307   6.081   8.003 -0.4844 -0.2554  0.4754
  182SOPE  H13X20865   4.358   6.179   8.011  3.0063 -1.7255 -1.3658
  182SOPE  H13Y20866   4.389   6.006   7.999 -0.8730 -0.6495 -2.2287
  182SOPE  C31420867   4.221   6.064   8.127 -0.3178  0.4809  0.4429
  182SOPE  H14X20868   4.196   5.956   8.127 -1.2868  0.6855  1.7183
  182SOPE  H14Y20869   4.123   6.114   8.121 -0.3140  0.5066  0.5891
  182SOPE  C31520870   4.287   6.103   8.261  0.4102 -0.1853  0.1592
  182SOPE  H15X20871   4.232   6.064   8.350 -0.1780 -0.6624 -0.3956
  182SOPE  H15Y20872   4.294   6.213   8.265 -1.1198 -0.1005  1.2147
  182SOPE  C31620873   4.437   6.058   8.280 -0.2367  0.1512 -0.8380
  182SOPE  H16X20874   4.504   6.123   8.221  1.5588 -2.3363 -1.7208
  182SOPE  H16Y20875   4.454   5.954   8.244  1.1121 -0.1735  0.6578
  182SOPE  C31720876   4.479   6.063   8.427 -1.1328  0.0857 -0.4251
  182SOPE  H17X20877   4.431   5.979   8.481  1.4904  0.0591  2.1617
  182SOPE  H17Y20878   4.434   6.157   8.467 -1.4663 -0.1318 -0.2859
  182SOPE  C31820879   4.633   6.054   8.457  0.4672  0.0698 -0.1402
  182SOPE  H18X20880   4.668   5.955   8.422 -3.0312 -2.1099  1.8925
  182SOPE  H18Y20881   4.656   6.057   8.566  2.5192 -1.0934 -0.4931
  182SOPE  H18Z20882   4.683   6.138   8.405  0.8284  0.4966  0.8749
  183SOPE     N20883   6.392   3.714   6.253 -0.1220 -0.1747  0.1180
  183SOPE   HN120884   6.496   3.717   6.241 -0.0074 -2.4059  0.1046
  183SOPE   HN220885   6.366   3.693   6.351 -0.2223  1.5224  0.4969
  183SOPE   HN320886   6.361   3.635   6.194 -1.4159  1.3040 -1.2696
  183SOPE   C1220887   6.322   3.851   6.230 -0.4908 -0.0335  0.6056
  183SOPE  H12A20888   6.217   3.841   6.266 -0.4249 -1.1517  0.5328
  183SOPE  H12B20889   6.308   3.874   6.122 -0.5853 -0.2617  0.5688
  183SOPE   C1120890   6.399   3.971   6.285 -0.1224  0.6744  0.6340
  183SOPE  H11A20891   6.417   3.953   6.393 -1.9755 -0.0116  0.8671
  183SOPE  H11B20892   6.323   4.052   6.275  0.1576  1.3785  3.4021
  183SOPE     P20893   6.653   3.944   6.242 -0.0366  0.4407  0.0911
  183SOPE   O1320894   6.765   4.021   6.185 -0.1401  0.2939 -0.3374
  183SOPE   O1420895   6.646   3.801   6.205 -0.4454  0.3207  0.3279
  183SOPE   O1220896   6.514   4.016   6.211 -0.2966 -0.1552  0.5139
  183SOPE   O1120897   6.652   3.968   6.393  0.7554  0.4189 -0.2810
  183SOPE    C120898   6.694   3.868   6.486 -0.0680 -0.1506 -0.2074
  183SOPE    HA20899   6.792   3.827   6.451 -0.3334 -1.0871  0.1366
  183SOPE    HB20900   6.633   3.775   6.478  1.5647 -1.2950  0.1040
  183SOPE    C220901   6.703   3.912   6.637  0.1495  0.0610  0.0697
  183SOPE    HS20902   6.743   3.821   6.687  0.9011  1.2217  1.6692
  183SOPE   O2120903   6.566   3.946   6.674 -0.4548  0.1193 -0.4125
  183SOPE   C2120904   6.491   3.847   6.723  1.1025 -0.1272  0.1340
  183SOPE   O2220905   6.521   3.733   6.743 -0.7736  0.4477  0.0623
  183SOPE   C2220906   6.356   3.907   6.761  0.2293  0.3959 -0.0373
  183SOPE   H2R20907   6.283   3.828   6.790  0.0062 -0.3957 -2.5554
  183SOPE   H2S20908   6.330   3.962   6.668 -1.0127 -0.3995 -0.1836
  183SOPE    C320909   6.811   4.026   6.659 -0.0522  0.5605 -0.0692
  183SOPE    HX20910   6.766   4.117   6.613  1.5360  1.3170 -0.2098
  183SOPE    HY20911   6.904   4.011   6.601 -1.0750  0.2841 -1.6954
  183SOPE   O3120912   6.828   4.047   6.802  0.7401 -0.6573 -0.2314
  183SOPE   C3120913   6.906   3.964   6.861  0.2110  0.5251  0.2253
  183SOPE   O3220914   6.937   3.853   6.814 -0.1313 -0.3026 -0.7686
  183SOPE   C3220915   6.958   4.021   6.990 -0.1298  0.2678 -0.2983
  183SOPE   H2X20916   6.915   4.121   7.014 -0.4536  0.2121 -0.6339
  183SOPE   H2Y20917   7.066   4.045   6.980 -0.7086  2.4342 -2.5160
  183SOPE   C2320918   6.384   4.000   6.883 -0.3813  0.2336 -0.0731
  183SOPE   H3R20919   6.468   4.063   6.849 -0.1207 -1.6325 -3.2519
  183SOPE   H3S20920   6.413   3.933   6.967 -1.5531  1.1502  1.1079
  183SOPE   C2420921   6.264   4.094   6.908 -0.0347 -0.4316  0.2094
  183SOPE   H4R20922   6.237   4.150   6.817 -1.5106 -1.8063 -0.2356
  183SOPE   H4S20923   6.170   4.045   6.940 -0.7181 -0.1413 -1.3134
  183SOPE   C2520924   6.287   4.211   7.007 -0.3169 -0.0862  0.7130
  183SOPE   H5R20925   6.314   4.174   7.108 -1.3801 -1.7193  0.4262
  183SOPE   H5S20926   6.367   4.275   6.964 -0.9156 -0.1359 -0.5055
  183SOPE   C2620927   6.168   4.301   7.032 -0.1885 -0.0573 -0.2833
  183SOPE   H6R20928   6.118   4.312   6.934 -0.1821 -1.5326 -0.4746
  183SOPE   H6S20929   6.090   4.256   7.097  0.6761 -1.0776  0.0664
  183SOPE   C2720930   6.216   4.430   7.099  0.0390  0.2014 -1.2867
  183SOPE   H7R20931   6.305   4.461   7.040  1.8721 -2.5042 -0.1371
  183SOPE   H7S20932   6.143   4.512   7.090  0.7795  1.4485  2.5099
  183SOPE   C2820933   6.263   4.437   7.251  0.7906 -0.3994 -0.6495
  183SOPE   H8R20934   6.345   4.363   7.262  0.6999 -0.6242 -1.4302
  183SOPE   H8S20935   6.316   4.535   7.248  2.3422 -1.2486 -2.2997
  183SOPE   C2920936   6.148   4.428   7.344  0.5509 -0.4970  0.1227
  183SOPE   H9120937   6.071   4.357   7.310  1.2123 -2.0304  1.6827
  183SOPE  C21020938   6.142   4.507   7.452  1.0771 -0.1192  0.1470
  183SOPE  H10120939   6.048   4.494   7.508  0.8715 -2.6460 -0.6390
  183SOPE  C21120940   6.243   4.607   7.494 -0.8311 -0.8407 -0.5374
  183SOPE  H11R20941   6.228   4.687   7.419  4.0779 -0.3398 -1.3294
  183SOPE  H11S20942   6.347   4.569   7.483 -0.0732 -0.1980  2.9001
  183SOPE  C21220943   6.223   4.681   7.628  0.3174  0.6548 -0.4922
  183SOPE  H12R20944   6.140   4.755   7.634 -0.9402 -0.7633  0.2952
  183SOPE  H12S20945   6.314   4.739   7.653 -0.2744  1.5300 -0.3204
  183SOPE  C21320946   6.207   4.591   7.752  0.2333 -0.5442 -0.3389
  183SOPE  H13R20947   6.274   4.503   7.745  0.1587 -0.6199 -0.1106
  183SOPE  H13S20948   6.099   4.563   7.749  0.0191  0.3089 -1.9961
  183SOPE  C21420949   6.226   4.678   7.878  0.1880  1.0793 -0.0072
  183SOPE  H14R20950   6.144   4.753   7.865 -1.8465 -0.4997  2.6937
  183SOPE  H14S20951   6.326   4.725   7.869  0.3671  0.4255 -1.9376
  183SOPE  C21520952   6.204   4.605   8.009 -0.4022 -0.1296 -0.0234
  183SOPE  H15R20953   6.228   4.667   8.098 -1.6227 -0.5441  0.6244
  183SOPE  H15S20954   6.270   4.516   8.012 -1.4836 -0.9435  1.4036
  183SOPE  C21620955   6.062   4.565   8.025 -0.0095  0.1929  0.4567
  183SOPE  H16R20956   6.028   4.498   7.944 -0.9970  1.0910  0.1029
  183SOPE  H16S20957   5.996   4.653   8.013 -0.8445 -0.4746  0.0324
  183SOPE  C21720958   6.025   4.496   8.156 -0.0135 -0.0374 -0.3727
  183SOPE  H17R20959   6.064   4.555   8.242 -0.0508  0.8543 -0.9628
  183SOPE  H17S20960   6.080   4.399   8.152  0.7158  0.3762 -0.6034
  183SOPE  C21820961   5.880   4.475   8.186  0.6196  1.1193  0.1415
  183SOPE  H18R20962   5.863   4.424   8.283  0.9548 -0.6043 -0.6627
  183SOPE  H18S20963   5.837   4.416   8.102  1.6894  1.6149 -0.7743
  183SOPE  H18T20964   5.833   4.575   8.185 -0.6216  0.5599 -1.2967
  183SOPE   C3320965   6.921   3.917   7.106  0.1293  0.0475  0.2588
  183SOPE   H3X20966   6.933   3.809   7.079 -0.3133  0.0655 -0.0192
  183SOPE   H3Y20967   6.815   3.925   7.140  0.2521 -0.9941  0.9557
  183SOPE   C3420968   7.016   3.952   7.230  0.0939  0.4182  0.5709
  183SOPE   H4X20969   7.003   4.061   7.245 -1.7672  0.2800  0.2683
  183SOPE   H4Y20970   7.125   3.939   7.215 -0.1253  0.4467 -1.3437
  183SOPE   C3520971   6.957   3.893   7.360  0.0947  0.1235 -0.7672
  183SOPE   H5X20972   6.984   3.785   7.368 -4.1432 -1.0198  0.5575
  183SOPE   H5Y20973   6.847   3.893   7.375  0.3009 -1.1330  1.1818
  183SOPE   C3620974   7.015   3.963   7.493 -1.0016 -1.0191  0.2811
  183SOPE   H6X20975   6.994   4.071   7.479  1.0823 -0.4834  0.9930
  183SOPE   H6Y20976   7.125   3.970   7.493 -1.1244  2.6367  0.4926
  183SOPE   C3720977   6.970   3.908   7.627  0.0390  0.2643  0.5550
  183SOPE   H7X20978   6.985   3.798   7.621  0.1039  0.2682  0.6423
  183SOPE   H7Y20979   6.859   3.911   7.629 -0.0704  1.3716 -2.2104
  183SOPE   C3820980   7.037   3.980   7.746  0.2693 -0.1817 -0.3932
  183SOPE   H8X20981   7.018   4.088   7.730 -1.1349 -0.1015  1.4946
  183SOPE   H8Y20982   7.146   3.959   7.744  0.3813  0.3408  0.1039
  183SOPE   C3920983   6.985   3.939   7.877  0.4725  0.3064  0.0032
  183SOPE   H9X20984   6.988   3.828   7.880  0.5336  0.3250  1.0220
  183SOPE   H9Y20985   6.882   3.972   7.899  0.6210  0.5962  0.2653
  183SOPE  C31020986   7.068   3.976   8.000 -0.3662  0.2363 -0.5861
  183SOPE  H10X20987   7.035   4.078   8.027  0.0182  0.2889 -0.2960
  183SOPE  H10Y20988   7.174   3.959   7.970 -0.2183  0.9305 -0.4693
  183SOPE  C31120989   7.051   3.889   8.131 -0.1190 -0.3379  0.3488
  183SOPE  H11X20990   7.029   3.786   8.096  1.7777 -0.5805 -0.2718
  183SOPE  H11Y20991   6.957   3.929   8.174 -0.7602 -2.7005  1.3157
  183SOPE  C31220992   7.173   3.903   8.224 -0.1554 -0.0802 -0.4187
  183SOPE  H12X20993   7.171   4.011   8.253 -0.5598 -0.2183  0.0898
  183SOPE  H12Y20994   7.264   3.890   8.162  1.0989  2.6595  0.6431
  183SOPE  C31320995   7.157   3.807   8.343 -0.4496 -0.0360  0.4227
  183SOPE  H13X20996   7.111   3.712   8.307 -0.3904  0.2802 -0.5163
  183SOPE  H13Y20997   7.081   3.862   8.401 -1.9174 -1.3098 -0.2231
  183SOPE  C31420998   7.287   3.798   8.431 -0.3979  0.1561 -0.1666
  183SOPE  H14X20999   7.317   3.889   8.489  0.5857 -0.5997  0.5470
  183SOPE  H14Y21000   7.373   3.778   8.364 -0.3179 -1.2649  0.3292
  183SOPE  C31521001   7.262   3.675   8.516 -0.1557  0.0686 -0.2848
  183SOPE  H15X21002   7.294   3.591   8.451 -0.6255  0.0686 -0.5201
  183SOPE  H15Y21003   7.155   3.656   8.538  0.1341 -0.6810  0.5027
  183SOPE  C31621004   7.357   3.669   8.634  0.3931 -0.4980  0.0284
  183SOPE  H16X21005   7.334   3.751   8.706 -1.2552 -0.1481 -0.8378
  183SOPE  H16Y21006   7.455   3.702   8.593  0.1228 -0.7646 -0.8387
  183SOPE  C31721007   7.388   3.538   8.699 -0.5066  0.4877 -0.4791
  183SOPE  H17X21008   7.466   3.563   8.773 -0.3374  0.5951 -0.6909
  183SOPE  H17Y21009   7.423   3.474   8.615 -0.8895  0.5683 -0.7033
  183SOPE  C31821010   7.274   3.473   8.771  0.2285 -0.5373 -0.0810
  183SOPE  H18X21011   7.297   3.371   8.807  1.4777 -0.1437  0.3141
  183SOPE  H18Y21012   7.191   3.451   8.701 -0.5076 -0.8617  0.8764
  183SOPE  H18Z21013   7.242   3.537   8.857  0.0051 -1.3413  0.4387
  184SOPE     N21014   4.435   3.995   6.001  1.0650 -0.0893  0.3595
  184SOPE   HN121015   4.462   4.094   5.982  1.7197 -0.2923  0.2228
  184SOPE   HN221016   4.354   3.983   6.065  0.0905  1.4305 -0.5187
  184SOPE   HN321017   4.517   3.955   6.051  0.8338 -0.6874  0.2585
  184SOPE   C1221018   4.409   3.929   5.873  0.2133  0.7966  0.1226
  184SOPE  H12A21019   4.504   3.918   5.816  0.4877  0.2300  0.6746
  184SOPE  H12B21020   4.338   3.991   5.815  2.9064  2.0143 -2.1309
  184SOPE   C1121021   4.341   3.791   5.890  0.2110  0.2214  0.2107
  184SOPE  H11A21022   4.354   3.748   5.789  0.7317 -0.0352  0.3843
  184SOPE  H11B21023   4.235   3.810   5.920 -0.1829  0.6360 -1.3647
  184SOPE     P21024   4.382   3.561   5.992 -0.2199 -0.1652 -0.0171
  184SOPE   O1321025   4.457   3.481   5.892  0.4790 -0.0353 -0.0755
  184SOPE   O1421026   4.236   3.547   5.996 -0.4743  0.1057  0.2599
  184SOPE   O1221027   4.419   3.714   5.986 -0.2546 -0.1030  0.9413
  184SOPE   O1121028   4.447   3.518   6.131  0.0973  0.2076  0.0884
  184SOPE    C121029   4.435   3.613   6.236 -0.1646 -0.0171  0.0435
  184SOPE    HA21030   4.337   3.667   6.234 -0.4081 -0.4487 -1.4247
  184SOPE    HB21031   4.522   3.682   6.233  1.0575 -1.4597  1.1808
  184SOPE    C221032   4.439   3.548   6.374 -0.4790 -0.5344 -0.3824
  184SOPE    HS21033   4.457   3.629   6.448 -1.0207 -1.4009  0.7236
  184SOPE   O2121034   4.549   3.456   6.377 -0.7129 -0.5466 -0.1505
  184SOPE   C2121035   4.615   3.434   6.499 -0.4713  0.2068 -0.0598
  184SOPE   O2221036   4.596   3.510   6.594 -0.7276  0.2241  0.0347
  184SOPE   C2221037   4.708   3.316   6.490 -0.4961 -0.1721 -0.0425
  184SOPE   H2R21038   4.813   3.347   6.505 -0.0537 -0.1898 -2.7095
  184SOPE   H2S21039   4.700   3.282   6.384 -4.0438  1.4167 -0.4332
  184SOPE    C321040   4.312   3.465   6.406  0.2975  0.1097  0.8935
  184SOPE    HX21041   4.308   3.381   6.334  0.8239 -0.0162  1.0107
  184SOPE    HY21042   4.226   3.524   6.367  0.5641 -1.1219 -1.7731
  184SOPE   O3121043   4.301   3.418   6.539  0.0163  0.0159 -0.7014
  184SOPE   C3121044   4.270   3.512   6.631  0.1421 -0.6998  0.1246
  184SOPE   O3221045   4.238   3.624   6.601  0.4191  0.2964 -0.0661
  184SOPE   C3221046   4.272   3.461   6.774  1.1448 -0.8413 -0.7483
  184SOPE   H2X21047   4.355   3.388   6.785 -0.4391 -2.4797  1.0207
  184SOPE   H2Y21048   4.177   3.407   6.794  2.4014 -2.7594  0.4281
  184SOPE   C2321049   4.671   3.183   6.571  0.6497  0.4477  0.8273
  184SOPE   H3R21050   4.750   3.113   6.536 -1.2280 -0.2970 -2.3534
  184SOPE   H3S21051   4.574   3.146   6.531  0.6207 -0.2733  1.5562
  184SOPE   C2421052   4.661   3.193   6.725  0.0026 -0.0340  0.4558
  184SOPE   H4R21053   4.756   3.243   6.754  0.4077 -1.3957  1.5951
  184SOPE   H4S21054   4.570   3.252   6.747  0.2788  0.3831  0.4980
  184SOPE   C2521055   4.654   3.056   6.790  0.1751  0.2528 -0.2211
  184SOPE   H5R21056   4.546   3.032   6.796  0.1690  0.4317  0.5076
  184SOPE   H5S21057   4.714   2.979   6.736  0.9355  0.9776 -0.4346
  184SOPE   C2621058   4.708   3.067   6.937 -0.2513 -0.6493 -0.0009
  184SOPE   H6R21059   4.791   3.141   6.941 -0.1384 -0.6047 -2.2347
  184SOPE   H6S21060   4.617   3.116   6.977  0.3307  2.3475 -2.0203
  184SOPE   C2721061   4.746   2.928   6.991 -0.3525  0.3447  0.2023
  184SOPE   H7R21062   4.658   2.860   7.000  0.5974 -1.1590 -1.3136
  184SOPE   H7S21063   4.815   2.872   6.924  0.5323 -0.0217  1.3761
  184SOPE   C2821064   4.814   2.954   7.132  0.3618 -0.2355  0.0493
  184SOPE   H8R21065   4.902   3.020   7.121 -1.0325  1.1883 -5.2791
  184SOPE   H8S21066   4.731   3.008   7.183  1.8433  1.6636  0.5326
  184SOPE   C2921067   4.848   2.827   7.200 -0.8926 -0.1233  0.5805
  184SOPE   H9121068   4.841   2.737   7.138 -1.2433  0.4461 -0.2338
  184SOPE  C21021069   4.886   2.818   7.329  0.0516  0.3365 -0.2350
  184SOPE  H10121070   4.910   2.722   7.377  0.7318  1.0284  0.8492
  184SOPE  C21121071   4.897   2.930   7.435 -0.3412  0.1751  0.0335
  184SOPE  H11R21072   4.927   3.029   7.393  0.2457 -0.3113 -0.7089
  184SOPE  H11S21073   4.978   2.899   7.503 -0.4196  0.8770  0.4536
  184SOPE  C21221074   4.775   2.959   7.523  0.9176 -0.5066  0.4069
  184SOPE  H12R21075   4.698   2.998   7.454  0.9462 -1.4744 -0.1830
  184SOPE  H12S21076   4.801   3.051   7.581  0.2190 -0.2067  0.2435
  184SOPE  C21321077   4.721   2.844   7.606  0.1956 -0.1884  0.7093
  184SOPE  H13R21078   4.802   2.808   7.673 -0.0466 -0.2014  0.9990
  184SOPE  H13S21079   4.702   2.761   7.534 -0.5133  1.1852 -0.7618
  184SOPE  C21421080   4.594   2.873   7.686 -0.4703 -0.8815 -0.2037
  184SOPE  H14R21081   4.508   2.852   7.619 -2.1735  0.3799  1.5157
  184SOPE  H14S21082   4.599   2.981   7.710  1.5362 -0.7104 -1.1365
  184SOPE  C21521083   4.588   2.798   7.825 -0.9887 -1.2868  0.2551
  184SOPE  H15R21084   4.604   2.689   7.806 -0.2162 -1.6544  2.6464
  184SOPE  H15S21085   4.490   2.812   7.875 -0.4190  3.2722  0.4523
  184SOPE  C21621086   4.685   2.857   7.928 -0.2171 -0.4673  0.0083
  184SOPE  H16R21087   4.667   2.964   7.951  3.8109  0.2415  0.7458
  184SOPE  H16S21088   4.790   2.859   7.890  1.0252  0.5654  3.1738
  184SOPE  C21721089   4.687   2.776   8.062 -0.5913  0.5974 -0.3843
  184SOPE  H17R21090   4.742   2.681   8.050 -0.1506  0.8946 -0.7393
  184SOPE  H17S21091   4.582   2.748   8.088 -0.0858 -0.8608  0.1934
  184SOPE  C21821092   4.748   2.849   8.178  0.3869  0.2821 -0.7186
  184SOPE  H18R21093   4.688   2.941   8.194 -0.1844 -0.1621 -0.2755
  184SOPE  H18S21094   4.853   2.880   8.156  1.2326  0.1513  2.4959
  184SOPE  H18T21095   4.761   2.793   8.274  1.0674  0.1655 -0.8733
  184SOPE   C3321096   4.315   3.556   6.892 -0.0625 -0.5474 -0.4666
  184SOPE   H3X21097   4.227   3.615   6.926 -0.5371 -0.3436 -2.0099
  184SOPE   H3Y21098   4.389   3.630   6.855 -0.9233 -0.0432 -1.2004
  184SOPE   C3421099   4.385   3.487   7.009 -0.4193  0.1656  0.1928
  184SOPE   H4X21100   4.320   3.424   7.073  1.7085 -1.0557  1.2234
  184SOPE   H4Y21101   4.411   3.570   7.078  0.8016  0.3100 -0.4108
  184SOPE   C3521102   4.524   3.418   6.967  0.6419 -0.1849  0.4749
  184SOPE   H5X21103   4.554   3.484   6.882  0.4997 -1.5986 -0.7143
  184SOPE   H5Y21104   4.502   3.316   6.928  1.2031 -1.2045  2.6576
  184SOPE   C3621105   4.619   3.418   7.089 -0.4239  0.0660  0.0367
  184SOPE   H6X21106   4.634   3.520   7.131  2.0283 -0.8383  1.5670
  184SOPE   H6Y21107   4.712   3.360   7.071 -1.2397 -1.2955  0.0662
  184SOPE   C3721108   4.554   3.347   7.216 -0.1246  1.0473 -0.5299
  184SOPE   H7X21109   4.502   3.257   7.177  2.0452  0.4719 -2.2802
  184SOPE   H7Y21110   4.482   3.414   7.268 -0.8234 -0.3504  0.3440
  184SOPE   C3821111   4.665   3.318   7.322  0.5557  0.3133 -0.2651
  184SOPE   H8X21112   4.746   3.249   7.291 -1.2708 -2.6372  1.0938
  184SOPE   H8Y21113   4.604   3.266   7.399 -2.0160  2.1142 -0.9476
  184SOPE   C3921114   4.724   3.442   7.380  0.1748 -0.6441 -0.7450
  184SOPE   H9X21115   4.641   3.510   7.409 -0.2251 -1.0857 -0.8438
  184SOPE   H9Y21116   4.793   3.501   7.315  1.8445 -1.3156  0.3333
  184SOPE  C31021117   4.810   3.412   7.504 -0.1052  0.1024  0.3951
  184SOPE  H10X21118   4.846   3.511   7.538  0.4121  0.2885 -0.6398
  184SOPE  H10Y21119   4.902   3.357   7.473 -0.7597  0.4069 -2.3447
  184SOPE  C31121120   4.737   3.338   7.609 -0.7186  0.8245  0.1618
  184SOPE  H11X21121   4.705   3.239   7.571 -1.7834  0.4407  1.9404
  184SOPE  H11Y21122   4.649   3.399   7.638 -0.7835  0.1824  1.3836
  184SOPE  C31221123   4.834   3.329   7.731 -0.2179 -0.1083 -0.6777
  184SOPE  H12X21124   4.873   3.428   7.760  1.8475 -0.8467 -0.7920
  184SOPE  H12Y21125   4.924   3.271   7.701  0.6294 -0.0869  1.5793
  184SOPE  C31321126   4.781   3.281   7.871 -0.1479 -0.6910 -0.3349
  184SOPE  H13X21127   4.863   3.275   7.945 -0.0667  1.7969 -0.1419
  184SOPE  H13Y21128   4.747   3.175   7.861  0.2877 -0.9040  0.3918
  184SOPE  C31421129   4.670   3.370   7.926 -0.4360 -0.0449  0.2894
  184SOPE  H14X21130   4.604   3.396   7.840  2.3231  0.2173 -1.8810
  184SOPE  H14Y21131   4.702   3.473   7.955  1.5562  0.2117 -2.4073
  184SOPE  C31521132   4.602   3.304   8.048 -0.0511 -0.3511 -0.0114
  184SOPE  H15X21133   4.565   3.206   8.011  1.3850 -0.0715 -2.3703
  184SOPE  H15Y21134   4.504   3.345   8.080  0.2140  0.7760 -0.5916
  184SOPE  C31621135   4.686   3.287   8.173 -0.1924 -0.4333 -0.2505
  184SOPE  H16X21136   4.723   3.388   8.201 -0.2812  0.3261 -2.6465
  184SOPE  H16Y21137   4.770   3.216   8.170  1.2597  1.2201 -0.3154
  184SOPE  C31721138   4.593   3.250   8.291  0.0787  0.2552  0.2316
  184SOPE  H17X21139   4.540   3.157   8.263  2.3937 -0.6552 -1.4513
  184SOPE  H17Y21140   4.518   3.329   8.315 -0.3890 -0.1662  0.1629
  184SOPE  C31821141   4.672   3.227   8.414 -0.1146 -0.8295 -0.5047
  184SOPE  H18X21142   4.738   3.139   8.397 -0.1545 -0.8037 -0.7966
  184SOPE  H18Y21143   4.613   3.204   8.505 -0.5390 -0.7931 -0.7660
  184SOPE  H18Z21144   4.738   3.313   8.437 -2.0652  1.1574 -1.8753
  185SAPI   C1221145   2.519   6.273  11.115  0.5048 -0.3172 -0.9598
  185SAPI    H221146   2.471   6.191  11.172 -0.7781  2.3031  2.0620
  185SAPI    O221147   2.492   6.393  11.191 -0.1168  0.3080  0.3394
  185SAPI   HO221148   2.455   6.376  11.277  1.1199 -1.7064  0.5317
  185SAPI   C1321149   2.671   6.246  11.115 -0.4017 -0.4034  0.8496
  185SAPI    H321150   2.680   6.152  11.057 -0.5561 -0.1600  0.4248
  185SAPI    O321151   2.709   6.204  11.243  0.3354  0.2139  0.0990
  185SAPI   HO321152   2.755   6.276  11.287  0.6428 -0.4038  0.8120
  185SAPI   C1421153   2.746   6.359  11.051 -0.9144  0.4604 -0.1276
  185SAPI    H421154   2.720   6.454  11.103 -0.7249  1.5862 -2.0182
  185SAPI    O421155   2.884   6.344  11.064 -0.6583  0.7529  0.2330
  185SAPI   HO421156   2.914   6.254  11.055 -2.2142  0.3546 -1.6685
  185SAPI   C1521157   2.702   6.371  10.912 -0.3145 -0.2995  0.3637
  185SAPI    H521158   2.742   6.283  10.856  2.9573  0.7742  0.7890
  185SAPI    O521159   2.766   6.479  10.839  0.0283 -0.0628  0.0587
  185SAPI   HO521160   2.686   6.514  10.800  0.3824 -1.2470 -1.8391
  185SAPI   C1621161   2.552   6.383  10.902  0.0438 -0.2630  0.7732
  185SAPI    H621162   2.531   6.484  10.943  1.5026 -0.6174  2.5320
  185SAPI    O621163   2.503   6.396  10.768  0.0545  0.7366  0.2270
  185SAPI   HO621164   2.409   6.383  10.782  0.1854 -2.0751 -0.8739
  185SAPI   C1121165   2.475   6.276  10.975 -0.0266 -0.1881 -0.4085
  185SAPI    H121166   2.516   6.179  10.939  1.5081 -0.7890  2.6533
  185SAPI     P21167   2.244   6.153  10.897  0.4934  0.3967  0.0753
  185SAPI   O1321168   2.100   6.163  10.934 -0.0484  0.3704 -0.1566
  185SAPI   O1421169   2.308   6.029  10.940 -0.3448  0.5531  0.4593
  185SAPI   O1221170   2.330   6.281  10.965 -0.1653  0.5392  0.0640
  185SAPI   O1121171   2.253   6.164  10.742 -0.2638  0.2931  0.7578
  185SAPI    C121172   2.366   6.096  10.683 -0.2175 -0.0340 -0.2160
  185SAPI    HA21173   2.462   6.153  10.689 -0.6882  0.6018  2.2910
  185SAPI    HB21174   2.382   5.994  10.725  0.3226  0.8342  1.7588
  185SAPI    C221175   2.337   6.075  10.532  1.2211  0.2369  0.0931
  185SAPI    HS21176   2.414   6.012  10.483 -1.2071 -1.5412 -1.7600
  185SAPI   O2121177   2.333   6.202  10.460 -0.1323  0.2088  0.0900
  185SAPI   C2121178   2.455   6.253  10.431  0.1132  0.0530  0.2106
  185SAPI   O2221179   2.559   6.196  10.452 -0.2926  0.2580 -0.1532
  185SAPI   C2221180   2.436   6.391  10.369  0.1365 -1.0792  0.3355
  185SAPI   H2R21181   2.330   6.416  10.348  0.8035  0.8927 -1.0059
  185SAPI   H2S21182   2.497   6.456  10.436  1.6825 -1.6473 -0.4798
  185SAPI    C321183   2.193   6.006  10.509  0.2001 -0.4890 -0.7575
  185SAPI    HX21184   2.118   6.082  10.541 -1.2387 -1.5110 -1.6111
  185SAPI    HY21185   2.178   5.918  10.575 -0.2322  1.1387  1.4645
  185SAPI   O3121186   2.163   5.972  10.371  0.3454 -0.3900  0.4572
  185SAPI   C3121187   2.220   5.859  10.326 -0.0812 -0.8945  0.4962
  185SAPI   O3221188   2.267   5.773  10.397  0.0414  0.5075 -0.0983
  185SAPI   C3221189   2.194   5.850  10.177  0.3691  0.0356 -0.0161
  185SAPI   H2X21190   2.238   5.940  10.128  2.4959 -0.9104  0.0151
  185SAPI   H2Y21191   2.084   5.838  10.172  0.5017 -1.9134  0.8167
  185SAPI   C2321192   2.510   6.384  10.224 -0.2772  0.4525  0.1135
  185SAPI   H3R21193   2.617   6.368  10.251 -1.0483 -0.9231  2.6703
  185SAPI   H3S21194   2.491   6.484  10.180 -2.9989 -0.4227 -0.9079
  185SAPI   C2421195   2.463   6.278  10.129  0.2589 -0.5309  0.1470
  185SAPI   H4R21196   2.452   6.174  10.166 -0.6047 -0.0929  1.1877
  185SAPI   H4S21197   2.538   6.261  10.050  0.2194 -0.4595  0.0940
  185SAPI   C2521198   2.328   6.331  10.066  0.1256  0.3794 -0.4568
  185SAPI   H5R21199   2.260   6.359  10.148  1.4624  1.1156  0.4388
  185SAPI   C2621200   2.287   6.334   9.940  0.0975  0.6234 -0.0213
  185SAPI   H6R21201   2.190   6.383   9.922  0.1378  0.7576  0.1212
  185SAPI   C2721202   2.358   6.296   9.815 -0.3988  0.3932 -0.7841
  185SAPI   H7R21203   2.294   6.309   9.725  0.7758  0.6000 -1.6161
  185SAPI   H7S21204   2.390   6.190   9.821 -2.2643 -0.1367  0.6976
  185SAPI   C2821205   2.476   6.386   9.783  0.3966  0.0999 -0.0921
  185SAPI   H8R21206   2.524   6.434   9.869  0.2487 -1.6448  1.0128
  185SAPI   C2921207   2.536   6.401   9.661 -0.8003  0.1710 -0.4003
  185SAPI   H9R21208   2.622   6.469   9.648 -2.1243  1.8553 -0.6724
  185SAPI  C21021209   2.491   6.324   9.535  0.0001 -1.0871  0.3344
  185SAPI  H10R21210   2.445   6.225   9.555  1.8309 -1.5913  2.3579
  185SAPI  H10S21211   2.572   6.294   9.464  1.0540  0.2300  0.9371
  185SAPI  C21121212   2.396   6.405   9.453 -0.0026 -0.7354  0.4095
  185SAPI  H11R21213   2.302   6.442   9.496  0.6294 -0.1106  1.3012
  185SAPI  C21221214   2.409   6.443   9.326  0.3891 -0.2960  0.1027
  185SAPI  H12R21215   2.322   6.497   9.287 -0.1064 -1.4686 -0.4575
  185SAPI  C21321216   2.518   6.416   9.226  0.3606 -0.4996 -0.4865
  185SAPI  H13R21217   2.615   6.410   9.281 -1.0732 -1.7913  2.0614
  185SAPI  H13S21218   2.520   6.499   9.153  2.7661 -1.1615 -1.2560
  185SAPI  C21421219   2.489   6.283   9.165  0.4182  0.2340  0.3895
  185SAPI  H14R21220   2.461   6.206   9.239  0.6546 -0.0897  0.1446
  185SAPI  C21521221   2.483   6.252   9.035  0.0710 -0.3072 -0.0849
  185SAPI  H15R21222   2.464   6.146   9.009  1.8293 -0.3864 -1.1716
  185SAPI  C21621223   2.496   6.345   8.916  0.0789  0.4217  0.3066
  185SAPI  H16R21224   2.481   6.453   8.936 -0.9863  0.3252  0.0906
  185SAPI  H16S21225   2.425   6.324   8.833  0.6206  2.7132 -0.8064
  185SAPI  C21721226   2.650   6.325   8.878  0.2202  0.4741  0.2491
  185SAPI  H17R21227   2.673   6.221   8.847 -0.2566  0.8159 -1.3732
  185SAPI  H17S21228   2.714   6.350   8.965  0.5645  0.6001 -0.0378
  185SAPI  C21821229   2.694   6.412   8.759  0.3172 -0.2482 -0.8521
  185SAPI  H18R21230   2.804   6.405   8.769  0.3055  0.4159 -0.2261
  185SAPI  H18S21231   2.655   6.514   8.778 -2.2036 -1.2682 -0.1332
  185SAPI  C21921232   2.636   6.358   8.632  0.5945  0.0775  0.6365
  185SAPI  H19R21233   2.525   6.345   8.633  0.6477 -0.4050  0.8495
  185SAPI  H19S21234   2.676   6.255   8.623 -0.6534 -0.3297 -0.6785
  185SAPI  C22021235   2.684   6.431   8.506 -0.1497  0.6083 -0.4686
  185SAPI  H20R21236   2.793   6.451   8.508 -0.3947  2.2379  2.9264
  185SAPI  H20S21237   2.641   6.533   8.507  1.0373  1.1281  0.7501
  185SAPI  H20T21238   2.646   6.375   8.418  0.3965 -0.8786  0.2000
  185SAPI   C3321239   2.271   5.721  10.129 -0.5367 -0.3220  0.1179
  185SAPI   H3X21240   2.222   5.634  10.175 -1.2203  0.5660  1.1072
  185SAPI   H3Y21241   2.372   5.735  10.175 -1.0004  1.2495  0.7300
  185SAPI   C3421242   2.289   5.705   9.977  0.3608  0.3282  0.7199
  185SAPI   H4X21243   2.374   5.641   9.947 -0.2355  0.6914 -1.9502
  185SAPI   H4Y21244   2.317   5.807   9.943 -1.1475  0.5959  0.2177
  185SAPI   C3521245   2.167   5.649   9.900 -0.2467 -0.1895 -0.0128
  185SAPI   H5X21246   2.075   5.702   9.935  0.4413  2.7194 -2.2801
  185SAPI   H5Y21247   2.157   5.539   9.910 -0.2118 -0.0480  2.2648
  185SAPI   C3621248   2.186   5.693   9.761 -0.0962  0.2032 -0.0150
  185SAPI   H6X21249   2.279   5.650   9.717 -0.1742  0.6268 -0.6179
  185SAPI   H6Y21250   2.207   5.799   9.737  2.4292  0.0001  0.9595
  185SAPI   C3721251   2.067   5.656   9.677 -0.1385 -0.4599 -0.8540
  185SAPI   H7X21252   1.987   5.728   9.702 -2.0564 -2.4103 -1.0709
  185SAPI   H7Y21253   2.038   5.552   9.706 -0.9232  0.6919  3.1188
  185SAPI   C3821254   2.099   5.657   9.526 -0.6154 -0.6161  0.2666
  185SAPI   H8X21255   2.180   5.582   9.516  0.7068  0.3512  2.6860
  185SAPI   H8Y21256   2.133   5.754   9.483 -1.5420 -1.7698 -3.4710
  185SAPI   C3921257   1.986   5.599   9.430  0.1811 -0.2821 -0.2814
  185SAPI   H9X21258   1.972   5.489   9.437 -1.7576 -0.1551 -1.4593
  185SAPI   H9Y21259   2.017   5.623   9.326 -1.4101  2.1314 -0.2737
  185SAPI  C31021260   1.846   5.665   9.455 -0.2861 -0.7163 -0.1165
  185SAPI  H10X21261   1.861   5.764   9.503  1.3210 -1.3517  0.7865
  185SAPI  H10Y21262   1.793   5.611   9.536  1.3410 -0.9236  0.8570
  185SAPI  C31121263   1.773   5.685   9.326 -0.0100  0.2639  0.4783
  185SAPI  H11X21264   1.795   5.595   9.265 -1.0052  1.1722 -1.2770
  185SAPI  H11Y21265   1.810   5.781   9.286 -1.5132  0.8850  0.5193
  185SAPI  C31221266   1.620   5.681   9.340  0.3083 -0.1563 -0.0510
  185SAPI  H12X21267   1.591   5.574   9.346 -1.4040  0.3532  2.5949
  185SAPI  H12Y21268   1.556   5.728   9.263  0.0589 -0.1826  0.1367
  185SAPI  C31321269   1.569   5.750   9.473  0.2542  0.1214  0.0785
  185SAPI  H13X21270   1.625   5.710   9.560 -0.9371  0.1452  0.8778
  185SAPI  H13Y21271   1.463   5.721   9.483  0.3098 -0.5060 -0.9637
  185SAPI  C31421272   1.570   5.903   9.473  0.5672  0.1611  0.1560
  185SAPI  H14X21273   1.498   5.957   9.408  1.1600  2.9127  1.6319
  185SAPI  H14Y21274   1.672   5.935   9.442  0.0381  2.6914  0.8130
  185SAPI  C31521275   1.571   5.949   9.621  0.2090  0.3658 -0.1311
  185SAPI  H15X21276   1.649   5.891   9.675  0.8548  0.0767 -1.3304
  185SAPI  H15Y21277   1.472   5.931   9.668 -0.4321 -0.8497 -1.8362
  185SAPI  C31621278   1.608   6.096   9.633  0.6378 -1.0288 -0.4401
  185SAPI  H16X21279   1.706   6.126   9.591  0.3286  1.5588  0.4858
  185SAPI  H16Y21280   1.615   6.135   9.737 -2.1495  3.2605 -1.6105
  185SAPI  C31721281   1.498   6.183   9.570  0.5282  0.4301  0.0686
  185SAPI  H17X21282   1.502   6.269   9.640  1.3074 -0.1015  0.6970
  185SAPI  H17Y21283   1.397   6.138   9.565  0.9232 -0.6854  1.5119
  185SAPI  C31821284   1.533   6.232   9.434 -0.2891  0.1138 -0.0309
  185SAPI  H18X21285   1.547   6.147   9.363 -0.0947 -1.3415  1.6919
  185SAPI  H18Y21286   1.610   6.313   9.426 -2.6822  2.4010 -1.6289
  185SAPI  H18Z21287   1.452   6.291   9.386  0.7463  0.2277 -1.7356
  186SAPI   C1221288   4.668   4.863  10.758 -0.1559 -0.0632 -0.2767
  186SAPI    H221289   4.591   4.938  10.730 -0.4295 -0.4487 -0.5624
  186SAPI    O221290   4.681   4.789  10.638 -0.3751 -0.0741 -0.5491
  186SAPI   HO221291   4.587   4.773  10.621 -1.6907  4.4485  0.9800
  186SAPI   C1321292   4.799   4.929  10.792  0.2081  0.4767 -0.4345
  186SAPI    H321293   4.790   4.981  10.890  0.0685  0.1057 -0.2490
  186SAPI    O321294   4.834   5.018  10.689  0.8475 -0.0863  0.1239
  186SAPI   HO321295   4.850   4.967  10.610 -0.1820  0.2784 -0.3345
  186SAPI   C1421296   4.907   4.824  10.809  0.1029 -0.3907 -0.1951
  186SAPI    H421297   4.934   4.774  10.713  0.8301  1.8324 -1.2187
  186SAPI    O421298   5.030   4.890  10.846 -0.5124  0.0635 -0.5994
  186SAPI   HO421299   5.066   4.923  10.763 -0.1507  2.1682  0.3370
  186SAPI   C1521300   4.866   4.716  10.906 -0.0316 -0.0635 -0.1057
  186SAPI    H521301   4.854   4.764  11.005 -1.9501  0.6359 -0.6294
  186SAPI    O521302   4.965   4.619  10.914 -0.1292  0.0914 -0.0603
  186SAPI   HO521303   4.956   4.569  10.832 -0.3354  0.9262 -0.5601
  186SAPI   C1621304   4.726   4.656  10.879 -0.7867  0.5312 -0.8569
  186SAPI    H621305   4.731   4.583  10.795 -0.0002 -0.5660  0.1165
  186SAPI    O621306   4.690   4.576  10.993 -0.1426  0.7440  0.2227
  186SAPI   HO621307   4.643   4.632  11.055 -1.6736 -0.7334  0.4664
  186SAPI   C1121308   4.624   4.764  10.864  1.1553  0.0039 -0.0003
  186SAPI    H121309   4.619   4.829  10.954  1.1241 -2.6990  2.0685
  186SAPI     P21310   4.361   4.790  10.828  0.2428 -0.0886  0.2940
  186SAPI   O1321311   4.377   4.911  10.910 -0.3918 -0.1145 -0.0791
  186SAPI   O1421312   4.242   4.708  10.851 -0.5907  0.1520  0.4988
  186SAPI   O1221313   4.494   4.703  10.832 -0.2764 -0.1889 -0.0922
  186SAPI   O1121314   4.346   4.837  10.681  0.1316 -0.0751 -0.0517
  186SAPI    C121315   4.347   4.755  10.563 -0.4244 -0.3558 -0.1482
  186SAPI    HA21316   4.428   4.678  10.565 -0.7495 -0.6957  0.0370
  186SAPI    HB21317   4.261   4.684  10.557 -0.5612 -0.3335  1.3019
  186SAPI    C221318   4.351   4.824  10.427  0.5025  0.0396 -0.6027
  186SAPI    HS21319   4.378   4.747  10.352  2.0925 -0.4329  0.4005
  186SAPI   O2121320   4.443   4.930  10.434 -1.3666 -0.0667 -0.0067
  186SAPI   C2121321   4.559   4.917  10.359 -0.0561  0.5034  1.5346
  186SAPI   O2221322   4.581   4.818  10.297 -0.6983 -0.2039  0.4592
  186SAPI   C2221323   4.645   5.038  10.369 -1.0383 -0.0862 -0.2585
  186SAPI   H2R21324   4.590   5.118  10.423  1.2732  0.9626  0.6671
  186SAPI   H2S21325   4.731   5.004  10.431 -0.2187  0.1273 -1.2604
  186SAPI    C321326   4.219   4.880  10.392 -1.0421 -0.2759 -0.5551
  186SAPI    HX21327   4.193   4.942  10.481 -1.8936  0.1152 -1.0562
  186SAPI    HY21328   4.137   4.805  10.382 -0.3983 -1.2833  1.2864
  186SAPI   O3121329   4.231   4.960  10.273 -0.6103 -0.7163  0.3455
  186SAPI   C3121330   4.210   5.093  10.280 -0.0437 -0.0201  0.4360
  186SAPI   O3221331   4.191   5.160  10.378  0.3669 -0.4409 -0.3587
  186SAPI   C3221332   4.210   5.160  10.141 -0.5612  0.9247  0.3030
  186SAPI   H2X21333   4.173   5.083  10.071  1.3064 -0.1091  0.3667
  186SAPI   H2Y21334   4.314   5.189  10.115  0.0449 -1.0297  0.3586
  186SAPI   C2321335   4.698   5.086  10.233  0.2675  0.2064  0.3326
  186SAPI   H3R21336   4.784   5.023  10.202 -0.4864 -1.1428  0.9167
  186SAPI   H3S21337   4.752   5.174  10.274  1.1132 -0.7721  1.3967
  186SAPI   C2421338   4.596   5.116  10.124  0.2588  1.0341 -0.0958
  186SAPI   H4R21339   4.521   5.185  10.170 -2.0852 -2.0089  0.9687
  186SAPI   H4S21340   4.527   5.032  10.102  2.2953 -1.3567  2.0702
  186SAPI   C2521341   4.652   5.183  10.003 -0.3370 -0.5369  0.6478
  186SAPI   H5R21342   4.719   5.267  10.026 -2.4126  1.3142  0.2960
  186SAPI   C2621343   4.632   5.141   9.873  0.1797 -0.3238 -0.6089
  186SAPI   H6R21344   4.671   5.208   9.794  1.7643 -0.2949  0.1632
  186SAPI   C2721345   4.532   5.040   9.821  0.0650  1.1254 -0.1232
  186SAPI   H7R21346   4.539   4.945   9.879  4.8321  0.6553 -1.0306
  186SAPI   H7S21347   4.557   5.006   9.718 -0.7273 -0.2737  0.1295
  186SAPI   C2821348   4.393   5.091   9.821 -1.3613 -0.4704 -0.2266
  186SAPI   H8R21349   4.381   5.170   9.896  0.8825 -0.0367 -0.2692
  186SAPI   C2921350   4.284   5.039   9.758  0.3708  0.4330  0.2418
  186SAPI   H9R21351   4.191   5.097   9.770 -0.1095 -0.6705  2.2681
  186SAPI  C21021352   4.296   4.923   9.663  0.2474  0.0292  0.0535
  186SAPI  H10R21353   4.401   4.928   9.627  0.2700 -0.1517  0.0939
  186SAPI  H10S21354   4.232   4.936   9.573 -1.5408 -1.7480  0.9908
  186SAPI  C21121355   4.266   4.800   9.739  0.1328 -0.1321 -0.1688
  186SAPI  H11R21356   4.281   4.800   9.848 -0.2727  1.0192 -0.1026
  186SAPI  C21221357   4.234   4.678   9.674  0.9251 -0.3471  0.1580
  186SAPI  H12R21358   4.211   4.589   9.734  0.3710 -0.4397 -0.1876
  186SAPI  C21321359   4.232   4.654   9.519 -0.1099  0.8486  0.1712
  186SAPI  H13R21360   4.272   4.552   9.501 -0.4764  0.5217  1.1377
  186SAPI  H13S21361   4.297   4.723   9.461  1.1937  1.7144  2.4805
  186SAPI  C21421362   4.096   4.644   9.468 -0.1120  0.9269 -0.7143
  186SAPI  H14R21363   4.006   4.644   9.531 -0.6268 -2.6155 -1.2428
  186SAPI  C21521364   4.069   4.640   9.335  0.1054 -0.2831 -0.2230
  186SAPI  H15R21365   3.966   4.628   9.299 -0.6717  1.8526  1.1413
  186SAPI  C21621366   4.169   4.637   9.215  0.5518 -0.1953 -0.4340
  186SAPI  H16R21367   4.230   4.545   9.208 -1.4376 -1.6904  1.0017
  186SAPI  H16S21368   4.240   4.723   9.227 -0.1905  0.3210  0.4106
  186SAPI  C21721369   4.086   4.651   9.086 -0.2620 -0.2067 -0.3080
  186SAPI  H17R21370   4.006   4.728   9.098  0.2495  0.3272 -0.3034
  186SAPI  H17S21371   4.042   4.550   9.073  1.3060 -1.5279  3.3355
  186SAPI  C21821372   4.171   4.679   8.961 -0.6559  0.2472  0.4292
  186SAPI  H18R21373   4.233   4.770   8.977  0.5709 -0.4156 -0.3610
  186SAPI  H18S21374   4.100   4.688   8.876 -0.1279 -0.0499 -0.0544
  186SAPI  C21921375   4.258   4.554   8.919  0.5014 -0.1236 -0.1529
  186SAPI  H19R21376   4.326   4.545   9.007  0.4928  0.9499 -0.0184
  186SAPI  H19S21377   4.332   4.566   8.837  0.2782  1.0117 -0.2033
  186SAPI  C22021378   4.173   4.425   8.893  0.0023 -0.3480  0.3443
  186SAPI  H20R21379   4.237   4.344   8.851  1.1823 -0.1298  1.6272
  186SAPI  H20S21380   4.086   4.446   8.828 -0.3855  0.5924  1.1348
  186SAPI  H20T21381   4.140   4.394   8.995 -0.5960  1.1133  0.6262
  186SAPI   C3321382   4.126   5.291  10.139 -0.1604  0.5215  0.0567
  186SAPI   H3X21383   4.148   5.356  10.227  1.1483  0.0702  0.0776
  186SAPI   H3Y21384   4.018   5.266  10.143  0.0965 -0.6463  0.0189
  186SAPI   C3421385   4.150   5.368  10.010 -0.3856 -0.1159  0.5358
  186SAPI   H4X21386   4.176   5.296   9.930  1.8951  1.7742 -0.5633
  186SAPI   H4Y21387   4.248   5.420  10.022 -0.5380  0.4349 -0.5386
  186SAPI   C3521388   4.031   5.461   9.963 -0.1433  0.4268  0.1619
  186SAPI   H5X21389   4.004   5.531  10.044  0.9643  0.8900  0.1513
  186SAPI   H5Y21390   3.944   5.392   9.960  0.7300 -0.7926  1.1344
  186SAPI   C3621391   4.053   5.540   9.830 -0.0337 -0.7786  0.2192
  186SAPI   H6X21392   4.143   5.600   9.856  0.0602 -1.1604  0.7711
  186SAPI   H6Y21393   3.971   5.608   9.799  2.2445  0.8550 -2.7757
  186SAPI   C3721394   4.069   5.440   9.710 -0.3278 -0.0746 -0.4098
  186SAPI   H7X21395   3.989   5.364   9.723  0.3454 -0.7298  0.0062
  186SAPI   H7Y21396   4.167   5.388   9.710 -0.1373  0.2848 -0.6532
  186SAPI   C3821397   4.067   5.505   9.579  0.1432  0.9123 -0.1526
  186SAPI   H8X21398   4.165   5.555   9.564  0.7725 -0.5256 -1.0038
  186SAPI   H8Y21399   3.993   5.588   9.583  0.1221  0.9117 -0.5450
  186SAPI   C3921400   4.052   5.417   9.458  0.7240  0.2340 -0.4608
  186SAPI   H9X21401   3.966   5.348   9.469 -1.4659  2.3455 -2.8850
  186SAPI   H9Y21402   4.140   5.350   9.453 -1.5368 -2.9849  0.3108
  186SAPI  C31021403   4.025   5.487   9.331  0.6418 -0.4537 -0.2529
  186SAPI  H10X21404   3.968   5.581   9.347  1.5285  0.1642 -0.6355
  186SAPI  H10Y21405   3.965   5.420   9.265 -2.0205  1.6461 -0.1446
  186SAPI  C31121406   4.159   5.527   9.265  0.5172 -0.2334 -0.4952
  186SAPI  H11X21407   4.232   5.446   9.289 -0.1099 -0.3534  1.1443
  186SAPI  H11Y21408   4.193   5.611   9.329  1.2687 -0.7507 -0.2097
  186SAPI  C31221409   4.169   5.552   9.112  0.3222  0.5483 -0.0303
  186SAPI  H12X21410   4.111   5.643   9.087  0.8901  0.8281 -0.3562
  186SAPI  H12Y21411   4.112   5.466   9.072 -1.3989  2.5571 -2.1408
  186SAPI  C31321412   4.310   5.555   9.045 -0.8815  0.2339 -0.1201
  186SAPI  H13X21413   4.363   5.457   9.049 -1.2830  0.0181 -0.0588
  186SAPI  H13Y21414   4.391   5.621   9.084  2.6610 -3.0323 -1.3115
  186SAPI  C31421415   4.292   5.573   8.898  0.0658 -0.3960  0.0244
  186SAPI  H14X21416   4.247   5.674   8.887 -1.7741 -1.3471 -1.7328
  186SAPI  H14Y21417   4.244   5.493   8.839  1.8239  0.9377 -3.5100
  186SAPI  C31521418   4.431   5.593   8.828 -1.1618 -0.2672 -0.0299
  186SAPI  H15X21419   4.489   5.503   8.855 -1.5219 -0.2954  0.6624
  186SAPI  H15Y21420   4.473   5.689   8.864 -1.7401  0.7242 -1.8786
  186SAPI  C31621421   4.428   5.602   8.672 -0.7178 -0.3290  0.2670
  186SAPI  H16X21422   4.369   5.693   8.647 -1.3168 -0.6006  0.6680
  186SAPI  H16Y21423   4.370   5.513   8.641  0.0278 -0.8986  0.4573
  186SAPI  C31721424   4.569   5.603   8.605 -0.2685  0.7462  0.1694
  186SAPI  H17X21425   4.635   5.524   8.648 -1.0368 -0.7801 -1.3360
  186SAPI  H17Y21426   4.609   5.705   8.626  0.1890  0.7407 -0.6246
  186SAPI  C31821427   4.562   5.599   8.448  0.3502  0.5942  0.8359
  186SAPI  H18X21428   4.505   5.511   8.410  0.9077 -0.2148  1.8390
  186SAPI  H18Y21429   4.663   5.588   8.403  0.3900  1.5665  0.6696
  186SAPI  H18Z21430   4.508   5.686   8.404 -2.6937 -1.0851  0.9443
  187SAPI   C1221431   5.770   0.708   6.509  0.1630  0.2088 -0.2341
  187SAPI    H221432   5.762   0.688   6.618 -0.8754 -0.7678 -0.4740
  187SAPI    O221433   5.667   0.637   6.442  0.2622 -0.2286 -0.0490
  187SAPI   HO221434   5.602   0.595   6.499  1.3050 -2.4345 -0.3773
  187SAPI   C1321435   5.751   0.854   6.490 -1.0644  0.6421  1.1702
  187SAPI    H321436   5.827   0.909   6.549 -1.2403  1.2983  0.7983
  187SAPI    O321437   5.625   0.900   6.534  0.1631 -0.7447 -0.4744
  187SAPI   HO321438   5.554   0.855   6.487  0.1309 -0.6216 -0.5430
  187SAPI   C1421439   5.778   0.898   6.343 -0.2491 -0.0159 -0.5364
  187SAPI    H421440   5.693   0.853   6.289 -1.2415 -0.5244  1.3734
  187SAPI    O421441   5.774   1.043   6.328  0.3337  0.2441 -0.0624
  187SAPI   HO421442   5.848   1.075   6.380  0.1801  2.0591 -0.8896
  187SAPI   C1521443   5.909   0.841   6.289  0.4249 -0.0400  0.1899
  187SAPI    H521444   5.995   0.896   6.335  0.1687 -0.9037  1.7952
  187SAPI    O521445   5.922   0.878   6.151  0.6136  0.6264  0.0586
  187SAPI   HO521446   5.929   0.797   6.099  0.1601  2.1283 -2.5156
  187SAPI   C1621447   5.933   0.692   6.323 -0.2726  0.3827  0.3824
  187SAPI    H621448   5.858   0.640   6.260 -1.5252 -0.0406  2.1296
  187SAPI    O621449   6.071   0.663   6.287 -0.1058 -0.5479 -0.1675
  187SAPI   HO621450   6.107   0.590   6.338 -1.8305 -1.8586 -0.7612
  187SAPI   C1121451   5.906   0.663   6.468  0.0055  0.0375 -1.0230
  187SAPI    H121452   5.977   0.719   6.532 -1.7110  0.1343  0.8923
  187SAPI     P21453   6.045   0.446   6.559 -0.0032  0.1329  0.2287
  187SAPI   O1321454   6.160   0.482   6.475 -0.1350 -0.3637  0.0230
  187SAPI   O1421455   6.015   0.302   6.571 -0.6164 -0.1082 -0.5787
  187SAPI   O1221456   5.911   0.519   6.496  0.0849  0.4033 -0.2332
  187SAPI   O1121457   6.053   0.527   6.698 -0.3007  0.5575  0.4393
  187SAPI    C121458   5.974   0.484   6.808  0.0488 -0.1858  0.3122
  187SAPI    HA21459   5.868   0.516   6.803  0.0620  0.2501  2.0736
  187SAPI    HB21460   5.966   0.373   6.805  0.9001 -0.2320 -1.3013
  187SAPI    C221461   6.036   0.540   6.937 -0.4515 -0.4987  0.5079
  187SAPI    HS21462   5.959   0.544   7.017 -1.5030 -0.8063 -0.4606
  187SAPI   O2121463   6.099   0.667   6.914 -0.1528 -0.0185  0.2015
  187SAPI   C2121464   6.000   0.760   6.911  0.1500 -0.0532 -0.5997
  187SAPI   O2221465   5.883   0.746   6.932 -0.3824 -0.1273 -0.2012
  187SAPI   C2221466   6.061   0.894   6.886 -0.2515  0.3370  0.4098
  187SAPI   H2R21467   6.143   0.878   6.813 -0.1514 -1.4154  0.8472
  187SAPI   H2S21468   5.988   0.972   6.858 -0.1307  0.1903 -0.3170
  187SAPI    C321469   6.147   0.450   6.999  0.0656  0.4417 -0.2907
  187SAPI    HX21470   6.234   0.430   6.933  0.2938  0.4263  0.0115
  187SAPI    HY21471   6.087   0.357   7.008 -0.3103  0.7576  0.5631
  187SAPI   O3121472   6.190   0.503   7.125 -0.3621 -0.1119 -0.1818
  187SAPI   C3121473   6.310   0.459   7.164 -0.0190 -0.0978  0.4223
  187SAPI   O3221474   6.386   0.390   7.100 -0.8212 -0.1526 -0.1283
  187SAPI   C3221475   6.337   0.513   7.311 -0.1402 -0.9407  0.2118
  187SAPI   H2X21476   6.294   0.445   7.387 -0.2557  0.0273  1.0294
  187SAPI   H2Y21477   6.289   0.613   7.327  0.0527 -0.9982  1.1992
  187SAPI   C2321478   6.139   0.949   7.015  0.2303  0.6415  0.0472
  187SAPI   H3R21479   6.219   1.015   6.975  1.0787 -0.7291 -0.6316
  187SAPI   H3S21480   6.198   0.863   7.053 -1.4446  0.0528  1.4011
  187SAPI   C2421481   6.048   1.019   7.109  0.0518  0.7797  0.0240
  187SAPI   H4R21482   5.972   1.081   7.057 -0.3353 -0.6617 -1.2013
  187SAPI   H4S21483   6.115   1.090   7.163 -0.4641  0.5828  0.9429
  187SAPI   C2521484   5.967   0.922   7.196 -0.1646 -0.0510 -0.0865
  187SAPI   H5R21485   5.895   0.860   7.141  0.2857  0.3582 -1.1484
  187SAPI   C2621486   5.976   0.910   7.332 -0.3690 -0.0602 -0.2791
  187SAPI   H6R21487   5.916   0.836   7.387 -1.0049  1.4666  1.1487
  187SAPI   C2721488   6.072   0.987   7.424 -0.3793  0.2484  0.3121
  187SAPI   H7R21489   6.162   1.011   7.364 -0.2345 -1.1389 -0.0650
  187SAPI   H7S21490   6.102   0.914   7.503  0.8801 -1.9369 -2.0342
  187SAPI   C2821491   6.007   1.104   7.479  0.0593 -0.1365  0.3368
  187SAPI   H8R21492   5.992   1.189   7.410  1.4129 -0.3292 -0.2256
  187SAPI   C2921493   5.985   1.121   7.616 -0.0813 -0.3846 -1.0350
  187SAPI   H9R21494   5.954   1.221   7.648  1.2058 -0.8742  2.0532
  187SAPI  C21021495   6.021   1.014   7.723  0.4029 -0.2389 -0.2661
  187SAPI  H10R21496   6.127   0.984   7.710 -0.0926 -0.7350 -4.4222
  187SAPI  H10S21497   5.961   0.924   7.699  0.5510 -1.0198  2.1137
  187SAPI  C21121498   5.979   1.064   7.863  0.1947  0.4696 -0.0465
  187SAPI  H11R21499   5.905   1.145   7.874  1.8286  2.1776 -0.8897
  187SAPI  C21221500   6.019   1.012   7.980  0.3714 -0.5528  0.4277
  187SAPI  H12R21501   5.972   1.053   8.071 -1.9079  0.6186 -1.1778
  187SAPI  C21321502   6.121   0.902   7.988 -0.6899 -0.0171 -0.0998
  187SAPI  H13R21503   6.191   0.930   8.070  0.3933  2.3306 -1.7226
  187SAPI  H13S21504   6.180   0.893   7.894 -0.0112  1.5166  0.1499
  187SAPI  C21421505   6.047   0.773   8.016 -0.2936 -0.0423  0.0411
  187SAPI  H14R21506   5.981   0.772   8.104 -0.4967  1.7309 -0.0545
  187SAPI  C21521507   6.060   0.655   7.944  0.7747  0.2048 -0.3106
  187SAPI  H15R21508   6.008   0.566   7.982  0.8798 -0.2372 -1.1809
  187SAPI  C21621509   6.141   0.625   7.824 -0.0426 -0.5961  0.4189
  187SAPI  H16R21510   6.227   0.559   7.847  2.2010  1.0786 -2.5298
  187SAPI  H16S21511   6.187   0.715   7.779 -2.9771  2.0273  2.2470
  187SAPI  C21721512   6.061   0.549   7.710 -0.1967  0.1260 -0.0205
  187SAPI  H17R21513   6.026   0.450   7.748  1.4666 -0.2674  0.5828
  187SAPI  H17S21514   6.140   0.515   7.640  0.6656  0.9874  0.5274
  187SAPI  C21821515   5.964   0.637   7.641 -0.1123 -0.1746  0.2372
  187SAPI  H18R21516   6.032   0.717   7.604 -0.1205 -0.0441  0.5020
  187SAPI  H18S21517   5.896   0.690   7.711 -0.8495  1.6652 -1.7514
  187SAPI  C21921518   5.877   0.571   7.536  0.1331 -0.0931 -0.4340
  187SAPI  H19R21519   5.805   0.647   7.498  0.6052 -1.1684 -3.7898
  187SAPI  H19S21520   5.824   0.483   7.576  0.6830  0.2805  1.1769
  187SAPI  C22021521   5.965   0.525   7.417  0.2667 -0.0817 -0.3531
  187SAPI  H20R21522   6.018   0.613   7.374  1.3931 -0.6064 -0.0747
  187SAPI  H20S21523   5.908   0.467   7.341  0.0893 -1.2828  0.6635
  187SAPI  H20T21524   6.041   0.455   7.458 -0.3498  0.6375  2.1975
  187SAPI   C3321525   6.480   0.522   7.344  0.9573  0.6765 -0.0375
  187SAPI   H3X21526   6.538   0.597   7.286  0.0149  1.2599 -0.2433
  187SAPI   H3Y21527   6.515   0.417   7.331 -1.8840 -0.7278  2.4533
  187SAPI   C3421528   6.510   0.552   7.496  0.6046 -0.8395  0.1481
  187SAPI   H4X21529   6.485   0.468   7.565  0.8853 -1.4300 -0.4712
  187SAPI   H4Y21530   6.443   0.638   7.518 -0.2656 -1.2971 -0.6636
  187SAPI   C3521531   6.657   0.587   7.524  0.7762  0.0178  0.4153
  187SAPI   H5X21532   6.676   0.684   7.473  1.2285 -0.5497 -0.5097
  187SAPI   H5Y21533   6.722   0.506   7.484 -0.6126 -1.1868  0.5404
  187SAPI   C3621534   6.674   0.609   7.680  0.1072 -0.3361 -0.1927
  187SAPI   H6X21535   6.664   0.513   7.733 -3.7600 -0.3342 -0.6874
  187SAPI   H6Y21536   6.581   0.661   7.710  0.9418 -0.1286  2.2776
  187SAPI   C3721537   6.810   0.670   7.717 -0.8942 -0.0626  0.3879
  187SAPI   H7X21538   6.798   0.779   7.699 -1.0926 -0.3543 -1.4685
  187SAPI   H7Y21539   6.882   0.620   7.649  0.8988 -0.0779  2.2045
  187SAPI   C3821540   6.853   0.649   7.863  0.1593 -0.3247 -0.2365
  187SAPI   H8X21541   6.881   0.543   7.881 -0.5104 -0.3369  0.7611
  187SAPI   H8Y21542   6.761   0.672   7.921  0.1515 -2.2791  0.6147
  187SAPI   C3921543   6.963   0.741   7.926  0.7432  0.2385  0.9660
  187SAPI   H9X21544   6.958   0.850   7.904  1.9771 -0.2934 -2.8535
  187SAPI   H9Y21545   7.059   0.711   7.878 -0.0780  0.2418 -0.7797
  187SAPI  C31021546   6.969   0.734   8.079 -0.0184  0.4074  0.0821
  187SAPI  H10X21547   7.011   0.638   8.116  0.7296  1.4420  2.0603
  187SAPI  H10Y21548   6.865   0.747   8.116  0.2742 -0.6579  1.3605
  187SAPI  C31121549   7.050   0.844   8.131 -0.2966 -0.2467 -0.3938
  187SAPI  H11X21550   7.027   0.943   8.086  0.3952  2.0541  3.7995
  187SAPI  H11Y21551   7.157   0.822   8.111  0.6337  1.3103  2.3531
  187SAPI  C31221552   7.026   0.870   8.277  0.4615 -0.4976  0.3085
  187SAPI  H12X21553   7.103   0.942   8.314 -0.8318  1.8203 -1.2411
  187SAPI  H12Y21554   7.053   0.787   8.345  1.4085  0.3755  1.0426
  187SAPI  C31321555   6.886   0.934   8.330 -0.0536 -0.0132  0.2157
  187SAPI  H13X21556   6.816   0.850   8.349  0.6772 -0.3804  1.4052
  187SAPI  H13Y21557   6.854   1.002   8.249  0.7065 -0.6268 -0.6113
  187SAPI  C31421558   6.904   1.020   8.453  0.1365  0.5459  0.9764
  187SAPI  H14X21559   6.810   1.076   8.470  0.7576  1.6369  0.9303
  187SAPI  H14Y21560   6.977   1.098   8.423 -0.2176 -0.0148 -1.5435
  187SAPI  C31521561   6.943   0.934   8.580 -0.1551 -0.3584  0.3864
  187SAPI  H15X21562   7.031   0.877   8.544 -0.0906  1.5376 -2.8966
  187SAPI  H15Y21563   6.866   0.861   8.613  0.1213 -0.5306  0.6480
  187SAPI  C31621564   6.989   1.028   8.692 -0.0894 -0.1021  0.3979
  187SAPI  H16X21565   7.052   1.114   8.659 -1.1182  1.6625  2.7756
  187SAPI  H16Y21566   7.042   0.964   8.766  4.1802  1.1898 -1.2509
  187SAPI  C31721567   6.867   1.089   8.766 -0.4218 -1.1820 -0.8438
  187SAPI  H17X21568   6.792   1.020   8.809  1.1161 -1.6947  1.1999
  187SAPI  H17Y21569   6.804   1.149   8.697  0.4422  0.1016 -0.5516
  187SAPI  C31821570   6.930   1.182   8.876 -0.1680 -1.0826 -0.3891
  187SAPI  H18X21571   6.980   1.271   8.833  0.8625 -1.1219  0.6811
  187SAPI  H18Y21572   7.009   1.127   8.932  1.1612 -0.8063 -1.8774
  187SAPI  H18Z21573   6.853   1.230   8.939 -0.7104 -0.9999 -1.0952
  188SAPI   C1221574   5.690   4.123   6.000 -0.1962 -0.7830 -0.5856
  188SAPI    H221575   5.768   4.054   6.038 -0.6560 -0.1508  1.6606
  188SAPI    O221576   5.725   4.257   6.030  0.2247 -0.0157  0.1729
  188SAPI   HO221577   5.776   4.262   6.111  0.2652 -1.3914  0.2636
  188SAPI   C1321578   5.688   4.100   5.850 -0.5522  0.3911 -0.6582
  188SAPI    H321579   5.665   3.993   5.836 -0.4035  0.4352 -1.2403
  188SAPI    O321580   5.814   4.134   5.797  0.1964 -0.0101 -0.0100
  188SAPI   HO321581   5.850   4.214   5.835 -0.1523 -0.6109  1.6299
  188SAPI   C1421582   5.582   4.194   5.789  0.1240  0.5026 -0.4097
  188SAPI    H421583   5.613   4.299   5.805 -0.5985  0.5184  1.1647
  188SAPI    O421584   5.566   4.171   5.652  0.4885 -0.1109  0.1710
  188SAPI   HO421585   5.625   4.232   5.607 -0.3467  2.0093  1.8266
  188SAPI   C1521586   5.441   4.173   5.855 -0.4287  1.1273 -0.3843
  188SAPI    H521587   5.423   4.067   5.828 -1.9338  1.2169  0.1798
  188SAPI    O521588   5.335   4.246   5.793 -0.0327  0.6409 -0.2837
  188SAPI   HO521589   5.259   4.210   5.837 -0.2889  0.2434 -1.0415
  188SAPI   C1621590   5.445   4.176   6.009 -0.6159  0.5221  0.3402
  188SAPI    H621591   5.456   4.281   6.045  0.2468 -0.2143  2.3834
  188SAPI    O621592   5.313   4.131   6.049 -0.4372  0.1444  0.0167
  188SAPI   HO621593   5.318   4.054   6.106 -1.3956 -2.1168 -2.7137
  188SAPI   C1121594   5.559   4.082   6.062 -0.5295 -0.3290  0.2394
  188SAPI    H121595   5.544   3.976   6.033 -1.2067 -0.2379  0.2370
  188SAPI     P21596   5.517   3.972   6.304  0.4518  0.2191  0.6825
  188SAPI   O1321597   5.391   3.925   6.231 -1.1340  0.0752  0.0425
  188SAPI   O1421598   5.501   4.036   6.436  0.2188  0.7160 -0.2788
  188SAPI   O1221599   5.579   4.084   6.206  0.2153 -0.1496  0.4755
  188SAPI   O1121600   5.628   3.856   6.292  0.1094  0.1139  0.1694
  188SAPI    C121601   5.595   3.721   6.335 -0.0687 -0.8942  0.6362
  188SAPI    HA21602   5.485   3.711   6.339 -0.2090 -1.0742 -1.9908
  188SAPI    HB21603   5.638   3.650   6.262 -1.0290 -0.7994 -0.0410
  188SAPI    C221604   5.667   3.690   6.472  0.7358 -0.6829  0.3841
  188SAPI    HS21605   5.633   3.585   6.486  1.0619 -0.7772  0.4588
  188SAPI   O2121606   5.614   3.774   6.577 -0.0495  0.4079  0.8786
  188SAPI   C2121607   5.491   3.733   6.628  0.4726  0.1282  0.3914
  188SAPI   O2221608   5.426   3.643   6.579 -0.0489  0.2195 -0.7013
  188SAPI   C2221609   5.449   3.813   6.744  0.0958  0.0176  0.5419
  188SAPI   H2R21610   5.442   3.921   6.719 -2.1362 -0.6080 -2.0804
  188SAPI   H2S21611   5.348   3.789   6.784 -0.3846 -1.6195 -1.4586
  188SAPI    C321612   5.818   3.690   6.473  1.0606  0.4879 -0.8855
  188SAPI    HX21613   5.854   3.794   6.456 -1.6064  1.3069 -2.1751
  188SAPI    HY21614   5.851   3.620   6.394 -1.5745 -1.7334 -0.1885
  188SAPI   O3121615   5.849   3.634   6.598  0.5485 -0.1788  0.4587
  188SAPI   C3121616   5.934   3.690   6.670 -1.3279 -0.1871 -0.1318
  188SAPI   O3221617   6.010   3.781   6.636  0.1574 -0.2143  0.2792
  188SAPI   C3221618   5.940   3.615   6.797  0.1233 -0.5188 -0.2417
  188SAPI   H2X21619   5.934   3.509   6.766 -0.2570  0.1579 -2.7354
  188SAPI   H2Y21620   5.858   3.640   6.868 -1.0614 -1.5899 -1.1969
  188SAPI   C2321621   5.552   3.806   6.857 -0.5265  0.8448  0.3158
  188SAPI   H3R21622   5.531   3.878   6.940 -0.3862 -0.1070  1.1949
  188SAPI   H3S21623   5.647   3.850   6.820 -0.7050  0.7286 -0.2907
  188SAPI   C2421624   5.578   3.667   6.900  0.3285  0.0558 -0.1775
  188SAPI   H4R21625   5.670   3.663   6.963  2.2397 -2.3331 -2.8800
  188SAPI   H4S21626   5.613   3.595   6.824  2.3032 -1.5739  2.1208
  188SAPI   C2521627   5.449   3.608   6.964 -0.5089  0.6121  0.5503
  188SAPI   H5R21628   5.366   3.597   6.892  0.3316 -0.6429 -0.2690
  188SAPI   C2621629   5.431   3.570   7.090 -0.0077  0.2662 -0.0160
  188SAPI   H6R21630   5.335   3.524   7.120  0.5094 -0.7828  0.0980
  188SAPI   C2721631   5.533   3.565   7.204 -0.1454  0.3354  0.7309
  188SAPI   H7R21632   5.639   3.577   7.175  0.0527 -2.7932 -0.1649
  188SAPI   H7S21633   5.532   3.468   7.258 -1.4241  1.7790  3.5655
  188SAPI   C2821634   5.497   3.680   7.301 -0.1091 -0.3361 -0.6981
  188SAPI   H8R21635   5.507   3.775   7.247 -0.4841 -0.1102 -0.3792
  188SAPI   C2921636   5.452   3.672   7.432 -0.2206  1.0231  0.2283
  188SAPI   H9R21637   5.426   3.767   7.482  0.7284  0.6779  1.4375
  188SAPI  C21021638   5.436   3.555   7.527 -0.7567 -0.6824  0.5443
  188SAPI  H10R21639   5.496   3.468   7.492 -0.4866 -0.3907  0.2762
  188SAPI  H10S21640   5.333   3.513   7.524 -0.6438 -1.0194  1.1911
  188SAPI  C21121641   5.491   3.584   7.666 -0.2307 -0.2914  0.1771
  188SAPI  H11R21642   5.565   3.665   7.660 -0.8579  0.1686 -2.4776
  188SAPI  C21221643   5.472   3.516   7.778 -0.1878 -0.1270  0.1810
  188SAPI  H12R21644   5.528   3.548   7.866  1.3615 -1.9498 -0.0951
  188SAPI  C21321645   5.394   3.388   7.807  0.0425  0.3309  0.5884
  188SAPI  H13R21646   5.424   3.355   7.908  2.6733  0.7023 -0.0049
  188SAPI  H13S21647   5.422   3.312   7.730  0.6616  1.9795 -0.8797
  188SAPI  C21421648   5.243   3.395   7.798 -0.1179  0.4270  0.0315
  188SAPI  H14R21649   5.187   3.334   7.725 -2.5332 -0.2397  2.2483
  188SAPI  C21521650   5.164   3.482   7.868  0.5241  0.7549 -0.4831
  188SAPI  H15R21651   5.056   3.470   7.849  0.9485 -1.7215 -1.6490
  188SAPI  C21621652   5.212   3.587   7.964  0.2606 -0.2273  0.6042
  188SAPI  H16R21653   5.226   3.684   7.911  0.9230 -0.5845  0.1045
  188SAPI  H16S21654   5.321   3.572   7.983  1.0662  2.8054 -0.8859
  188SAPI  C21721655   5.125   3.592   8.083 -0.0039 -0.4326 -0.1374
  188SAPI  H17R21656   5.020   3.618   8.060  0.2510 -0.9525 -2.0344
  188SAPI  H17S21657   5.171   3.681   8.132 -0.3343  0.0261 -0.6475
  188SAPI  C21821658   5.134   3.479   8.184  0.3161  0.1599  0.4878
  188SAPI  H18R21659   5.243   3.460   8.185  0.2124 -0.4882  1.4418
  188SAPI  H18S21660   5.070   3.394   8.151 -1.9997  2.3651 -1.1394
  188SAPI  C21921661   5.079   3.525   8.328 -0.3018 -0.3157  0.2103
  188SAPI  H19R21662   4.970   3.533   8.308 -0.4088 -1.5288  0.2245
  188SAPI  H19S21663   5.138   3.618   8.347  0.8572 -0.8717 -0.5141
  188SAPI  C22021664   5.092   3.426   8.443 -0.1891 -0.6544 -0.5125
  188SAPI  H20R21665   5.051   3.327   8.414  0.4826 -1.1154  0.0819
  188SAPI  H20S21666   5.049   3.483   8.528 -0.6682  1.6355 -2.1795
  188SAPI  H20T21667   5.199   3.402   8.460 -0.7743 -2.1100  1.3588
  188SAPI   C3321668   6.070   3.646   6.868  0.7888  0.2162  0.4555
  188SAPI   H3X21669   6.095   3.753   6.853  1.4737 -0.0926 -0.6996
  188SAPI   H3Y21670   6.153   3.600   6.811 -0.0156 -0.7431  0.0174
  188SAPI   C3421671   6.071   3.608   7.016 -0.4396  0.0466  0.0794
  188SAPI   H4X21672   6.173   3.619   7.060 -0.5566  0.7292  0.1959
  188SAPI   H4Y21673   6.056   3.498   7.022  0.7996 -0.1338  0.2605
  188SAPI   C3521674   5.969   3.664   7.114  0.0470  0.0824 -0.0717
  188SAPI   H5X21675   5.870   3.659   7.064  0.5975 -3.0624 -1.0918
  188SAPI   H5Y21676   5.977   3.773   7.133 -2.3465  0.3846 -0.4814
  188SAPI   C3621677   5.934   3.569   7.231 -0.2717 -0.3516  0.2562
  188SAPI   H6X21678   6.024   3.518   7.272  0.1240  0.4574  0.4240
  188SAPI   H6Y21679   5.846   3.505   7.210  0.1778 -0.6329 -0.8180
  188SAPI   C3721680   5.902   3.662   7.350  0.6785  0.7299 -0.6004
  188SAPI   H7X21681   5.806   3.705   7.314  0.1340  1.9748  2.1173
  188SAPI   H7Y21682   5.976   3.744   7.360 -1.0488  2.5721 -2.1807
  188SAPI   C3821683   5.883   3.584   7.476  0.5425 -0.5490 -1.2963
  188SAPI   H8X21684   5.955   3.501   7.493 -0.7092 -1.4384 -0.1043
  188SAPI   H8Y21685   5.786   3.531   7.489 -1.4044  3.4409  3.1750
  188SAPI   C3921686   5.896   3.678   7.608 -0.5049  0.8139 -0.9049
  188SAPI   H9X21687   5.815   3.752   7.593 -1.1751  0.1703 -0.5435
  188SAPI   H9Y21688   5.986   3.742   7.607  0.0395  0.0880  0.0086
  188SAPI  C31021689   5.883   3.591   7.737 -0.0938 -0.3289 -0.3203
  188SAPI  H10X21690   5.961   3.512   7.734  0.3887  0.1170  0.1139
  188SAPI  H10Y21691   5.787   3.536   7.748 -0.7483  0.7495 -0.4378
  188SAPI  C31121692   5.893   3.689   7.858  0.2759  0.2231 -0.0677
  188SAPI  H11X21693   5.817   3.770   7.852  0.8136  0.6379 -1.5993
  188SAPI  H11Y21694   5.991   3.740   7.870  0.8224 -0.4157 -1.6490
  188SAPI  C31221695   5.864   3.612   7.994  0.0463  0.6791  0.7321
  188SAPI  H12X21696   5.936   3.528   7.999 -1.1363 -0.3690  0.6807
  188SAPI  H12Y21697   5.759   3.578   7.997 -0.1396  1.2422  0.8457
  188SAPI  C31321698   5.888   3.699   8.122  0.7270  0.2130  0.2967
  188SAPI  H13X21699   5.836   3.656   8.210 -0.6976  1.5366  0.1352
  188SAPI  H13Y21700   5.845   3.800   8.109  0.4336 -0.1710 -2.3285
  188SAPI  C31421701   6.039   3.706   8.154  0.2511 -0.7284 -0.2581
  188SAPI  H14X21702   6.105   3.771   8.093  1.1920 -1.5838 -0.1645
  188SAPI  H14Y21703   6.081   3.604   8.155  1.7837 -0.1985 -2.3926
  188SAPI  C31521704   6.064   3.763   8.300  0.3530  0.3066  0.6047
  188SAPI  H15X21705   6.169   3.733   8.321  0.8745  0.4124 -1.5701
  188SAPI  H15Y21706   5.998   3.717   8.376 -0.5743  0.1505 -0.2617
  188SAPI  C31621707   6.040   3.913   8.291  0.4636 -0.3964  0.3629
  188SAPI  H16X21708   5.932   3.935   8.303  0.3916 -1.0637  0.9605
  188SAPI  H16Y21709   6.069   3.951   8.191 -0.3788 -2.7718 -0.8557
  188SAPI  C31721710   6.120   4.002   8.392  0.0847  0.0812 -0.3796
  188SAPI  H17X21711   6.226   3.972   8.376  0.6399  0.6617  1.8033
  188SAPI  H17Y21712   6.093   3.963   8.493 -0.0127 -1.5261 -0.9984
  188SAPI  C31821713   6.097   4.158   8.378  0.4457 -0.2065 -0.1751
  188SAPI  H18X21714   6.169   4.214   8.442 -1.1506  1.2890  0.4154
  188SAPI  H18Y21715   5.993   4.177   8.413  1.2110  1.6741  1.2421
  188SAPI  H18Z21716   6.106   4.195   8.274 -0.1369  0.6199  0.0541
  189POPC     N21717   0.402   5.173  10.847 -0.4182 -0.2878 -0.8725
  189POPC   C1221718   0.526   5.090  10.857 -0.0740 -0.6062  0.3456
  189POPC  H12A21719   0.607   5.152  10.821 -0.6032 -0.6135 -0.8915
  189POPC  H12B21720   0.519   5.007  10.788 -0.8522 -0.6326  0.4581
  189POPC   C1321721   0.385   5.229  10.709 -0.9946  0.4513 -0.2832
  189POPC  H13A21722   0.288   5.275  10.700 -1.7826 -1.1942 -0.6125
  189POPC  H13B21723   0.461   5.301  10.680  0.8778 -1.2195  0.2444
  189POPC  H13C21724   0.399   5.153  10.633  1.7056  1.6509 -1.1135
  189POPC   C1421725   0.272   5.091  10.860  0.3444  0.1894  0.0631
  189POPC  H14A21726   0.287   5.037  10.952 -0.4985  0.6424  0.4824
  189POPC  H14B21727   0.178   5.144  10.861  0.3362  0.2163  2.4703
  189POPC  H14C21728   0.271   5.013  10.785 -3.5265  0.5259 -0.4386
  189POPC   C1521729   0.392   5.270  10.962 -0.1589  0.0720  0.0521
  189POPC  H15A21730   0.429   5.221  11.051  0.0908  0.2641  0.0556
  189POPC  H15B21731   0.293   5.307  10.982 -0.3358  0.1261 -0.9126
  189POPC  H15C21732   0.448   5.362  10.951  0.3463 -0.1953  0.3234
  189POPC   C1121733   0.556   5.031  10.995  0.1246 -0.3536 -0.8381
  189POPC  H11A21734   0.592   5.109  11.065 -0.3555 -0.6415 -0.2547
  189POPC  H11B21735   0.650   4.972  11.007  0.8413  1.0621  0.9083
  189POPC     P21736   0.432   4.801  11.065  0.4200  0.1067  0.1174
  189POPC   O1321737   0.300   4.773  11.117  0.5265 -0.1917  0.0201
  189POPC   O1421738   0.553   4.756  11.138 -0.4115  0.1933  0.1174
  189POPC   O1221739   0.442   4.964  11.058 -0.1371  0.5150  0.0585
  189POPC   O1121740   0.441   4.769  10.914  0.2206 -0.1213 -0.3008
  189POPC    C121741   0.561   4.707  10.860  0.3096  0.2435  0.7783
  189POPC    HA21742   0.559   4.602  10.898 -0.2256 -0.1135 -0.1939
  189POPC    HB21743   0.650   4.765  10.890  0.6910 -0.5421  1.1928
  189POPC    C221744   0.556   4.704  10.703 -0.6841  0.0182 -0.3896
  189POPC    HS21745   0.619   4.623  10.662 -0.2739  0.4387 -0.6065
  189POPC   O2121746   0.614   4.835  10.664  0.2772  0.2263 -0.1840
  189POPC   C2121747   0.748   4.828  10.664  0.0957 -0.1704  0.5156
  189POPC   O2221748   0.810   4.727  10.689  0.4945 -0.2434  0.0519
  189POPC   C2221749   0.810   4.968  10.640  0.3391  0.1518 -0.8112
  189POPC   H2R21750   0.896   4.953  10.708 -1.8790 -0.4881  2.0701
  189POPC   H2S21751   0.742   5.049  10.674 -3.0079 -2.4127 -0.8256
  189POPC    C321752   0.414   4.681  10.634 -0.3333 -0.1989 -0.0280
  189POPC    HX21753   0.336   4.728  10.697  0.5359  0.4690  0.5767
  189POPC    HY21754   0.387   4.573  10.634 -2.7887  0.3685  0.1360
  189POPC   O3121755   0.416   4.722  10.491  0.9342 -0.2001 -0.1290
  189POPC   C3121756   0.348   4.837  10.481 -0.1092  0.0733  0.8996
  189POPC   O3221757   0.301   4.901  10.575  0.4646  0.1949  0.0464
  189POPC   C3221758   0.342   4.863  10.329 -0.2260  1.1761  0.0860
  189POPC   H2X21759   0.259   4.797  10.293  0.2741  1.8526 -2.4866
  189POPC   H2Y21760   0.436   4.825  10.285 -1.7383 -0.7384 -1.7165
  189POPC   C2321761   0.842   4.989  10.495 -0.0526 -0.2755  0.2884
  189POPC   H3R21762   0.900   4.904  10.452 -0.9637 -0.2230 -1.1383
  189POPC   H3S21763   0.907   5.079  10.487 -1.5756  0.7160 -2.3266
  189POPC   C2421764   0.725   5.023  10.410 -0.5294  0.1855  0.0030
  189POPC   H4R21765   0.674   5.108  10.459 -0.1804 -0.5201  1.6730
  189POPC   H4S21766   0.652   4.939  10.416  1.5224 -1.7240 -0.2445
  189POPC   C2521767   0.763   5.062  10.267 -0.8010  0.2243 -0.5676
  189POPC   H5R21768   0.837   5.144  10.259 -1.5672  0.8937 -1.0127
  189POPC   H5S21769   0.668   5.095  10.219 -1.1609 -1.3872 -1.0459
  189POPC   C2621770   0.815   4.944  10.176  0.0801 -0.1406  0.0994
  189POPC   H6R21771   0.747   4.857  10.184  1.3286 -1.2996 -1.3743
  189POPC   H6S21772   0.918   4.928  10.215  0.5464  0.9469 -0.6434
  189POPC   C2721773   0.819   4.979  10.020 -0.1949 -0.4076 -0.6315
  189POPC   H7R21774   0.872   5.076  10.028  0.1141 -0.4309 -2.1342
  189POPC   H7S21775   0.720   5.001   9.974 -0.5714 -1.4327 -0.3392
  189POPC   C2821776   0.895   4.876   9.938 -0.0669  0.6103 -0.2360
  189POPC   H8R21777   0.985   4.871  10.004  0.9248  1.7123 -1.4509
  189POPC   H8S21778   0.929   4.914   9.839  3.2677  1.5746  1.1340
  189POPC   C2921779   0.826   4.740   9.919  0.1238  0.2679  0.8191
  189POPC   H9121780   0.842   4.666   9.999 -0.3391  0.0726  0.7337
  189POPC  C21021781   0.766   4.687   9.812  0.0339 -0.0247  0.7672
  189POPC  H10121782   0.742   4.580   9.813  1.5430 -0.4023 -0.0734
  189POPC  C21121783   0.748   4.768   9.684  0.1750  0.1400  0.5671
  189POPC  H11R21784   0.824   4.733   9.611  0.4644 -0.1785  1.0162
  189POPC  H11S21785   0.760   4.877   9.698 -2.3393  0.8021 -1.5376
  189POPC  C21221786   0.612   4.730   9.618 -1.1715 -0.9667 -0.2762
  189POPC  H12R21787   0.531   4.782   9.673  0.4482  2.2612 -0.7388
  189POPC  H12S21788   0.594   4.621   9.603 -3.7885 -0.7629  0.8771
  189POPC  C21321789   0.590   4.793   9.478 -0.3642  0.7120  0.0702
  189POPC  H13R21790   0.619   4.899   9.468 -2.6903  1.2514 -1.6030
  189POPC  H13S21791   0.479   4.786   9.467 -0.1394 -1.5831 -1.4594
  189POPC  C21421792   0.652   4.700   9.362  0.1640  0.2224 -0.1005
  189POPC  H14R21793   0.608   4.601   9.389 -0.0438  0.0319 -1.0700
  189POPC  H14S21794   0.762   4.685   9.361  0.2129  0.5372 -1.3041
  189POPC  C21521795   0.597   4.729   9.226  0.2231  0.2703  0.4088
  189POPC  H15R21796   0.593   4.840   9.213 -3.4847  0.0377 -1.9182
  189POPC  H15S21797   0.493   4.689   9.229  1.1515 -2.3547  3.9972
  189POPC  C21621798   0.670   4.667   9.100  1.0084  0.0892 -0.2205
  189POPC  H16R21799   0.778   4.693   9.104  1.5332 -2.0806  2.6807
  189POPC  H16S21800   0.645   4.719   9.005 -0.2326 -0.9019 -0.4615
  189POPC  C21721801   0.635   4.519   9.093 -0.2344 -0.1084  0.0290
  189POPC  H17R21802   0.527   4.507   9.069 -0.0716  0.0188 -0.7931
  189POPC  H17S21803   0.654   4.475   9.193  1.3079 -1.2391 -0.7128
  189POPC  C21821804   0.715   4.441   8.992  0.0401  0.0901 -0.2329
  189POPC  H18R21805   0.823   4.462   9.005  0.5494 -2.4602  0.2145
  189POPC  H18S21806   0.683   4.465   8.889 -0.6222 -1.6065 -0.4638
  189POPC  H18T21807   0.695   4.333   9.009  1.6571 -0.0130  1.2714
  189POPC   C3321808   0.329   5.010  10.279 -0.1910 -0.3336 -0.2625
  189POPC   H3X21809   0.416   5.076  10.303  0.4999 -0.3203 -2.5438
  189POPC   H3Y21810   0.239   5.060  10.320 -1.2032 -3.6570  1.8763
  189POPC   C3421811   0.326   5.005  10.124  0.1863 -0.3904  0.2507
  189POPC   H4X21812   0.237   4.944  10.095 -2.6396  2.3205  2.4749
  189POPC   H4Y21813   0.420   4.955  10.095  0.9643  0.1441  1.7525
  189POPC   C3521814   0.335   5.141  10.043 -0.5932 -0.3673  0.4016
  189POPC   H5X21815   0.442   5.166  10.060 -0.1642 -1.0793 -1.0811
  189POPC   H5Y21816   0.282   5.222  10.097  1.6041  0.4390  1.5115
  189POPC   C3621817   0.308   5.145   9.892 -0.1635  0.0641 -0.1297
  189POPC   H6X21818   0.338   5.247   9.858  1.2244  0.1210  1.1503
  189POPC   H6Y21819   0.199   5.138   9.874 -0.1185  0.9833 -0.8852
  189POPC   C3721820   0.372   5.026   9.807 -0.3048 -0.3498  0.2644
  189POPC   H7X21821   0.327   4.927   9.827  1.5802 -1.3054 -0.0682
  189POPC   H7Y21822   0.480   5.019   9.829 -0.1795 -0.6895 -0.4315
  189POPC   C3821823   0.351   5.058   9.653  0.5789 -0.0643  0.4997
  189POPC   H8X21824   0.407   4.974   9.606 -1.8191 -0.7051 -1.3877
  189POPC   H8Y21825   0.390   5.158   9.625  0.5061  0.1894  1.2677
  189POPC   C3921826   0.208   5.052   9.603  0.3241  0.0459  0.1143
  189POPC   H9X21827   0.151   5.140   9.638 -1.1311 -0.9618  0.3642
  189POPC   H9Y21828   0.162   4.954   9.625 -0.2323 -0.1769 -1.8160
  189POPC  C31021829   0.199   5.060   9.451 -0.3424  0.1273  0.8593
  189POPC  H10X21830   0.258   5.147   9.414  0.8758  0.4689  3.3598
  189POPC  H10Y21831   0.093   5.077   9.425  0.0830 -0.8852 -1.8522
  189POPC  C31121832   0.248   4.932   9.376  0.2678 -0.5546  0.6055
  189POPC  H11X21833   0.206   4.844   9.429 -1.1989 -0.9192 -1.1044
  189POPC  H11Y21834   0.358   4.915   9.381  0.1636 -1.7177 -0.5726
  189POPC  C31221835   0.224   4.923   9.222  0.1902  0.2676 -0.0943
  189POPC  H12X21836   0.115   4.931   9.208  0.4805  0.3352 -2.6190
  189POPC  H12Y21837   0.243   4.821   9.181 -2.4448 -0.1205 -0.4824
  189POPC  C31321838   0.293   5.039   9.144  1.0572 -0.0627 -0.2071
  189POPC  H13X21839   0.282   5.130   9.206  0.4200 -0.6779  0.6206
  189POPC  H13Y21840   0.228   5.050   9.054  2.0864  1.6419 -0.7704
  189POPC  C31421841   0.440   5.022   9.105 -0.0183  0.2716  0.4101
  189POPC  H14X21842   0.466   4.925   9.057 -0.0921  0.8020 -0.7192
  189POPC  H14Y21843   0.511   5.029   9.191  1.2195 -0.9177 -0.4656
  189POPC  C31521844   0.481   5.132   9.014 -0.8510 -0.2993 -0.1432
  189POPC  H15X21845   0.477   5.230   9.067  2.6275 -0.7244  1.1644
  189POPC  H15Y21846   0.418   5.133   8.923 -0.9054  0.2998 -0.1075
  189POPC  C31621847   0.627   5.120   8.970  0.1689 -0.2288 -0.2931
  189POPC  H16X21848   0.698   5.130   9.055 -0.9924  0.5368  0.6132
  189POPC  H16Y21849   0.652   5.192   8.889 -1.6538 -0.9500 -1.5458
  189POPC  H16Z21850   0.647   5.018   8.933  0.3116 -1.1618  2.1484
  190POPC     N21851   4.547   0.419  11.007 -0.2082 -0.1168  0.3625
  190POPC   C1221852   4.649   0.384  10.903 -0.6138  0.5051  0.4618
  190POPC  H12A21853   4.600   0.317  10.834 -0.2668  0.7167  0.0051
  190POPC  H12B21854   4.718   0.318  10.953 -0.6129  0.1303 -0.0235
  190POPC   C1321855   4.446   0.512  10.948 -0.1753 -0.0300  0.2180
  190POPC  H13A21856   4.494   0.575  10.875 -0.8212 -0.0766 -0.2449
  190POPC  H13B21857   4.389   0.445  10.886  0.6180  0.0485 -0.6296
  190POPC  H13C21858   4.377   0.566  11.011 -0.8460 -2.9630  2.2028
  190POPC   C1421859   4.474   0.293  11.051 -0.0096  0.1195  0.3986
  190POPC  H14A21860   4.391   0.321  11.115  0.4513  0.1379  1.0052
  190POPC  H14B21861   4.445   0.235  10.965 -2.4148 -0.1649  1.3138
  190POPC  H14C21862   4.556   0.244  11.103  0.7640  1.0268  0.0521
  190POPC   C1521863   4.600   0.492  11.129  1.7246  0.3690 -0.2992
  190POPC  H15A21864   4.642   0.589  11.110  1.8892  0.2318 -0.6408
  190POPC  H15B21865   4.673   0.426  11.174  1.0171  0.4881  1.0931
  190POPC  H15C21866   4.521   0.496  11.203  1.1492 -0.3969 -0.8438
  190POPC   C1121867   4.729   0.489  10.823  0.0691  0.4738 -0.0043
  190POPC  H11A21868   4.650   0.543  10.767 -1.6349 -0.8711  0.9913
  190POPC  H11B21869   4.793   0.437  10.748  0.4077  0.0758  0.5519
  190POPC     P21870   4.945   0.511  10.970  0.4846 -0.1133  0.7850
  190POPC   O1321871   4.906   0.477  11.105  0.3095  0.0225 -0.1923
  190POPC   O1421872   5.054   0.609  10.958 -0.4154 -0.4274  0.6826
  190POPC   O1221873   4.816   0.573  10.898 -0.2133 -0.3381 -0.7546
  190POPC   O1121874   4.984   0.381  10.882  0.4708  0.0105  0.3352
  190POPC    C121875   5.110   0.367  10.814  0.6457 -0.0920 -0.0533
  190POPC    HA21876   5.119   0.263  10.775 -0.0679 -0.3820  0.5377
  190POPC    HB21877   5.193   0.373  10.888 -2.0248 -0.5920  3.2031
  190POPC    C221878   5.125   0.466  10.698  0.5586 -1.2910  0.0961
  190POPC    HS21879   5.140   0.568  10.741 -1.7315 -1.9103  2.6477
  190POPC   O2121880   5.006   0.457  10.615  0.4122 -1.0060 -0.0118
  190POPC   C2121881   4.958   0.568  10.563  0.9562  0.0878  0.0935
  190POPC   O2221882   4.981   0.682  10.602 -0.1309 -0.0102  0.2506
  190POPC   C2221883   4.897   0.541  10.430 -0.5653  0.6522 -0.6606
  190POPC   H2R21884   4.826   0.456  10.438  0.3524 -0.0346  0.5516
  190POPC   H2S21885   4.975   0.499  10.362 -1.5097 -1.2347 -0.6404
  190POPC    C321886   5.250   0.434  10.619 -0.4903 -0.7714 -0.1762
  190POPC    HX21887   5.252   0.326  10.595  3.3729 -1.2822  1.6577
  190POPC    HY21888   5.339   0.455  10.682 -0.4967  1.2777 -0.7803
  190POPC   O3121889   5.264   0.501  10.492  0.0105 -0.0037  0.9364
  190POPC   C3121890   5.304   0.628  10.492  0.1616 -0.0943 -0.5070
  190POPC   O3221891   5.333   0.689  10.594  0.0437  0.0369 -0.0817
  190POPC   C3221892   5.303   0.674  10.352 -0.1936  0.0657  0.8166
  190POPC   H2X21893   5.319   0.592  10.279 -0.6453  0.3371  0.4108
  190POPC   H2Y21894   5.385   0.748  10.349  0.0348 -0.2255 -0.3719
  190POPC   C2321895   4.823   0.662  10.365 -0.0692 -0.0067 -0.0908
  190POPC   H3R21896   4.889   0.748  10.387  1.5581 -1.1769 -0.2749
  190POPC   H3S21897   4.721   0.680  10.408  0.4741 -1.6799  2.0513
  190POPC   C2421898   4.798   0.627  10.214  0.0034 -0.1473 -1.1505
  190POPC   H4R21899   4.728   0.541  10.218  0.7828 -0.7477  0.1724
  190POPC   H4S21900   4.892   0.587  10.170  0.7397 -1.0928  1.1396
  190POPC   C2521901   4.745   0.750  10.134 -0.7090  0.8239 -0.1445
  190POPC   H5R21902   4.813   0.837  10.136  0.0983  0.4621 -4.0607
  190POPC   H5S21903   4.661   0.788  10.196  1.6431  3.8138  1.4535
  190POPC   C2621904   4.723   0.706   9.992 -0.3487 -0.3955  0.2163
  190POPC   H6R21905   4.809   0.647   9.954 -0.4983 -0.0199 -0.7382
  190POPC   H6S21906   4.718   0.802   9.936 -0.4415 -0.4513  0.1296
  190POPC   C2721907   4.594   0.633   9.962  0.0319  0.0700  0.0532
  190POPC   H7R21908   4.504   0.685   9.999 -1.4903 -0.6859 -2.3462
  190POPC   H7S21909   4.588   0.533  10.009 -0.8586 -0.3857 -0.9812
  190POPC   C2821910   4.580   0.601   9.816  0.2258  0.3517 -0.4082
  190POPC   H8R21911   4.513   0.513   9.808 -0.0400  0.6485 -1.6453
  190POPC   H8S21912   4.680   0.570   9.779  1.8867  1.0845  3.0438
  190POPC   C2921913   4.519   0.720   9.747  0.0748 -0.2569 -0.0999
  190POPC   H9121914   4.419   0.734   9.791 -0.1139 -1.7632 -0.0220
  190POPC  C21021915   4.582   0.813   9.661  0.8256  0.4254  0.0548
  190POPC  H10121916   4.510   0.883   9.616 -1.7758 -1.0191  1.7342
  190POPC  C21121917   4.716   0.827   9.606  0.0573  0.0692 -0.6731
  190POPC  H11R21918   4.780   0.739   9.628 -0.7075 -0.0592  1.2470
  190POPC  H11S21919   4.762   0.923   9.640  0.4158 -0.1276 -0.5992
  190POPC  C21221920   4.685   0.840   9.461  0.0676 -0.1974  0.1831
  190POPC  H12R21921   4.787   0.845   9.416 -0.4944 -0.1744 -1.1333
  190POPC  H12S21922   4.625   0.930   9.434  0.6624 -0.0764 -0.8057
  190POPC  C21321923   4.635   0.715   9.398 -0.2186 -0.5682  0.1295
  190POPC  H13R21924   4.526   0.721   9.382  0.0973 -0.2521 -2.2623
  190POPC  H13S21925   4.668   0.629   9.460 -0.1035 -0.4437  0.2411
  190POPC  C21421926   4.703   0.683   9.267  1.1326  0.6000 -1.0768
  190POPC  H14R21927   4.654   0.589   9.234 -1.2824 -0.1032  3.5631
  190POPC  H14S21928   4.808   0.651   9.284  1.0609 -0.5128 -2.4819
  190POPC  C21521929   4.702   0.794   9.163  0.1740 -0.5831 -0.0643
  190POPC  H15R21930   4.773   0.767   9.082 -0.7418 -0.9314 -0.7686
  190POPC  H15S21931   4.722   0.897   9.200 -0.5662 -0.3460 -0.3115
  190POPC  C21621932   4.563   0.819   9.104 -0.8062  0.3422 -0.1755
  190POPC  H16R21933   4.501   0.865   9.184 -0.1416 -0.5638  0.8767
  190POPC  H16S21934   4.520   0.723   9.069 -1.3012  0.7240 -0.6491
  190POPC  C21721935   4.565   0.901   8.969 -0.0829  0.5012 -0.1272
  190POPC  H17R21936   4.604   1.004   8.985  0.1228 -0.0073  3.7574
  190POPC  H17S21937   4.460   0.912   8.936 -0.2114  0.6441  0.3141
  190POPC  C21821938   4.655   0.845   8.861 -0.2312  0.0383 -0.1965
  190POPC  H18R21939   4.662   0.913   8.773  0.8099  0.2960  0.0752
  190POPC  H18S21940   4.629   0.742   8.831 -1.3234  0.2835 -0.1374
  190POPC  H18T21941   4.758   0.842   8.902 -0.6485 -1.7638  0.8022
  190POPC   C3321942   5.172   0.739  10.308  0.0519  0.5430 -0.7749
  190POPC   H3X21943   5.133   0.789  10.400  0.6590 -1.5646  0.7024
  190POPC   H3Y21944   5.108   0.654  10.276  1.5205 -0.9043  0.0099
  190POPC   C3421945   5.191   0.841  10.199  0.0058 -0.1216 -0.0030
  190POPC   H4X21946   5.281   0.905  10.211 -0.3375  0.4078 -0.2662
  190POPC   H4Y21947   5.099   0.902  10.192  1.8238  2.6723 -1.3182
  190POPC   C3521948   5.200   0.771  10.057  0.4112  0.3354  0.0700
  190POPC   H5X21949   5.116   0.699  10.066 -0.3044  0.9945 -1.1293
  190POPC   H5Y21950   5.294   0.712  10.060 -0.8102 -1.8594 -1.7996
  190POPC   C3621951   5.208   0.869   9.942  0.5679 -0.3058  0.1469
  190POPC   H6X21952   5.307   0.920   9.951 -0.1390  1.0144  0.7715
  190POPC   H6Y21953   5.136   0.953   9.951  2.1245  0.9446  1.8427
  190POPC   C3721954   5.205   0.807   9.809  0.4809  0.6399  0.0688
  190POPC   H7X21955   5.108   0.753   9.802  1.3158 -0.8123 -1.1420
  190POPC   H7Y21956   5.285   0.730   9.804 -0.7259 -0.7191  1.0120
  190POPC   C3821957   5.219   0.902   9.693 -0.1216  0.2579 -0.8140
  190POPC   H8X21958   5.309   0.962   9.719 -1.0588  0.7979  1.3789
  190POPC   H8Y21959   5.123   0.957   9.688 -2.2380 -2.7650  2.1987
  190POPC   C3921960   5.250   0.828   9.562 -0.3601  0.1962  0.0688
  190POPC   H9X21961   5.191   0.735   9.554 -0.3965  0.2011  0.2662
  190POPC   H9Y21962   5.358   0.802   9.550 -0.9150 -1.8472 -0.8764
  190POPC  C31021963   5.209   0.907   9.436  0.3999  0.4550 -0.0932
  190POPC  H10X21964   5.259   1.006   9.423 -1.4955  1.2836 -1.6772
  190POPC  H10Y21965   5.102   0.931   9.454 -0.0573 -1.9491  0.6684
  190POPC  C31121966   5.218   0.836   9.299  0.1548 -0.3628 -0.0670
  190POPC  H11X21967   5.162   0.741   9.284 -2.3995  1.4766 -3.5903
  190POPC  H11Y21968   5.326   0.823   9.275  0.6503 -0.6689  2.0837
  190POPC  C31221969   5.172   0.927   9.186 -0.3028 -0.1479  0.4208
  190POPC  H12X21970   5.233   1.019   9.201  0.3693 -0.6103  0.5486
  190POPC  H12Y21971   5.067   0.954   9.212  0.4349  3.0382  0.4860
  190POPC  C31321972   5.169   0.861   9.048  0.1341  0.5588  0.4191
  190POPC  H13X21973   5.097   0.776   9.044  1.4515 -0.6141  1.0429
  190POPC  H13Y21974   5.275   0.829   9.043  0.2837  1.0571  0.3016
  190POPC  C31421975   5.142   0.948   8.926  0.4382 -0.1512  0.0038
  190POPC  H14X21976   5.213   1.033   8.933 -2.1778  2.3892 -2.2560
  190POPC  H14Y21977   5.038   0.985   8.921  0.7393  1.0454  1.6545
  190POPC  C31521978   5.166   0.890   8.782 -0.0884 -0.1271  0.0576
  190POPC  H15X21979   5.276   0.878   8.769  0.0083 -2.1806  2.1267
  190POPC  H15Y21980   5.135   0.968   8.709 -0.6800  1.5060  1.9516
  190POPC  C31621981   5.107   0.753   8.747 -0.1905  0.7130  0.2231
  190POPC  H16X21982   5.157   0.731   8.650  1.0966  1.5982  0.6546
  190POPC  H16Y21983   4.998   0.744   8.726 -0.0148  0.9674 -0.8785
  190POPC  H16Z21984   5.143   0.689   8.830  3.6161  3.3791  0.9086
  191POPC     N21985   3.580   2.009   6.003 -0.6744  0.3117  0.3310
  191POPC   C1221986   3.533   1.925   6.125  0.6113 -0.8860  1.2141
  191POPC  H12A21987   3.573   1.827   6.105  0.5415 -0.3706 -2.0541
  191POPC  H12B21988   3.427   1.904   6.123  0.5106 -0.3554  0.2045
  191POPC   C1321989   3.493   2.136   5.999 -0.2192  0.2092  0.4912
  191POPC  H13A21990   3.523   2.195   5.914 -0.7393 -0.2386 -0.0141
  191POPC  H13B21991   3.387   2.117   5.989 -0.5741  1.2495  2.0296
  191POPC  H13C21992   3.500   2.194   6.090 -0.7868  0.0080  0.6689
  191POPC   C1421993   3.729   2.034   6.016  0.6068 -0.2090 -0.0593
  191POPC  H14A21994   3.752   2.043   6.121  0.0185 -0.3079  0.0850
  191POPC  H14B21995   3.783   1.949   5.977  0.9828  1.2708 -3.0350
  191POPC  H14C21996   3.752   2.123   5.960 -1.4029  0.1930 -0.3331
  191POPC   C1521997   3.567   1.937   5.882 -0.1331  0.4874  0.8468
  191POPC  H15A21998   3.602   1.999   5.801 -2.2057  3.2718  1.9213
  191POPC  H15B21999   3.464   1.925   5.853  0.2744 -0.1078 -0.3952
  191POPC  H15C22000   3.615   1.841   5.879  0.0079  0.5802 -1.3809
  191POPC   C1122001   3.565   1.973   6.264 -0.6136 -0.6593  0.5958
  191POPC  H11A22002   3.502   1.926   6.342  0.2729 -0.1815  1.6289
  191POPC  H11B22003   3.544   2.082   6.267 -0.0198 -0.5324  0.4057
  191POPC     P22004   3.760   1.841   6.382 -0.5953 -0.1739  0.6480
  191POPC   O1322005   3.892   1.872   6.446  0.5223  0.0634 -0.7438
  191POPC   O1422006   3.754   1.719   6.294  0.2563 -0.8152 -0.4749
  191POPC   O1222007   3.706   1.963   6.296 -0.3690 -0.4501 -0.0133
  191POPC   O1122008   3.645   1.826   6.490  0.3118  0.1139  0.2487
  191POPC    C122009   3.663   1.871   6.627 -0.5463 -0.0152  0.4313
  191POPC    HA22010   3.565   1.885   6.677 -0.9701 -0.1332 -0.3567
  191POPC    HB22011   3.722   1.965   6.622  0.3922 -0.6407 -1.5450
  191POPC    C222012   3.746   1.775   6.712 -0.2330  0.0468  0.0058
  191POPC    HS22013   3.849   1.772   6.670  0.4163 -0.4066  1.5360
  191POPC   O2122014   3.683   1.647   6.720  0.6725  0.2452  0.0401
  191POPC   C2122015   3.765   1.541   6.698  0.1854  0.2476 -0.4338
  191POPC   O2222016   3.885   1.550   6.674  0.2323  0.2199  0.2266
  191POPC   C2222017   3.689   1.412   6.727  0.0949  0.8642 -0.2485
  191POPC   H2R22018   3.614   1.390   6.648 -1.0017 -0.1112  1.0037
  191POPC   H2S22019   3.650   1.419   6.831  2.0173 -0.1287  0.5849
  191POPC    C322020   3.763   1.832   6.857  0.6524  0.1122 -0.2223
  191POPC    HX22021   3.660   1.839   6.899  0.7157  0.0502 -0.0534
  191POPC    HY22022   3.788   1.939   6.850  0.6015  0.0446 -1.8007
  191POPC   O3122023   3.858   1.752   6.924 -0.3677  0.0218 -0.0513
  191POPC   C3122024   3.814   1.658   7.007 -0.3527  0.6051  0.4399
  191POPC   O3222025   3.699   1.617   7.014 -0.1091  0.2792 -0.0720
  191POPC   C3222026   3.929   1.617   7.100  0.0782 -0.0725 -0.1032
  191POPC   H2X22027   4.024   1.642   7.047  0.0496 -0.3536 -0.2897
  191POPC   H2Y22028   3.932   1.506   7.112  1.5845 -0.0878 -0.3721
  191POPC   C2322029   3.769   1.275   6.721 -0.1148 -0.4500 -0.2362
  191POPC   H3R22030   3.803   1.259   6.617  0.3121 -0.0915 -0.1528
  191POPC   H3S22031   3.694   1.195   6.737 -1.2225  0.4563 -0.7220
  191POPC   C2422032   3.880   1.257   6.825  0.3936 -0.2718  0.3035
  191POPC   H4R22033   3.946   1.347   6.824  1.7052 -1.1711  1.5873
  191POPC   H4S22034   3.948   1.175   6.792 -1.7719 -2.4278  0.9318
  191POPC   C2522035   3.836   1.246   6.968  0.2655 -0.2210  0.7284
  191POPC   H5R22036   3.782   1.149   6.974  2.1546 -1.3010  1.2215
  191POPC   H5S22037   3.767   1.331   6.985 -1.7127 -1.4882 -0.6081
  191POPC   C2622038   3.964   1.238   7.049 -1.2648  0.3939 -0.0497
  191POPC   H6R22039   3.934   1.236   7.156  0.4568 -0.6491  0.4598
  191POPC   H6S22040   4.032   1.322   7.020  0.3195 -0.3523  1.3555
  191POPC   C2722041   4.046   1.104   7.027  0.1455 -0.8619 -0.2070
  191POPC   H7R22042   4.098   1.099   6.929  1.2028 -1.5417  0.3589
  191POPC   H7S22043   3.979   1.016   7.019  0.6352 -1.4648  1.7398
  191POPC   C2822044   4.151   1.094   7.143 -0.1871  0.4606  0.7014
  191POPC   H8R22045   4.099   1.085   7.240  2.0553  1.5749  2.0930
  191POPC   H8S22046   4.211   1.187   7.143 -1.0676  1.0418 -0.1397
  191POPC   C2922047   4.236   0.976   7.124  0.0562  0.3797  0.9177
  191POPC   H9122048   4.254   0.953   7.018  0.5303  1.2784  0.7929
  191POPC  C21022049   4.306   0.916   7.222  0.6296  0.1917 -0.4262
  191POPC  H10122050   4.370   0.832   7.189  0.3076 -0.3418  0.2972
  191POPC  C21122051   4.299   0.951   7.367  0.4359 -0.0540 -0.1259
  191POPC  H11R22052   4.216   0.894   7.414 -0.7669  0.1531 -1.8787
  191POPC  H11S22053   4.279   1.060   7.375  3.8583  0.5362  3.4223
  191POPC  C21222054   4.430   0.929   7.447  0.1142 -0.1681  0.9708
  191POPC  H12R22055   4.509   0.989   7.396  0.5775 -1.3070  0.2965
  191POPC  H12S22056   4.457   0.822   7.457  0.8165  0.0142  1.0566
  191POPC  C21322057   4.416   0.975   7.592 -0.0370  0.3571  0.2726
  191POPC  H13R22058   4.354   0.891   7.629  0.1822 -1.2970 -2.7864
  191POPC  H13S22059   4.356   1.068   7.598  2.1624  1.8589  0.2066
  191POPC  C21422060   4.554   0.979   7.664  0.7600 -0.5330  0.0591
  191POPC  H14R22061   4.620   1.056   7.620  0.8382  0.4176  1.7475
  191POPC  H14S22062   4.611   0.887   7.638  0.3893 -1.0798  1.1119
  191POPC  C21522063   4.554   1.007   7.813  0.0097 -0.2935 -0.0957
  191POPC  H15R22064   4.480   0.938   7.859  0.5590  0.7046  2.4892
  191POPC  H15S22065   4.512   1.107   7.838 -0.0159 -0.3368  0.0391
  191POPC  C21622066   4.689   0.981   7.883 -0.0943 -0.1785  0.3640
  191POPC  H16R22067   4.763   1.041   7.828  2.9535 -1.2648  2.9692
  191POPC  H16S22068   4.708   0.872   7.869  0.9029  0.1317 -0.8246
  191POPC  C21722069   4.702   1.034   8.028  0.0914  0.3262 -0.1523
  191POPC  H17R22070   4.619   1.004   8.096  0.8514  1.5075  1.3570
  191POPC  H17S22071   4.685   1.143   8.012  0.3236  0.0060 -2.9927
  191POPC  C21822072   4.845   1.005   8.084  0.5263  0.0508  0.4748
  191POPC  H18R22073   4.927   1.028   8.012  0.8466 -0.2825  0.7261
  191POPC  H18S22074   4.843   0.898   8.114 -0.8802  0.0935  0.6042
  191POPC  H18T22075   4.855   1.069   8.175 -0.3993 -0.0501  0.6521
  191POPC   C3322076   3.915   1.708   7.224  0.0431  0.2232 -0.7523
  191POPC   H3X22077   3.823   1.678   7.278 -1.0179  0.7870 -2.1906
  191POPC   H3Y22078   3.918   1.818   7.213  0.4861  0.2484 -0.4035
  191POPC   C3422079   4.034   1.676   7.321 -0.0406 -0.5957  0.4231
  191POPC   H4X22080   4.029   1.730   7.417 -0.5885  0.9657 -0.4508
  191POPC   H4Y22081   4.126   1.714   7.271 -0.6498  1.6350  0.9256
  191POPC   C3522082   4.046   1.528   7.375  0.1345  0.3400 -1.0047
  191POPC   H5X22083   4.148   1.507   7.413 -0.5895 -1.8612 -0.1302
  191POPC   H5Y22084   4.035   1.455   7.292  2.3680 -0.2246 -0.8465
  191POPC   C3622085   3.955   1.497   7.491  0.2734  0.2834 -0.6047
  191POPC   H6X22086   3.852   1.527   7.461  0.6170 -0.1361 -2.2740
  191POPC   H6Y22087   3.986   1.548   7.585  0.8198  1.6433 -1.4834
  191POPC   C3722088   3.955   1.344   7.516  0.3712 -0.9331  1.0967
  191POPC   H7X22089   3.944   1.295   7.417  0.3123 -0.4587  0.8661
  191POPC   H7Y22090   3.859   1.333   7.569 -0.0340 -0.3880  0.4934
  191POPC   C3822091   4.074   1.290   7.591 -0.2455 -0.5092 -0.3522
  191POPC   H8X22092   4.127   1.381   7.626 -1.7072  0.2852 -0.1016
  191POPC   H8Y22093   4.135   1.218   7.534  0.5389  0.4497 -0.7636
  191POPC   C3922094   4.023   1.220   7.712 -0.3613  0.4140  0.1473
  191POPC   H9X22095   3.974   1.124   7.685  0.2861  0.1834 -0.2135
  191POPC   H9Y22096   3.951   1.278   7.773 -0.1642  0.2319  0.5613
  191POPC  C31022097   4.134   1.178   7.808 -0.3804  0.6085  0.1567
  191POPC  H10X22098   4.213   1.254   7.824  1.0948 -0.5255 -1.3318
  191POPC  H10Y22099   4.183   1.088   7.763 -3.0055 -1.3646  1.0207
  191POPC  C31122100   4.084   1.137   7.949 -0.6020 -0.4639  0.2762
  191POPC  H11X22101   4.009   1.056   7.945  1.6436 -2.6238 -1.2067
  191POPC  H11Y22102   4.053   1.216   8.021  3.6177 -1.1925  3.2872
  191POPC  C31222103   4.197   1.084   8.041  0.1486  0.3660  0.3927
  191POPC  H12X22104   4.278   1.160   8.048  1.7995 -1.4714  2.8297
  191POPC  H12Y22105   4.245   0.994   7.997  0.3111  1.4652 -1.8596
  191POPC  C31322106   4.142   1.051   8.175 -0.5616  1.0557 -1.0455
  191POPC  H13X22107   4.087   0.955   8.169 -1.0414  1.3028 -0.6970
  191POPC  H13Y22108   4.064   1.124   8.207 -1.7693 -1.5001  2.3850
  191POPC  C31422109   4.248   1.044   8.281 -0.4599  0.3659  0.7121
  191POPC  H14X22110   4.199   0.995   8.368 -0.9673 -2.9777 -1.3193
  191POPC  H14Y22111   4.280   1.147   8.306  0.4840  0.4539 -0.7622
  191POPC  C31522112   4.377   0.969   8.249 -0.0015  0.6441  0.2185
  191POPC  H15X22113   4.432   1.013   8.163  2.1272 -3.4143 -0.7414
  191POPC  H15Y22114   4.356   0.865   8.219 -0.8958  1.3977 -1.9775
  191POPC  C31622115   4.477   0.983   8.376  0.0221  0.3173 -0.7719
  191POPC  H16X22116   4.429   0.931   8.462  1.7881  0.0579  0.0970
  191POPC  H16Y22117   4.494   1.092   8.390 -0.7692  0.3393  0.1039
  191POPC  H16Z22118   4.579   0.939   8.368 -0.0104  0.1321 -0.2104
  192POPC     N22119   2.275   4.610   6.000  0.4925 -0.1196  0.4071
  192POPC   C1222120   2.239   4.517   6.113  0.2373  0.1557 -0.4693
  192POPC  H12A22121   2.141   4.545   6.150  0.4454  0.6914 -0.3204
  192POPC  H12B22122   2.308   4.535   6.193  1.6422 -1.8132 -1.1537
  192POPC   C1322123   2.175   4.577   5.891  1.1810 -0.1613 -0.6295
  192POPC  H13A22124   2.073   4.594   5.921  1.2349 -3.0640  1.6413
  192POPC  H13B22125   2.198   4.635   5.803 -0.6701  3.5789  1.0983
  192POPC  H13C22126   2.181   4.472   5.870 -1.6900 -0.6545  0.5381
  192POPC   C1422127   2.265   4.752   6.053  0.6365  0.4850 -0.4627
  192POPC  H14A22128   2.179   4.776   6.114 -0.3593 -2.7314 -0.3949
  192POPC  H14B22129   2.346   4.770   6.123  0.7018  0.3278 -0.4979
  192POPC  H14C22130   2.267   4.829   5.978 -1.2106  0.7198 -0.3111
  192POPC   C1522131   2.413   4.590   5.947  0.1463  0.2759  0.2559
  192POPC  H15A22132   2.486   4.621   6.020 -0.3095 -2.3106  1.9774
  192POPC  H15B22133   2.429   4.630   5.848  0.7592  3.5809  1.5822
  192POPC  H15C22134   2.431   4.484   5.935  2.9109  0.6690  0.2947
  192POPC   C1122135   2.260   4.366   6.070  0.0173 -0.1756  0.1561
  192POPC  H11A22136   2.199   4.339   5.982 -0.7942 -1.5512  1.0969
  192POPC  H11B22137   2.209   4.305   6.148  0.5463  0.7960  1.3111
  192POPC     P22138   2.477   4.250   6.178 -0.0394 -0.1535  0.1471
  192POPC   O1322139   2.617   4.236   6.143  0.1632  0.7559  0.1660
  192POPC   O1422140   2.400   4.119   6.196 -0.1505  0.2559 -0.3736
  192POPC   O1222141   2.398   4.324   6.060 -0.6132  0.1310  0.2656
  192POPC   O1122142   2.458   4.336   6.310 -0.0079  0.7481 -0.7230
  192POPC    C122143   2.553   4.436   6.350 -0.0500  0.4609 -0.3569
  192POPC    HA22144   2.500   4.518   6.403  1.4753  0.7398  0.8025
  192POPC    HB22145   2.608   4.488   6.269  2.7003  0.2054  1.2456
  192POPC    C222146   2.655   4.388   6.457 -0.3447  0.6153 -0.0789
  192POPC    HS22147   2.712   4.311   6.402  0.1345 -0.2723  1.6020
  192POPC   O2122148   2.578   4.324   6.563 -0.0416  0.1187  0.2875
  192POPC   C2122149   2.618   4.202   6.593  0.1547 -0.1007  0.2515
  192POPC   O2222150   2.685   4.128   6.528 -0.2085  0.0864  0.7064
  192POPC   C2222151   2.566   4.165   6.734  0.0496 -0.0046  0.5900
  192POPC   H2R22152   2.468   4.116   6.713 -0.1422  0.3055  0.7607
  192POPC   H2S22153   2.549   4.259   6.791 -1.1859 -0.3918  0.8970
  192POPC    C322154   2.735   4.508   6.517 -0.3234  0.3053  0.4548
  192POPC    HX22155   2.665   4.586   6.554 -3.0569 -2.3070  1.1604
  192POPC    HY22156   2.797   4.553   6.437 -0.6051 -0.7177 -0.3583
  192POPC   O3122157   2.810   4.474   6.641  0.3307  0.1634  0.1559
  192POPC   C3122158   2.937   4.441   6.621 -0.2615  0.9365  0.3089
  192POPC   O3222159   3.002   4.452   6.519  0.3964  0.1267 -0.8516
  192POPC   C3222160   3.008   4.407   6.755  0.2094  0.6044  0.0654
  192POPC   H2X22161   3.089   4.483   6.761  1.4539 -0.7394  1.1209
  192POPC   H2Y22162   3.068   4.314   6.760 -3.0971 -1.7143 -0.1090
  192POPC   C2322163   2.658   4.074   6.816 -0.1589  0.1446 -0.6985
  192POPC   H3R22164   2.759   4.120   6.815  0.4235 -0.9152  1.7282
  192POPC   H3S22165   2.687   3.973   6.779 -2.1380 -0.7180 -0.0126
  192POPC   C2422166   2.613   4.047   6.962  0.3843  0.4762  0.2639
  192POPC   H4R22167   2.709   4.008   7.001  1.3916  0.3155 -2.1984
  192POPC   H4S22168   2.539   3.964   6.951  0.9223 -0.0819  0.8239
  192POPC   C2522169   2.548   4.162   7.040  0.2700  1.0716  0.1476
  192POPC   H5R22170   2.463   4.194   6.975  1.6456 -0.3495 -2.5154
  192POPC   H5S22171   2.625   4.239   7.017  0.7449 -0.1799 -2.9967
  192POPC   C2622172   2.516   4.139   7.180 -0.0222 -0.1173 -0.2710
  192POPC   H6R22173   2.443   4.057   7.199  1.5345 -1.6192 -0.4850
  192POPC   H6S22174   2.464   4.233   7.208  1.2703  0.8129 -0.8779
  192POPC   C2722175   2.636   4.130   7.278  0.6378  0.0801  0.3218
  192POPC   H7R22176   2.703   4.212   7.243 -1.0318  0.0998 -3.2787
  192POPC   H7S22177   2.688   4.033   7.265 -0.2705 -0.0795 -2.8493
  192POPC   C2822178   2.586   4.157   7.426 -0.3288 -0.7661 -0.3567
  192POPC   H8R22179   2.535   4.255   7.416  1.1034  0.1161  0.5598
  192POPC   H8S22180   2.673   4.171   7.493 -1.1553 -0.3095  0.6415
  192POPC   C2922181   2.499   4.043   7.479  0.4279  0.4918  0.1386
  192POPC   H9122182   2.451   3.975   7.407  1.9719 -2.4697  1.7020
  192POPC  C21022183   2.481   4.003   7.603  0.2453 -0.5372 -0.0465
  192POPC  H10122184   2.412   3.919   7.623  1.2023 -1.0696  1.1223
  192POPC  C21122185   2.540   4.062   7.729  0.1608 -0.2396  0.3807
  192POPC  H11R22186   2.622   4.132   7.702 -1.1534 -0.0577 -3.9231
  192POPC  H11S22187   2.579   3.974   7.785  0.9312 -1.5635 -2.1090
  192POPC  C21222188   2.424   4.132   7.805 -0.3476  0.7675 -0.5366
  192POPC  H12R22189   2.345   4.063   7.840 -0.3338  1.1785  0.3176
  192POPC  H12S22190   2.375   4.209   7.742 -1.5422 -0.5586 -1.2763
  192POPC  C21322191   2.463   4.209   7.930  0.6225 -0.1732  0.9378
  192POPC  H13R22192   2.377   4.277   7.950 -0.8488 -1.1197 -1.7066
  192POPC  H13S22193   2.549   4.275   7.903  1.7067 -1.0790  2.0192
  192POPC  C21422194   2.510   4.122   8.045 -0.2053 -0.1057 -0.0460
  192POPC  H14R22195   2.563   4.177   8.125 -0.4209  0.0262  0.0078
  192POPC  H14S22196   2.585   4.048   8.010  0.0322 -0.0141  0.2673
  192POPC  C21522197   2.407   4.036   8.121 -0.6645 -0.8452 -0.2539
  192POPC  H15R22198   2.374   3.949   8.060  0.5393 -0.9721 -0.7518
  192POPC  H15S22199   2.322   4.100   8.152 -0.6345 -0.1692 -1.5290
  192POPC  C21622200   2.467   3.971   8.247  0.6607 -0.6966  0.9028
  192POPC  H16R22201   2.491   4.055   8.316  0.7138  1.6549 -1.7855
  192POPC  H16S22202   2.565   3.923   8.229  0.4207 -0.5105 -1.0831
  192POPC  C21722203   2.363   3.884   8.320  0.3585  0.3300 -1.1431
  192POPC  H17R22204   2.329   3.802   8.253 -0.0951 -1.2039  0.8761
  192POPC  H17S22205   2.280   3.952   8.346 -0.4647 -1.0420 -0.0838
  192POPC  C21822206   2.410   3.829   8.455 -0.2449  0.0148 -0.4319
  192POPC  H18R22207   2.472   3.737   8.446  0.9598  0.3865  2.7570
  192POPC  H18S22208   2.323   3.818   8.524 -1.2877 -1.5240 -1.9247
  192POPC  H18T22209   2.477   3.895   8.514  1.4000 -2.3069  0.4561
  192POPC   C3322210   2.927   4.390   6.880  0.4518 -0.0654 -0.3341
  192POPC   H3X22211   2.862   4.300   6.878  3.2241 -2.1947 -1.5019
  192POPC   H3Y22212   2.855   4.474   6.885 -1.0164 -1.2642 -0.6397
  192POPC   C3422213   3.005   4.389   7.015  0.0865  0.9570 -0.2497
  192POPC   H4X22214   3.071   4.478   7.020 -0.8036  1.5721  0.9454
  192POPC   H4Y22215   3.080   4.307   7.018  0.7602  1.5445 -0.7219
  192POPC   C3522216   2.906   4.380   7.130  0.5845  0.0192 -0.7879
  192POPC   H5X22217   2.956   4.343   7.223 -1.9579 -0.1776  0.5955
  192POPC   H5Y22218   2.832   4.302   7.102 -1.5643  0.4086  3.0356
  192POPC   C3622219   2.838   4.512   7.172 -0.2821 -0.1613  0.5212
  192POPC   H6X22220   2.788   4.538   7.077  2.9358  0.3421 -1.1648
  192POPC   H6Y22221   2.908   4.598   7.182  0.2350 -0.2536 -1.8175
  192POPC   C3722222   2.725   4.509   7.285  0.0119 -0.0180  0.0748
  192POPC   H7X22223   2.647   4.438   7.251  0.4921 -0.3189 -0.4265
  192POPC   H7Y22224   2.693   4.613   7.305  1.4506  0.4285  0.1763
  192POPC   C3822225   2.756   4.461   7.430 -0.1917 -0.1317  0.7342
  192POPC   H8X22226   2.788   4.354   7.432  3.4484  0.8288  2.2022
  192POPC   H8Y22227   2.662   4.466   7.488  0.8510  0.1252  2.4663
  192POPC   C3922228   2.874   4.532   7.507 -0.2413 -0.0351  0.3116
  192POPC   H9X22229   2.870   4.641   7.485 -1.4101 -0.4070 -1.5703
  192POPC   H9Y22230   2.973   4.501   7.469  0.5557 -0.1718  2.3597
  192POPC  C31022231   2.872   4.532   7.654 -0.1537  0.1989 -0.0336
  192POPC  H10X22232   2.787   4.591   7.694 -0.7974 -1.1100  0.5995
  192POPC  H10Y22233   2.964   4.572   7.701  0.1216  0.7337 -1.0025
  192POPC  C31122234   2.842   4.394   7.709  0.2219 -0.3011 -0.1354
  192POPC  H11X22235   2.909   4.323   7.656 -0.9369 -1.1322 -0.5362
  192POPC  H11Y22236   2.743   4.355   7.678  1.1172 -1.8967 -1.1513
  192POPC  C31222237   2.867   4.370   7.861  0.1026 -1.0458 -0.4442
  192POPC  H12X22238   2.977   4.372   7.873 -0.0121 -0.6554  0.6394
  192POPC  H12Y22239   2.830   4.270   7.893  1.0990 -2.3512 -3.0279
  192POPC  C31322240   2.813   4.477   7.946 -0.1882  0.1273 -0.0648
  192POPC  H13X22241   2.708   4.509   7.927 -0.7300  0.7812  3.3626
  192POPC  H13Y22242   2.878   4.567   7.953  0.7699 -0.6321  1.1917
  192POPC  C31422243   2.808   4.440   8.092  0.5105 -0.4546 -0.0412
  192POPC  H14X22244   2.891   4.370   8.116  1.6588  0.4626 -1.2013
  192POPC  H14Y22245   2.717   4.380   8.113 -0.3424 -0.1152 -2.4708
  192POPC  C31522246   2.816   4.552   8.189 -0.4701 -0.4056 -0.0900
  192POPC  H15X22247   2.752   4.635   8.153 -0.6484 -0.1289  0.8309
  192POPC  H15Y22248   2.923   4.581   8.177  0.0489 -2.4515 -0.9691
  192POPC  C31622249   2.793   4.523   8.336  0.2752 -0.2242  0.0857
  192POPC  H16X22250   2.795   4.622   8.385 -0.9514 -0.3321  0.3783
  192POPC  H16Y22251   2.866   4.455   8.384 -0.1823 -0.3539  0.6042
  192POPC  H16Z22252   2.688   4.492   8.355  0.0962  1.3588  1.8433
  193SOD    SOD22253   3.310   3.925   1.984 -0.0668  0.0663  0.1854
  194SOD    SOD22254   0.376   6.030  15.118  0.9486 -0.2166  0.2114
  195SOD    SOD22255   2.681   4.417  11.371  0.2186 -0.2536 -0.2221
  196SOD    SOD22256   6.581   2.603   2.335 -0.3596 -0.3222  0.3071
  197SOD    SOD22257   1.512   1.084   6.704 -0.3242 -0.0485 -0.2472
  198SOD    SOD22258   1.370   0.823   2.306  0.2264  0.0102  0.2775
  199SOD    SOD22259   4.867   3.906   5.744  0.0381 -0.3925  0.4176
  200SOD    SOD22260   1.041   2.477   1.155  0.4776  0.2545  0.3229
  201SOD    SOD22261   4.420   0.747  14.728  0.3674  0.1469  0.3894
  202SOD    SOD22262   2.048   1.449   5.717 -0.4116  0.2911  0.3090
  203SOD    SOD22263   2.487   4.804  17.030 -0.0129  0.2449 -0.2529
  204SOD    SOD22264   1.325   0.132   3.183  0.2187 -0.1442 -0.3569
  205SOD    SOD22265   6.265   4.844  10.463 -0.1118 -0.8934 -0.1798
  206SOD    SOD22266   4.319   2.834  11.295  0.1539 -0.5260  0.2292
  207SOD    SOD22267   0.310   6.656   0.241 -0.4932 -0.2153 -0.3244
  208SOD    SOD22268   1.865   3.646   4.000 -0.1580 -0.6754  0.1987
  209SOD    SOD22269   5.653   5.566  14.936 -0.1579 -0.5266 -0.1161
  210SOD    SOD22270   2.459   4.923  11.121 -0.0223 -0.2227 -0.2957
  211SOD    SOD22271   1.236   5.223   3.421  0.5393 -0.0656  0.0312
  212SOD    SOD22272   5.941   2.480  16.613 -0.0642  0.2526 -0.1410
  213SOD    SOD22273   0.060   4.474  14.148  0.1215  0.3361  0.4880
  214SOD    SOD22274   3.609   6.102  14.960  0.2225  0.2667  0.2549
  215SOD    SOD22275   3.659   1.928   5.488  0.1318 -0.0464  0.0528
  216SOD    SOD22276   0.788   0.098   6.368 -0.4112  0.1709  0.0707
  217SOD    SOD22277   3.326   2.988   0.086 -0.0369 -0.1552 -0.1332
  218SOD    SOD22278   6.427   2.676   4.858 -0.0425  0.1766 -0.2293
  219SOD    SOD22279   6.304   5.007   3.475 -0.2742  0.1094  0.2381
  220SOD    SOD22280   0.027   0.410   1.405 -0.2496  0.2302 -0.1222
  221SOD    SOD22281   3.871   5.975  16.557  0.2341  0.3509 -0.4506
  222SOD    SOD22282   4.147   2.506   2.550  0.4597  0.3420  0.4323
  223SOD    SOD22283   2.682   3.729   6.263 -0.2418 -0.5056  0.0857
  224SOD    SOD22284   4.286   5.322  12.253  0.5768 -0.0057  0.0456
  225SOD    SOD22285   3.366   1.282   2.436  0.2733 -0.2440 -0.5000
  226SOD    SOD22286   5.414   4.661   5.924  0.0285 -0.0644 -0.4896
  227SOD    SOD22287   4.988   6.542   0.849  0.1250 -0.1443 -0.1804
  228SOD    SOD22288   2.863   0.550  13.174  0.2751  0.1471 -0.0363
  229SOD    SOD22289   5.250   5.638   3.668 -0.4427  0.5107 -0.3459
  230SOD    SOD22290   4.591   1.017  11.235 -0.1925  0.1904 -0.3534
  231SOD    SOD22291   5.660   4.778   1.212 -0.7499 -0.1448  0.0974
  232SOD    SOD22292   5.264   4.082   5.097  0.0214  0.3168  0.1170
  233SOD    SOD22293   2.485   5.487   2.147 -0.0627  0.5105 -0.1252
  234SOD    SOD22294   6.767   3.609   6.154  0.3713  0.0159  0.0581
  235SOD    SOD22295   3.798   0.692   6.201  0.1361  0.0235  0.0983
  236SOD    SOD22296   2.607   0.260  16.090 -0.2614 -0.2616  0.4766
  237SOD    SOD22297   2.069   1.588  12.546 -0.2842  0.1716 -0.5412
  238SOD    SOD22298   6.370   1.232   0.674  0.4684  0.2187  0.1990
  239SOD    SOD22299   5.720   3.174   3.508 -0.0700 -0.1489  0.2972
  240SOD    SOD22300   1.719   0.316  16.255  0.1053  0.5100 -0.4184
  241SOD    SOD22301   3.730   4.613   5.603  0.2153  0.1054 -0.3260
  242SOD    SOD22302   6.569   0.326   6.562 -0.0794 -0.0456  0.6054
  243SOD    SOD22303   5.348   1.718  13.054 -0.0895 -0.2787 -0.4726
  244SOD    SOD22304   2.129   4.455   2.123  0.0087  0.8808  0.5723
  245SOD    SOD22305   3.462   3.154  12.924 -0.5954  0.1525  0.5917
  246SOD    SOD22306   0.830   3.463   0.412  0.0790 -0.4931  0.3121
  247SOD    SOD22307   0.779   0.899   3.592 -0.4962  0.2454 -0.5915
  248SOD    SOD22308   1.104   2.511   5.802  0.3010  0.0353 -0.8053
  249SOD    SOD22309   4.634   3.513  15.660 -0.3175  0.6305  0.1452
  250SOD    SOD22310   3.998   2.115   2.980  0.2782 -0.2791  0.3796
  251SOD    SOD22311   3.469   1.860  14.572  0.1864 -0.2471 -0.5139
  252SOD    SOD22312   5.089   2.604  14.156  0.3701 -0.0364 -0.4071
  253SOD    SOD22313   3.617   5.105  12.524  0.2842 -0.4214  0.0178
  254SOD    SOD22314   2.909   4.639  14.601  0.0295  0.0860 -0.0664
  255SOD    SOD22315   5.529   0.081  12.395  0.3071 -0.0759  0.0722
  256SOD    SOD22316   2.160   2.863   5.432 -0.4029  0.1547  0.5231
  257SOD    SOD22317   2.888   2.616   6.267 -0.2634 -0.2089 -0.2577
  258SOD    SOD22318   3.016   3.151  13.526  0.4400  0.0227 -0.3645
  259SOD    SOD22319   5.791   0.803  11.631  0.1236  0.0506 -0.0489
  260SOD    SOD22320   2.513   4.032   4.082 -0.7100  0.4812  0.6029
  261SOD    SOD22321   1.526   1.356  12.616 -0.2518 -0.3079  0.3151
  262SOD    SOD22322   6.780   0.615   5.311  0.4546  0.2146  0.3979
  263SOD    SOD22323   0.179   3.393  13.063  0.3082  0.1053 -0.3752
  264SOD    SOD22324   2.523   5.870   5.439  0.0473 -0.3191  0.4954
  265SOD    SOD22325   5.342   3.671   4.445 -0.2818  0.1483  0.4498
  266SOD    SOD22326   1.678   0.825  10.757 -0.4714 -0.3063  0.3882
  267SOD    SOD22327   0.587   6.315  15.808  0.6910  0.1840 -0.0792
  268SOD    SOD22328   0.809   4.436  11.104  0.1090  0.3870 -0.0325
  269SOD    SOD22329   3.658   1.359  10.884 -0.4706  0.0646 -0.4918
  270CLA    CLA22330   4.280   0.931   0.644  0.1028 -0.2465 -0.1118
  271CLA    CLA22331   0.307   2.042   5.067  0.3973 -0.2156 -0.2290
  272CLA    CLA22332   0.125   6.184  15.681  0.4219  0.1836  0.4522
  273CLA    CLA22333   5.599   2.437   0.390  0.0399  0.4537  0.3165
  274CLA    CLA22334   2.844   1.731   2.060  0.1761 -0.0164 -0.1660
  275CLA    CLA22335   1.976   3.273   5.330 -0.0127  0.1425  0.2045
  276CLA    CLA22336   3.862   5.243   2.492  0.2645 -0.0771  0.1162
  277CLA    CLA22337   2.279   4.396   2.584  0.4973 -0.0882 -0.2393
  278CLA    CLA22338   5.660   4.406   1.401 -0.1937  0.1026 -0.2449
  279CLA    CLA22339   2.176   5.013   5.829  0.4439  0.3075  0.0196
  280CLA    CLA22340   3.500   6.730  16.331 -0.1453  0.0537  0.3955
  281CLA    CLA22341   1.714   4.814   1.219  0.0199  0.0698 -0.0848
  282CLA    CLA22342   3.465   6.123  15.481 -0.2958 -0.0153 -0.0722
  283CLA    CLA22343   4.522   6.647   4.843 -0.1561 -0.4579  0.0824
  284CLA    CLA22344   5.376   4.508   4.149  0.0966  0.1301 -0.4991
  285CLA    CLA22345   2.661   6.373   1.400  0.1026  0.3425  0.3453
  286CLA    CLA22346   4.592   6.725  11.986 -0.2396  0.1669 -0.2881
  287CLA    CLA22347   3.841   0.183   4.791  0.2871 -0.0048 -0.1050
  288CLA    CLA22348   4.272   4.913   2.934 -0.3430 -0.2257 -0.3361
  289CLA    CLA22349   0.536   6.609  11.616  0.0524  0.0026 -0.4736
  290CLA    CLA22350   3.199   0.703   2.220 -0.1260 -0.0922  0.2748
  291CLA    CLA22351   2.268   5.892  17.175  0.1961 -0.0502 -0.0864
  292CLA    CLA22352   0.096   4.713   2.252 -0.2181 -0.1015 -0.3984
  293CLA    CLA22353   6.666   2.530   1.738  0.0887  0.1098 -0.1136
  294CLA    CLA22354   2.267   1.936  14.490 -0.3730 -0.1653  0.8219
  295CLA    CLA22355   0.659   2.040   2.277 -0.3093 -0.4760  0.2376
  296CLA    CLA22356   2.330   4.237  15.691  0.5688 -0.0372  0.2300
  297CLA    CLA22357   0.244   2.818  14.597 -0.2228  0.5295 -0.1021
  298CLA    CLA22358   2.359   3.245  13.908  0.0621  0.2201 -0.1428
  299CLA    CLA22359   3.276   5.858  11.869  0.0689 -0.3463 -0.2811
  300CLA    CLA22360   0.040   6.286  16.313 -0.0412  0.3555 -0.0466
  301CLA    CLA22361   6.697   2.336  16.443 -0.1189 -0.0532 -0.4212
  302CLA    CLA22362   2.242   3.681  16.540  0.2856 -0.0657 -0.2672
  303CLA    CLA22363   3.591   2.770  15.018 -0.3695  0.1496 -0.0089
  304CLA    CLA22364   5.662   2.199  11.706 -0.3529 -0.0211  0.0382
  305CLA    CLA22365   3.393   1.599   3.299  0.2579 -0.8183  0.6184
  306CLA    CLA22366   1.208   5.629   2.842 -0.5515  0.1198 -0.1039
  307CLA    CLA22367   5.722   1.410  14.678 -0.1273 -0.2294 -0.1110
  308CLA    CLA22368   5.003   2.908   4.165  0.2622  0.0090  0.3073
  309CLA    CLA22369   6.344   5.136   0.536 -0.1218  0.5822 -0.4752
  310CLA    CLA22370   5.474   3.727   4.688 -0.2027 -0.0919 -0.3618
  311CLA    CLA22371   2.859   5.180  13.873  0.0231  0.1477 -0.1158
  312CLA    CLA22372   4.177   1.891  14.576  0.1678 -0.0604 -0.8042
  313CLA    CLA22373   3.255   2.599  15.907  0.0924 -0.8278  0.2613
  314CLA    CLA22374   4.538   6.681   1.067  0.2568 -0.1998 -0.2923
  315CLA    CLA22375   0.878   1.723   5.345 -0.2728  0.0241 -0.2167
  316CLA    CLA22376   5.283   3.624  11.984 -0.4315 -0.0225 -0.2900
  317CLA    CLA22377   1.600   5.639   3.979 -0.4204  0.1236  0.2400
  318CLA    CLA22378   0.611   2.689   0.070 -0.1126 -0.3688  0.0689
  319CLA    CLA22379   2.184   2.145   3.578  0.2067  0.6475 -0.3146
  320CLA    CLA22380   5.074   0.412  13.317 -0.0245 -0.1949  0.2015
  321CLA    CLA22381   2.882   1.754   3.079 -0.4980  0.2099 -0.0664
  322CLA    CLA22382   4.624   3.553   5.406 -0.3199 -0.0636 -0.0092
  323TIP3   OH222383   6.159   1.818  13.275 -0.0355  0.5216 -0.0174
  323TIP3    H122384   6.109   1.857  13.203  1.8393  1.5527 -0.8383
  323TIP3    H222385   6.233   1.877  13.288 -0.1798  0.2328  2.6511
  324TIP3   OH222386   2.139   6.286   0.717  0.2357 -0.5648  0.6958
  324TIP3    H122387   2.106   6.297   0.806 -0.3862  1.9070  0.2444
  324TIP3    H222388   2.226   6.327   0.719  0.8807 -1.8594  0.4855
  325TIP3   OH222389   6.154   5.969   2.428 -0.0945  0.1964 -0.1761
  325TIP3    H122390   6.075   5.996   2.476 -0.6576 -0.6825 -0.5882
  325TIP3    H222391   6.121   5.915   2.356  0.9686 -1.6983  0.6787
  326TIP3   OH222392   5.586   3.455   4.623  0.0267 -0.7807  0.2725
  326TIP3    H122393   5.634   3.434   4.703  0.1249  1.8476  1.0207
  326TIP3    H222394   5.560   3.547   4.635  0.0754 -0.2755 -2.7288
  327TIP3   OH222395   5.306   5.767  15.766 -0.4619 -0.0009 -0.0304
  327TIP3    H122396   5.274   5.857  15.773  0.6660  0.4096 -0.0475
  327TIP3    H222397   5.337   5.745  15.854  1.4372  0.4771 -0.5396
  328TIP3   OH222398   1.243   6.621   1.056 -0.2792 -0.0294  0.6638
  328TIP3    H122399   1.232   6.595   0.965 -0.7119 -2.3082  1.3046
  328TIP3    H222400   1.328   6.666   1.059 -0.0721 -0.3015 -0.7666
  329TIP3   OH222401   5.260   5.493   1.554  0.8236 -0.1344 -0.0104
  329TIP3    H122402   5.215   5.472   1.636  0.3809  0.1290 -0.1842
  329TIP3    H222403   5.286   5.585   1.564  1.8083 -0.4408  0.3120
  330TIP3   OH222404   1.287   5.525   2.257 -0.4492 -0.3033 -0.4050
  330TIP3    H122405   1.218   5.571   2.306 -1.1685 -0.3096 -1.3761
  330TIP3    H222406   1.358   5.588   2.251 -0.9056  0.2052 -0.5663
  331TIP3   OH222407   4.145   4.994  11.891  0.3064  0.5645 -0.4334
  331TIP3    H122408   4.114   4.904  11.903 -1.9124  1.0555 -1.9715
  331TIP3    H222409   4.184   4.994  11.804 -1.0998  1.4030 -1.0945
  332TIP3   OH222410   3.894   2.990  11.043  0.4793 -0.3796  0.7614
  332TIP3    H122411   3.808   3.030  11.049  1.5652  1.9237  2.0506
  332TIP3    H222412   3.876   2.897  11.031 -2.1658  0.2492 -1.1149
  333TIP3   OH222413   1.552   4.492   0.651 -0.0615  0.0866  0.0839
  333TIP3    H122414   1.517   4.494   0.562 -0.1550  1.8556  0.1218
  333TIP3    H222415   1.629   4.436   0.645  0.4978  0.9504 -1.3564
  334TIP3   OH222416   3.540   5.310   3.224  0.2795 -0.0076  0.0992
  334TIP3    H122417   3.579   5.223   3.231 -1.4411 -0.8224  0.0550
  334TIP3    H222418   3.586   5.362   3.291  0.0929 -1.4385  1.3894
  335TIP3   OH222419   5.012   6.031  11.766  0.2521  0.3105  0.0177
  335TIP3    H122420   5.050   5.979  11.838 -0.6119 -0.4400 -0.0487
  335TIP3    H222421   4.945   5.974  11.729  1.8074 -0.0302 -2.5292
  336TIP3   OH222422   5.034   1.029   0.036 -0.1728  0.4818  0.2177
  336TIP3    H122423   5.110   1.063  -0.012  0.3299 -1.2394 -0.2689
  336TIP3    H222424   4.959   1.051  -0.019  0.2839 -0.4201 -0.7879
  337TIP3   OH222425   1.660   4.207   2.286 -0.3764  0.0829 -0.6590
  337TIP3    H122426   1.646   4.240   2.198 -0.8948 -0.3770 -0.7557
  337TIP3    H222427   1.743   4.246   2.313 -0.4533  0.6130 -1.1600
  338TIP3   OH222428   6.516   6.335  16.587  0.1248 -0.4143 -0.4082
  338TIP3    H122429   6.548   6.419  16.554  0.1887 -0.1134  0.3935
  338TIP3    H222430   6.480   6.291  16.510 -1.4401  1.0425 -0.5550
  339TIP3   OH222431   3.018   3.000   1.062 -0.1664  0.1361  0.9072
  339TIP3    H122432   3.111   2.976   1.064 -0.5193 -1.6129 -0.9598
  339TIP3    H222433   2.978   2.950   1.132 -0.1980 -1.7994 -0.4051
  340TIP3   OH222434   0.793   4.373   4.089 -0.2863  0.5484 -0.4138
  340TIP3    H122435   0.883   4.343   4.096 -0.0561  1.4361  0.6959
  340TIP3    H222436   0.795   4.439   4.020 -0.3407 -0.2785 -1.2251
  341TIP3   OH222437   3.385   3.786   1.806 -0.2489 -0.2642  0.8846
  341TIP3    H122438   3.450   3.749   1.747 -0.1818  0.1266  0.7086
  341TIP3    H222439   3.302   3.748   1.778 -0.3232  0.4745  0.0561
  342TIP3   OH222440   6.077   4.745   5.552  0.3888  0.4184 -0.3660
  342TIP3    H122441   6.126   4.805   5.609 -1.3144  0.2331  1.4122
  342TIP3    H222442   6.080   4.786   5.466 -0.3280  2.8881  0.6878
  343TIP3   OH222443   5.967   5.298  11.983 -0.1745  0.4473  0.2001
  343TIP3    H122444   5.912   5.333  11.913 -0.3398  1.0079  0.6016
  343TIP3    H222445   6.005   5.219  11.946 -1.8597 -0.3902  0.1841
  344TIP3   OH222446   3.491   3.237   2.479  0.3874 -0.2191  0.5381
  344TIP3    H122447   3.561   3.218   2.417  0.8294 -1.0441  1.2702
  344TIP3    H222448   3.410   3.219   2.430  0.6512  0.8194 -0.3343
  345TIP3   OH222449   0.581   5.427  14.664  0.8780  0.9487 -0.3569
  345TIP3    H122450   0.507   5.378  14.702  0.5425  1.5580 -0.2178
  345TIP3    H222451   0.645   5.431  14.735  0.6880  1.1618 -0.1935
  346TIP3   OH222452   3.966   2.907   4.980 -0.3484  0.3464  0.2313
  346TIP3    H122453   3.947   2.816   5.002 -0.5568  0.5167  0.7616
  346TIP3    H222454   3.923   2.958   5.048  1.9674  0.7567  1.5154
  347TIP3   OH222455   5.396   4.153   5.292 -0.2877 -0.1544  0.1465
  347TIP3    H122456   5.427   4.109   5.371  0.8028 -1.4564 -0.9751
  347TIP3    H222457   5.389   4.245   5.318  1.1546 -0.3647  1.4458
  348TIP3   OH222458   5.549   0.409   2.667 -0.1365 -0.2123 -0.0415
  348TIP3    H122459   5.479   0.374   2.612  1.0002 -1.4823 -0.7362
  348TIP3    H222460   5.571   0.493   2.628 -1.0951  0.0751  0.0261
  349TIP3   OH222461   0.014   1.330  12.165 -0.3748 -0.4200 -0.3055
  349TIP3    H122462   0.049   1.346  12.253  0.5837  1.8096 -1.0113
  349TIP3    H222463   0.010   1.235  12.158  0.9239 -0.6832  1.6177
  350TIP3   OH222464   4.581   1.919   4.668 -0.5366  0.8456  0.1826
  350TIP3    H122465   4.507   1.913   4.729  0.5565  1.2640  1.6100
  350TIP3    H222466   4.646   1.972   4.714  1.7310 -1.6689  0.1260
  351TIP3   OH222467   5.328   0.470   0.539  0.1510  0.5040  0.0124
  351TIP3    H122468   5.350   0.518   0.459 -1.8360  1.1083 -0.2228
  351TIP3    H222469   5.309   0.381   0.509  1.2047  0.2478  0.0804
  352TIP3   OH222470   3.847   3.816  12.866 -0.0120  0.3459  0.6783
  352TIP3    H122471   3.937   3.845  12.847  0.4719 -1.3196  0.1992
  352TIP3    H222472   3.845   3.804  12.961  0.4951 -0.2191  0.6265
  353TIP3   OH222473   6.777   4.711   5.346 -0.0703  0.7220  0.4077
  353TIP3    H122474   6.770   4.638   5.284  0.2792  0.3516  0.7980
  353TIP3    H222475   6.719   4.778   5.310  1.1317  1.0442 -1.0763
  354TIP3   OH222476   1.367   2.899   1.182 -0.5736  0.0240  0.3591
  354TIP3    H122477   1.360   2.813   1.141  2.3820 -0.9637  1.6899
  354TIP3    H222478   1.288   2.906   1.237 -0.3061 -2.4032  1.1527
  355TIP3   OH222479   5.400   5.723  16.083 -0.4694 -0.2895 -0.0435
  355TIP3    H122480   5.486   5.748  16.118 -0.6004  0.6199 -0.3517
  355TIP3    H222481   5.338   5.777  16.131 -0.7470  0.1061 -0.8286
  356TIP3   OH222482   6.181   3.622   0.310  0.5364 -0.2603  0.1718
  356TIP3    H122483   6.102   3.580   0.275 -0.5977  1.9365 -0.1228
  356TIP3    H222484   6.221   3.665   0.234  0.4868  0.8979  0.7745
  357TIP3   OH222485   0.892   2.292  12.619 -0.1599 -0.1641 -0.2745
  357TIP3    H122486   0.878   2.199  12.636 -1.0637 -0.0574 -0.3961
  357TIP3    H222487   0.977   2.296  12.575 -0.0348 -0.9102 -0.1088
  358TIP3   OH222488   1.058   1.832   6.329  0.0830  0.0001 -0.7220
  358TIP3    H122489   1.029   1.740   6.321  0.2119 -0.1002 -0.0326
  358TIP3    H222490   0.986   1.876   6.374 -0.1122  0.3146 -1.3217
  359TIP3   OH222491   5.579   1.536  16.852 -0.2052  0.1525  0.2740
  359TIP3    H122492   5.655   1.559  16.906 -0.3714 -0.1866  0.6618
  359TIP3    H222493   5.616   1.516  16.766  0.1794 -0.2635  0.5280
  360TIP3   OH222494   2.165   1.437   5.316  0.3068  0.1005  0.0917
  360TIP3    H122495   2.210   1.460   5.235 -1.6423  0.2306 -1.0365
  360TIP3    H222496   2.129   1.350   5.301 -0.9059  0.5136  0.3968
  361TIP3   OH222497   4.251   1.442  12.172  0.1745 -0.0633 -0.0260
  361TIP3    H122498   4.261   1.486  12.256  2.1751  1.1447 -0.8286
  361TIP3    H222499   4.226   1.352  12.194 -2.2048  0.9073  1.7218
  362TIP3   OH222500   2.180   4.639  12.417  0.0569  0.9874  0.3884
  362TIP3    H122501   2.240   4.714  12.420  0.9860  0.3386 -0.7843
  362TIP3    H222502   2.116   4.663  12.349  0.7210  0.4750 -0.4286
  363TIP3   OH222503   3.804   6.204  15.032  0.0325 -0.3198  0.0302
  363TIP3    H122504   3.885   6.194  15.082  0.4584  2.6473  0.0837
  363TIP3    H222505   3.800   6.297  15.010 -3.3388 -0.3545 -0.0438
  364TIP3   OH222506   3.363   5.069  16.284  0.1184  0.0928  0.5434
  364TIP3    H122507   3.404   5.100  16.365  2.5999 -1.7075  0.0672
  364TIP3    H222508   3.336   5.150  16.239 -0.0415  1.1829  2.4762
  365TIP3   OH222509   4.347   2.776   5.603  0.4774  0.3959 -0.4473
  365TIP3    H122510   4.428   2.733   5.573 -0.3132 -0.6419 -1.1679
  365TIP3    H222511   4.347   2.764   5.698  0.2177 -1.3547 -0.6406
  366TIP3   OH222512   0.440   5.236   1.934  0.3802 -0.4761 -0.2499
  366TIP3    H122513   0.501   5.293   1.980 -1.8713 -0.0577  2.5364
  366TIP3    H222514   0.477   5.148   1.943  0.7713 -0.1936  1.1271
  367TIP3   OH222515   2.976   0.594   0.821  0.4985 -0.4731 -0.0447
  367TIP3    H122516   3.033   0.595   0.898  1.0200 -0.2635 -0.4312
  367TIP3    H222517   2.891   0.624   0.854  1.1937  1.4725  0.0725
  368TIP3   OH222518   5.077   0.878  10.923  0.2287  0.5078  0.4204
  368TIP3    H122519   5.084   0.867  10.828 -0.7667  0.8979  0.2895
  368TIP3    H222520   5.061   0.789  10.956  0.9125  0.3174  0.2739
  369TIP3   OH222521   1.992   4.499   4.849  0.0150  0.3743 -0.7943
  369TIP3    H122522   1.955   4.419   4.886  0.1289  0.8331  0.3576
  369TIP3    H222523   2.086   4.481   4.843  0.1206  0.6061  0.0017
  370TIP3   OH222524   2.148   4.126  13.835 -0.2182 -0.8613  0.0301
  370TIP3    H122525   2.215   4.135  13.767 -0.5983 -1.0676 -0.3783
  370TIP3    H222526   2.073   4.087  13.790 -0.8859  0.0699  0.3013
  371TIP3   OH222527   6.507   6.208  13.156  0.1319 -0.4739 -0.5519
  371TIP3    H122528   6.452   6.269  13.205 -0.4522 -2.5046  1.4737
  371TIP3    H222529   6.581   6.261  13.126 -1.4280  1.6784 -0.7974
  372TIP3   OH222530   1.792   5.247  12.690 -0.0684  0.0944 -0.1349
  372TIP3    H122531   1.704   5.241  12.655 -0.1563 -0.8653  0.2016
  372TIP3    H222532   1.783   5.300  12.769 -0.4461 -0.4542  0.1964
  373TIP3   OH222533   0.648   6.770   5.895 -0.5000 -0.0809  0.3395
  373TIP3    H122534   0.606   6.784   5.810 -0.3706  0.4036  0.3534
  373TIP3    H222535   0.594   6.820   5.956  0.5490  1.2270  0.2380
  374TIP3   OH222536   6.133   4.722   0.604  0.1452  0.3411 -0.5041
  374TIP3    H122537   6.106   4.777   0.530  1.1942  1.3537 -0.1544
  374TIP3    H222538   6.229   4.725   0.603  0.1820  0.0898  0.6999
  375TIP3   OH222539   5.381   2.371  14.471  0.4177  0.2235 -0.1817
  375TIP3    H122540   5.365   2.276  14.475 -0.1493  0.3389  0.4510
  375TIP3    H222541   5.472   2.378  14.442  0.1180 -0.4946 -1.3823
  376TIP3   OH222542   5.449   3.046   3.109 -0.0992  0.0816  0.8192
  376TIP3    H122543   5.377   3.045   3.045  1.1005 -1.6640 -0.6105
  376TIP3    H222544   5.412   3.008   3.188 -0.3141 -2.8546 -0.5540
  377TIP3   OH222545   3.731   4.177  12.542  0.0516 -1.1430  0.0153
  377TIP3    H122546   3.755   4.237  12.612 -1.4703 -0.6415  0.1511
  377TIP3    H222547   3.797   4.108  12.545  0.6279 -0.5655  1.2326
  378TIP3   OH222548   6.119   4.738   4.895  0.7351 -0.5497 -0.3586
  378TIP3    H122549   6.080   4.658   4.930 -1.2062 -0.7137 -2.6344
  378TIP3    H222550   6.174   4.708   4.823  0.2384  0.1121 -1.0288
  379TIP3   OH222551   5.979   5.537  16.723 -0.2764 -0.1832  0.0921
  379TIP3    H122552   5.889   5.505  16.735 -1.1278  1.3576 -1.5314
  379TIP3    H222553   6.018   5.475  16.661 -0.7496 -0.0547 -0.3524
  380TIP3   OH222554   5.986   2.501   3.752  0.1856  0.2368 -0.1971
  380TIP3    H122555   5.989   2.553   3.833  2.0641 -0.3815  0.1946
  380TIP3    H222556   5.950   2.417   3.780 -0.7739  0.5736 -0.3792
  381TIP3   OH222557   4.493   1.923  17.149 -0.4753  0.0838  0.1680
  381TIP3    H122558   4.543   1.917  17.231 -1.3104  0.6403  0.7378
  381TIP3    H222559   4.558   1.911  17.080  0.0160 -1.9387  0.9167
  382TIP3   OH222560   5.149   3.224  11.961 -0.5777 -0.0340 -0.2985
  382TIP3    H122561   5.168   3.306  12.006 -0.1404  0.3541 -1.1474
  382TIP3    H222562   5.236   3.187  11.942 -0.7334 -0.0586 -1.0118
  383TIP3   OH222563   0.304   4.875   3.578  0.1175  0.2449  0.4054
  383TIP3    H122564   0.234   4.893   3.641 -0.1143 -1.2863  0.6244
  383TIP3    H222565   0.271   4.801   3.527  0.7134  0.8415 -0.9017
  384TIP3   OH222566   6.347   5.481  11.267  0.6888  0.3657 -0.3461
  384TIP3    H122567   6.421   5.421  11.257 -0.2726 -0.8918 -0.1496
  384TIP3    H222568   6.382   5.554  11.318  0.7213 -2.3416  3.9907
  385TIP3   OH222569   2.514   1.413   5.411 -0.0239  0.0672 -0.1793
  385TIP3    H122570   2.498   1.327   5.451 -1.4275 -0.6878 -2.1831
  385TIP3    H222571   2.510   1.396   5.317  1.6306  2.0104 -0.6683
  386TIP3   OH222572   1.710   6.182  10.825 -0.0023 -0.3244 -0.1446
  386TIP3    H122573   1.659   6.228  10.891 -0.0232 -0.4369 -0.0818
  386TIP3    H222574   1.797   6.222  10.829 -0.3459  0.5395 -0.9240
  387TIP3   OH222575   6.409   5.217  14.360 -0.0662 -0.2571 -0.1356
  387TIP3    H122576   6.482   5.157  14.348 -0.4059 -0.8648  0.7294
  387TIP3    H222577   6.331   5.161  14.354 -0.5521  0.5464 -2.2295
  388TIP3   OH222578   6.743   6.305   6.646  0.1394 -0.8425 -0.2223
  388TIP3    H122579   6.694   6.348   6.576  0.7483 -1.3952 -1.0162
  388TIP3    H222580   6.833   6.334   6.634  0.2393 -0.8918  0.3813
  389TIP3   OH222581   2.695   6.418   3.584 -0.4029  0.6126  0.0883
  389TIP3    H122582   2.766   6.441   3.524 -0.2672  0.1482  0.0698
  389TIP3    H222583   2.706   6.479   3.657  0.0764  0.4840  0.1308
  390TIP3   OH222584   0.748   1.426  12.235  0.1553  0.1023  0.4975
  390TIP3    H122585   0.769   1.480  12.311 -1.7131 -0.6787  1.6443
  390TIP3    H222586   0.672   1.470  12.194 -1.7139 -1.7833  1.7342
  391TIP3   OH222587   2.800   6.501   6.034  0.5364  0.3249  0.0243
  391TIP3    H122588   2.817   6.579   5.982 -0.3606  0.5847  0.1108
  391TIP3    H222589   2.707   6.484   6.023  0.6848 -0.6487  0.1318
  392TIP3   OH222590   4.807   6.267  12.901 -0.8794 -0.0781  0.0956
  392TIP3    H122591   4.741   6.226  12.957  1.5712 -3.9092  0.5948
  392TIP3    H222592   4.786   6.236  12.813 -0.9275  0.3900 -0.0581
  393TIP3   OH222593   1.423   4.440   3.142 -0.6140  0.3087 -0.0626
  393TIP3    H122594   1.518   4.428   3.145 -0.7219 -1.4233 -1.4534
  393TIP3    H222595   1.388   4.351   3.156 -2.1410  1.1898  2.4725
  394TIP3   OH222596   4.863   6.525   2.966 -0.1190  0.3322  0.0762
  394TIP3    H122597   4.771   6.526   2.939  0.0523 -0.0623 -0.5597
  394TIP3    H222598   4.860   6.502   3.059 -0.6592  0.2312  0.0407
  395TIP3   OH222599   2.208   1.375   3.373 -0.2064  0.5831 -0.3790
  395TIP3    H122600   2.267   1.415   3.309 -0.3416  0.7895 -0.3768
  395TIP3    H222601   2.197   1.442   3.441  1.0813 -0.1607  0.6117
  396TIP3   OH222602   1.747   1.462   4.320 -0.2468 -0.5756 -0.0305
  396TIP3    H122603   1.785   1.414   4.247  0.6166 -0.3777  0.2827
  396TIP3    H222604   1.767   1.409   4.398  2.5435  1.2323  0.6025
  397TIP3   OH222605   3.430   6.658  15.798 -0.2494  0.1141  0.6312
  397TIP3    H122606   3.365   6.597  15.831  0.0328 -0.7406 -0.3399
  397TIP3    H222607   3.423   6.652  15.703  1.1127  0.1392  0.5071
  398TIP3   OH222608   4.787   2.375   6.462  0.0548  0.6423 -0.3302
  398TIP3    H122609   4.779   2.463   6.499  2.4382  2.4483 -3.5191
  398TIP3    H222610   4.866   2.340   6.502 -0.3447  0.3698  0.2178
  399TIP3   OH222611   4.619   3.235   1.376  0.2320 -0.1376  0.2825
  399TIP3    H122612   4.645   3.324   1.400 -1.1652  0.9048 -1.7703
  399TIP3    H222613   4.678   3.210   1.305 -0.0163 -0.4567  0.1826
  400TIP3   OH222614   4.142   4.013  15.793  0.3146 -0.1046 -0.4637
  400TIP3    H122615   4.097   3.969  15.865  0.9846 -1.4022 -0.8147
  400TIP3    H222616   4.153   4.103  15.824  0.2668 -0.5485  0.9108
  401TIP3   OH222617   5.361   0.027  16.374 -0.0738 -0.2771  0.2431
  401TIP3    H122618   5.432  -0.015  16.422 -0.6277 -3.3948 -1.3984
  401TIP3    H222619   5.380   0.009  16.282 -2.1482  0.1858 -0.3256
  402TIP3   OH222620   6.644   5.449  12.159 -0.0265 -0.1239  0.2285
  402TIP3    H122621   6.728   5.424  12.198 -0.2013 -1.3775 -0.1716
  402TIP3    H222622   6.658   5.438  12.065 -0.4385  0.3480  0.1069
  403TIP3   OH222623   1.079   1.113  13.242 -1.1456  0.5705 -0.3387
  403TIP3    H122624   1.173   1.114  13.225 -1.4035  1.1627 -1.9210
  403TIP3    H222625   1.063   1.193  13.293 -1.0389  1.5654 -1.7922
  404TIP3   OH222626   6.069   5.244  14.711 -0.3889  0.1396 -0.1660
  404TIP3    H122627   6.051   5.337  14.703  0.9290  0.5799  1.2823
  404TIP3    H222628   6.120   5.222  14.633  0.2624  0.9232  0.0221
  405TIP3   OH222629   3.761   2.426   0.524 -0.4515  0.4822  0.4138
  405TIP3    H122630   3.753   2.447   0.431 -1.6489 -0.9031  0.1701
  405TIP3    H222631   3.855   2.409   0.536 -0.2868  0.6314 -0.5316
  406TIP3   OH222632   3.023   5.533  16.625 -0.1049 -0.2740 -0.0913
  406TIP3    H122633   3.079   5.547  16.701  0.3389 -0.5548 -0.3613
  406TIP3    H222634   3.055   5.451  16.586 -2.0440 -1.6165  0.9564
  407TIP3   OH222635   6.518   2.962  11.101  0.2868  0.7731  0.3402
  407TIP3    H122636   6.558   2.922  11.178  1.8921  1.4331 -0.0989
  407TIP3    H222637   6.463   2.893  11.063  1.7200 -0.5089  0.4918
  408TIP3   OH222638   2.821   0.837  14.681  0.1448  0.4506  0.2085
  408TIP3    H122639   2.906   0.858  14.720  0.5018 -0.5367 -0.0062
  408TIP3    H222640   2.829   0.864  14.590  0.5272 -0.3757 -0.0141
  409TIP3   OH222641   1.249   5.017  12.006 -0.1720  0.5688 -0.3283
  409TIP3    H122642   1.242   4.996  11.913  1.3328 -0.1963 -0.2963
  409TIP3    H222643   1.172   4.976  12.045  1.2428 -2.7748 -0.6903
  410TIP3   OH222644   0.969   0.096  15.134 -0.3123 -0.5708  0.0227
  410TIP3    H122645   0.978   0.017  15.082  0.2135 -1.5028  1.4659
  410TIP3    H222646   1.056   0.113  15.169 -0.4317  0.6102 -0.1877
  411TIP3   OH222647   5.345   5.806   6.181 -0.0552 -0.3051  0.6884
  411TIP3    H122648   5.255   5.777   6.166  0.1786  0.2360 -2.4579
  411TIP3    H222649   5.397   5.726   6.183 -0.5756 -0.6652  3.1178
  412TIP3   OH222650   2.939   3.810  16.012  0.0263 -0.1209 -0.3371
  412TIP3    H122651   2.988   3.728  16.020 -1.7248 -1.0005  2.8259
  412TIP3    H222652   2.850   3.782  15.992 -0.9575  0.8174  2.4013
  413TIP3   OH222653   5.594   6.055  15.507  0.3765  0.1009  0.2969
  413TIP3    H122654   5.506   6.068  15.541  1.1135 -0.1922  2.4933
  413TIP3    H222655   5.647   6.036  15.585  2.2761 -0.2580 -1.0158
  414TIP3   OH222656   5.499   6.757  12.608  0.1680 -0.2013  0.7377
  414TIP3    H122657   5.487   6.678  12.660 -0.5978  0.0923  1.0118
  414TIP3    H222658   5.460   6.827  12.660  1.4437  0.4900  0.8153
  415TIP3   OH222659   0.223   2.099  14.963 -0.2882 -0.6822  0.1224
  415TIP3    H122660   0.318   2.104  14.953 -0.3188 -0.1421  0.0862
  415TIP3    H222661   0.200   2.011  14.933  0.1841 -0.7609 -0.0102
  416TIP3   OH222662   0.287   6.513   3.778 -0.3801  0.4924 -0.2915
  416TIP3    H122663   0.308   6.587   3.720 -0.7580  0.3530 -0.6052
  416TIP3    H222664   0.369   6.498   3.825 -0.3290  1.1899 -0.1356
  417TIP3   OH222665   4.215   1.163   4.196  0.1174  0.0388  0.4391
  417TIP3    H122666   4.138   1.142   4.249  0.2635  1.1501  1.1051
  417TIP3    H222667   4.197   1.250   4.160  0.7225 -0.0317 -0.0549
  418TIP3   OH222668   5.114   0.314   0.063  0.4732  0.0996 -0.5188
  418TIP3    H122669   5.116   0.324  -0.032  0.9431  0.0475 -0.5157
  418TIP3    H222670   5.021   0.306   0.084  0.3227  0.7106 -0.9092
  419TIP3   OH222671   6.365   5.188  15.982  0.2984 -0.0136  0.9126
  419TIP3    H122672   6.322   5.196  16.067  0.6686 -0.3166  1.1325
  419TIP3    H222673   6.329   5.108  15.944 -0.0362  0.2430  0.6818
  420TIP3   OH222674   2.224   4.791  15.935  0.2472  0.2489 -0.5234
  420TIP3    H122675   2.194   4.871  15.894 -0.7709  0.2885  0.2665
  420TIP3    H222676   2.232   4.728  15.863  0.4541  0.8732 -1.0503
  421TIP3   OH222677   6.755   0.114  14.826  0.1839  0.5737 -1.1689
  421TIP3    H122678   6.754   0.183  14.760  0.9655  0.7345 -1.0225
  421TIP3    H222679   6.677   0.129  14.879 -0.2804  0.6316 -1.8577
  422TIP3   OH222680   2.479   0.184   4.236 -0.0667 -0.2715 -0.0602
  422TIP3    H122681   2.548   0.198   4.300  0.5522  1.6681 -1.0836
  422TIP3    H222682   2.479   0.089   4.221  1.9419 -0.3867  0.4075
  423TIP3   OH222683   1.905   0.726  13.854  0.6825 -0.5641  0.3949
  423TIP3    H122684   1.966   0.680  13.796 -1.3670 -1.9339 -0.8228
  423TIP3    H222685   1.942   0.715  13.942  1.5153 -2.5055 -0.1329
  424TIP3   OH222686   0.700   3.655   3.217 -0.1053 -0.3906  0.4123
  424TIP3    H122687   0.787   3.619   3.203  0.8037  1.9482 -0.5356
  424TIP3    H222688   0.642   3.602   3.162  1.1014 -0.5390 -0.7516
  425TIP3   OH222689   0.704   4.588  14.143  0.2140 -0.0714  0.0798
  425TIP3    H122690   0.704   4.503  14.187  0.0443 -0.8063 -1.2978
  425TIP3    H222691   0.673   4.649  14.210 -0.4890 -1.2270  0.8452
  426TIP3   OH222692   6.254   4.099   0.854  0.4541 -0.0780 -0.2592
  426TIP3    H122693   6.310   4.134   0.785  0.2388  0.2899 -0.2541
  426TIP3    H222694   6.227   4.013   0.822 -1.7400  1.1119 -1.8646
  427TIP3   OH222695   3.206   2.504  14.728  0.2246  0.6312  0.4163
  427TIP3    H122696   3.163   2.577  14.773 -2.5004  0.0614 -1.0275
  427TIP3    H222697   3.239   2.448  14.798  1.6069  2.7634  1.5600
  428TIP3   OH222698   5.466   3.607   1.439 -0.2291  0.3056  0.3137
  428TIP3    H122699   5.534   3.540   1.444 -0.1195  0.4882  1.6141
  428TIP3    H222700   5.429   3.596   1.352  2.0287  0.7556 -0.7952
  429TIP3   OH222701   0.765   5.267  13.975 -0.1140  0.0707  0.1112
  429TIP3    H122702   0.684   5.217  13.968 -0.1617  0.2978 -1.2448
  429TIP3    H222703   0.834   5.202  13.967 -0.1740  0.0176  0.0144
  430TIP3   OH222704   6.204   3.285  16.447  0.1743  0.0281 -0.8737
  430TIP3    H122705   6.186   3.323  16.361 -1.9379 -2.2648 -1.5958
  430TIP3    H222706   6.123   3.297  16.496  1.4267  1.5072  0.9513
  431TIP3   OH222707   5.107   3.665  16.427  0.0633 -0.6844  0.4009
  431TIP3    H122708   5.161   3.675  16.348 -0.1771 -0.1179  0.3060
  431TIP3    H222709   5.025   3.627  16.395 -0.5246  0.7140  0.1737
  432TIP3   OH222710   5.818   4.433   3.571 -0.1666  0.1492  0.2342
  432TIP3    H122711   5.806   4.366   3.503  0.1983 -0.5546  0.8516
  432TIP3    H222712   5.730   4.451   3.602 -0.2796  0.0430 -0.0176
  433TIP3   OH222713   6.213   2.676   2.672 -0.5986  0.0210 -0.6492
  433TIP3    H122714   6.265   2.747   2.708 -0.4485  0.0664 -0.9535
  433TIP3    H222715   6.208   2.695   2.578  0.0288 -0.7356 -0.8478
  434TIP3   OH222716   1.571   4.334   6.117 -0.0874 -0.2349  0.5439
  434TIP3    H122717   1.653   4.313   6.161 -0.7889 -3.9711  0.4678
  434TIP3    H222718   1.507   4.341   6.188 -0.4997 -2.3265  0.4546
  435TIP3   OH222719   6.651   1.314  12.462 -0.4910  0.5100  0.3310
  435TIP3    H122720   6.727   1.261  12.439 -0.5720  1.0099 -1.1971
  435TIP3    H222721   6.634   1.294  12.555  0.7165 -0.5532  0.3395
  436TIP3   OH222722   5.142   3.436   0.292  0.3234  0.0077 -0.4956
  436TIP3    H122723   5.163   3.525   0.321  1.2237 -0.9700  2.1469
  436TIP3    H222724   5.211   3.382   0.331 -0.2049 -1.8783 -2.0345
  437TIP3   OH222725   2.762   3.433  16.533 -1.0203 -0.2480 -0.5924
  437TIP3    H122726   2.692   3.494  16.559 -0.6168  0.5903 -1.3935
  437TIP3    H222727   2.804   3.409  16.615 -0.1312  1.8955 -0.3417
  438TIP3   OH222728   3.122   1.592   3.489 -0.2929 -0.5730 -0.3818
  438TIP3    H122729   3.192   1.647   3.456 -0.4840 -0.3395 -0.3996
  438TIP3    H222730   3.089   1.545   3.412 -0.8584  0.1052 -0.5631
  439TIP3   OH222731   1.617   0.273   4.190 -0.3061 -0.1745  0.5340
  439TIP3    H122732   1.664   0.320   4.258 -0.5817 -1.3899  1.5938
  439TIP3    H222733   1.547   0.227   4.235 -2.5595  1.5408 -0.9948
  440TIP3   OH222734   2.034   3.315  13.018 -0.5993 -0.3687  0.6418
  440TIP3    H122735   1.997   3.403  13.025 -0.0164 -0.0718  0.0923
  440TIP3    H222736   2.128   3.327  13.031 -0.1008 -0.4735 -2.1738
  441TIP3   OH222737   2.038   1.678  16.516  0.4062  0.6123  0.2226
  441TIP3    H122738   2.083   1.624  16.581  0.2084  0.7887  0.5101
  441TIP3    H222739   2.087   1.665  16.435  0.4567  0.1337  0.3294
  442TIP3   OH222740   4.437   0.865  11.258  0.0652  0.5464  0.5158
  442TIP3    H122741   4.345   0.887  11.273 -0.7501 -1.1312 -1.5183
  442TIP3    H222742   4.441   0.770  11.269  1.5135  0.5574  0.2832
  443TIP3   OH222743   2.648   1.693   4.302 -0.3217 -0.6930  0.0821
  443TIP3    H122744   2.574   1.648   4.261  0.1873 -1.3660 -0.1144
  443TIP3    H222745   2.644   1.783   4.267 -0.1637 -1.1294 -1.1029
  444TIP3   OH222746   3.149   5.839   3.167 -0.1486 -0.5371  0.0652
  444TIP3    H122747   3.081   5.772   3.167 -0.6397 -0.1093  1.6820
  444TIP3    H222748   3.117   5.904   3.230  0.2720  1.2525 -1.4790
  445TIP3   OH222749   6.397   2.747  10.780 -0.2417  0.0956 -0.0066
  445TIP3    H122750   6.408   2.838  10.807 -1.0256 -0.0854  0.9811
  445TIP3    H222751   6.424   2.746  10.688  0.0991  1.2521  0.0624
  446TIP3   OH222752   5.131   6.510   0.654 -0.3054  0.0150 -0.6960
  446TIP3    H122753   5.102   6.455   0.581 -2.0022  1.2539 -1.0072
  446TIP3    H222754   5.204   6.560   0.618 -1.1825  0.6851 -1.6143
  447TIP3   OH222755   2.420   0.052  15.439  0.4590 -0.1644 -0.1365
  447TIP3    H122756   2.501   0.043  15.390 -0.1076 -0.1616 -1.0870
  447TIP3    H222757   2.353   0.068  15.373 -0.6794 -2.2717  0.4028
  448TIP3   OH222758   0.740   5.264   1.767 -0.7608  0.4870  0.6478
  448TIP3    H122759   0.723   5.226   1.680  0.7248  2.1867 -0.4581
  448TIP3    H222760   0.683   5.340   1.772  0.3381  1.3556  0.4203
  449TIP3   OH222761   3.842   6.526  15.214 -0.3624 -0.2655 -0.4956
  449TIP3    H122762   3.892   6.496  15.137 -1.2668  0.1230 -1.2524
  449TIP3    H222763   3.802   6.446  15.249 -0.0073 -0.4348 -0.4714
  450TIP3   OH222764   4.662   5.935   2.937  0.5701 -0.0973  0.3619
  450TIP3    H122765   4.675   5.840   2.945  0.0565 -0.1779  0.2687
  450TIP3    H222766   4.588   5.944   2.878  0.2954  0.3529  0.7663
  451TIP3   OH222767   6.508   4.625  11.684 -0.0310  0.4782 -0.4717
  451TIP3    H122768   6.426   4.641  11.730 -0.2462  0.6024 -0.8934
  451TIP3    H222769   6.536   4.539  11.714  0.9330  1.4094  1.5161
  452TIP3   OH222770   6.603   3.205   2.876  0.5155  0.2202 -0.0238
  452TIP3    H122771   6.586   3.299   2.879  0.6758  0.2280  0.6807
  452TIP3    H222772   6.691   3.198   2.839  1.0007  0.4068  1.0726
  453TIP3   OH222773   2.885   3.091  15.429 -0.4731  0.6791  0.2256
  453TIP3    H122774   2.959   3.091  15.491 -0.1119  0.2911 -0.2019
  453TIP3    H222775   2.877   3.000  15.401 -1.3429  0.6518  0.5316
  454TIP3   OH222776   0.442   4.287   4.225  0.3642  0.2849 -0.1571
  454TIP3    H122777   0.378   4.276   4.154  0.0558  0.4055  0.0998
  454TIP3    H222778   0.482   4.372   4.208 -0.0249  0.5142  0.0613
  455TIP3   OH222779   1.266   6.607   1.420  0.5168 -0.0928 -0.5752
  455TIP3    H122780   1.305   6.605   1.507  0.0263  1.2161 -0.3126
  455TIP3    H222781   1.329   6.560   1.365  0.4270 -1.6924  0.6084
  456TIP3   OH222782   1.918   3.787   2.216 -0.5425  0.3338  0.0574
  456TIP3    H122783   1.992   3.846   2.202 -0.4975  0.3106  0.1911
  456TIP3    H222784   1.857   3.837   2.270 -1.9299  1.3978 -2.3775
  457TIP3   OH222785   5.114   5.006  16.469  0.0136 -0.4835  0.6959
  457TIP3    H122786   5.047   5.009  16.401 -0.2637  3.7168  0.8992
  457TIP3    H222787   5.071   5.040  16.547  1.6837 -0.1433  1.5118
  458TIP3   OH222788   6.654   6.052  14.464  0.8238 -0.6195  0.1590
  458TIP3    H122789   6.739   6.078  14.499  1.6978 -0.6986 -1.7622
  458TIP3    H222790   6.675   5.988  14.396 -0.8362 -1.1184  0.0810
  459TIP3   OH222791   3.385   1.119  15.557  0.2303 -0.3543 -0.2258
  459TIP3    H122792   3.454   1.072  15.604  1.2659 -1.5360 -2.7382
  459TIP3    H222793   3.329   1.050  15.522  0.2533  0.3829 -1.7991
  460TIP3   OH222794   0.466   4.462   3.071  0.2432 -0.0970 -0.3140
  460TIP3    H122795   0.426   4.486   3.154  0.4389 -0.1490 -0.2026
  460TIP3    H222796   0.480   4.367   3.078 -0.7692 -0.3006 -0.8544
  461TIP3   OH222797   4.693   6.657   1.518 -0.0817  0.3114  0.4253
  461TIP3    H122798   4.613   6.622   1.480 -1.6712  2.0921  1.9260
  461TIP3    H222799   4.734   6.583   1.562 -1.4298 -0.4487  0.4456
  462TIP3   OH222800   1.744   3.268  16.883 -0.1898  0.2571  0.5741
  462TIP3    H122801   1.656   3.300  16.867 -0.2408  1.2871  2.5708
  462TIP3    H222802   1.740   3.229  16.970  0.6182 -2.5533 -0.5502
  463TIP3   OH222803   1.099   1.492  12.678  0.6408 -0.5029 -0.0432
  463TIP3    H122804   1.144   1.418  12.718  0.8310 -0.1632  0.3862
  463TIP3    H222805   1.006   1.468  12.680  0.7806 -1.1373 -0.7840
  464TIP3   OH222806   0.090   1.256  14.776 -0.5040 -0.0410  0.0246
  464TIP3    H122807   0.091   1.266  14.681  0.1537  1.6306  0.1879
  464TIP3    H222808   0.039   1.330  14.808 -1.2517 -0.9344  0.9553
  465TIP3   OH222809   5.275   0.418   1.632 -0.5356  0.0411  0.0689
  465TIP3    H122810   5.262   0.324   1.617  0.6968 -0.1026 -0.2874
  465TIP3    H222811   5.196   0.447   1.675 -0.6587 -1.3151  0.8191
  466TIP3   OH222812   5.424   3.053  12.190  0.0333 -0.0107  0.0312
  466TIP3    H122813   5.385   3.071  12.275 -0.7657 -2.2091  0.1823
  466TIP3    H222814   5.372   3.105  12.128 -2.0261 -1.4753  0.4408
  467TIP3   OH222815   5.114   2.124   4.155  0.1277 -0.4360 -0.0823
  467TIP3    H122816   5.051   2.152   4.221  0.4859 -0.3922  0.2416
  467TIP3    H222817   5.062   2.115   4.075 -0.3479 -0.7159  0.2575
  468TIP3   OH222818   0.494   3.316  13.845 -0.7412  0.7086 -1.1464
  468TIP3    H122819   0.447   3.393  13.810  1.8100  2.9261 -0.0430
  468TIP3    H222820   0.468   3.313  13.937 -0.4869  0.5425 -1.0810
  469TIP3   OH222821   2.704   1.909   1.695  0.3919  0.5470  0.4205
  469TIP3    H122822   2.711   1.823   1.736 -2.2896  0.6626  1.3620
  469TIP3    H222823   2.662   1.964   1.762 -0.5826  1.7909 -1.1385
  470TIP3   OH222824   2.799   5.101  16.876  0.1858  0.1554 -0.4723
  470TIP3    H122825   2.773   5.093  16.968  1.9245 -0.6709 -0.0144
  470TIP3    H222826   2.724   5.143  16.834 -1.2272 -0.7172  1.0448
  471TIP3   OH222827   0.963   4.038   6.409 -0.0306 -0.5784 -0.2137
  471TIP3    H122828   0.996   4.034   6.319 -3.4196  0.7911 -1.6738
  471TIP3    H222829   0.927   4.126   6.417 -0.1627 -0.8033  2.4082
  472TIP3   OH222830   4.421   6.243   3.653 -0.9898  0.4264  0.5449
  472TIP3    H122831   4.452   6.203   3.734 -0.0694 -0.8569 -0.3951
  472TIP3    H222832   4.390   6.169   3.600  2.7632  0.4685 -2.1314
  473TIP3   OH222833   1.707   4.258   1.799 -0.5241  0.2549  0.1100
  473TIP3    H122834   1.782   4.198   1.807 -0.1134  0.3758 -2.0762
  473TIP3    H222835   1.657   4.222   1.725 -0.7584  2.0858 -0.6638
  474TIP3   OH222836   1.936   3.576   5.701 -0.0085  0.0733  0.3508
  474TIP3    H122837   1.987   3.607   5.776 -0.7333 -2.2771  1.9293
  474TIP3    H222838   1.994   3.588   5.626  1.7509  0.1504  1.6656
  475TIP3   OH222839   0.312   3.274   4.549  0.2006  0.2581  0.3587
  475TIP3    H122840   0.291   3.268   4.643 -0.1952 -1.0952  0.2064
  475TIP3    H222841   0.283   3.362   4.524 -0.8156  0.2114  1.2502
  476TIP3   OH222842   2.502   0.020   5.418  0.0275  0.2073 -0.0082
  476TIP3    H122843   2.519  -0.073   5.399 -0.7936  0.0480  0.0083
  476TIP3    H222844   2.484   0.023   5.512  3.5470  0.9225  0.7964
  477TIP3   OH222845   3.124   1.445   5.246 -0.0480 -0.2865  0.7396
  477TIP3    H122846   3.166   1.466   5.330 -0.3438 -0.5110  0.9444
  477TIP3    H222847   3.046   1.396   5.270 -0.5531  0.3249  0.3684
  478TIP3   OH222848   0.110   2.336   0.405 -0.2882 -0.4031 -0.7108
  478TIP3    H122849   0.037   2.313   0.462 -0.1788 -0.5413 -0.6263
  478TIP3    H222850   0.158   2.402   0.455 -0.7135  0.1599 -1.0367
  479TIP3   OH222851   1.585   0.440  12.310  0.0580  0.0408 -0.0197
  479TIP3    H122852   1.642   0.365  12.295 -0.2465  0.0007 -1.1258
  479TIP3    H222853   1.513   0.405  12.362  1.1782  0.1728  1.6958
  480TIP3   OH222854   4.666   0.076   5.282 -0.1480  0.0061  0.3312
  480TIP3    H122855   4.593   0.137   5.282 -1.6364 -1.6594  1.5286
  480TIP3    H222856   4.626  -0.010   5.270  1.7623 -0.8466 -0.3582
  481TIP3   OH222857   0.213   2.840   2.191  0.1273  0.1337 -0.5268
  481TIP3    H122858   0.250   2.927   2.207 -0.6499  0.5303 -0.8464
  481TIP3    H222859   0.222   2.828   2.097 -1.6670  0.7685 -0.8107
  482TIP3   OH222860   2.592   0.232  14.919 -0.3082  0.3036 -0.0218
  482TIP3    H122861   2.618   0.182  14.842 -0.7226  1.2951 -0.8253
  482TIP3    H222862   2.549   0.168  14.976 -1.0219 -0.2215 -1.1151
  483TIP3   OH222863   4.412   0.196  16.966 -0.2847 -0.5266  0.2928
  483TIP3    H122864   4.321   0.170  16.975 -0.1744 -0.6147  1.3809
  483TIP3    H222865   4.458   0.145  17.034  0.3465  0.5559  0.7058
  484TIP3   OH222866   3.747   2.489   3.097 -0.3806 -0.0295  0.2800
  484TIP3    H122867   3.717   2.430   3.167 -2.8872 -0.3928 -1.0083
  484TIP3    H222868   3.667   2.515   3.051  0.8479  2.7993 -0.4832
  485TIP3   OH222869   0.987   3.781   5.308  0.4480 -0.8955  0.1992
  485TIP3    H122870   0.943   3.741   5.233  0.2658 -1.6737  0.7185
  485TIP3    H222871   0.983   3.716   5.377 -3.3809  1.2971  2.4012
  486TIP3   OH222872   3.693   5.387   4.177 -0.1447 -0.2849 -0.1910
  486TIP3    H122873   3.667   5.418   4.264  0.1532 -1.9635  0.5192
  486TIP3    H222874   3.737   5.304   4.192 -2.1108 -1.7904 -2.1029
  487TIP3   OH222875   6.524   4.341  12.428 -0.1201  0.4071 -0.0864
  487TIP3    H122876   6.575   4.270  12.468 -1.4547 -0.5091  0.0878
  487TIP3    H222877   6.570   4.361  12.347 -0.6414 -1.9546 -1.0676
  488TIP3   OH222878   0.342   0.260   5.912  0.0392  0.0085 -0.4882
  488TIP3    H122879   0.299   0.322   5.854  0.2054  0.8269  0.2339
  488TIP3    H222880   0.270   0.220   5.962 -0.0348 -0.0560 -0.6475
  489TIP3   OH222881   2.986   1.947   1.743  0.0872 -0.6225 -0.6044
  489TIP3    H122882   2.896   1.914   1.738  0.1075 -0.9664  0.9679
  489TIP3    H222883   2.995   2.002   1.665 -1.7721  0.1014 -0.3709
  490TIP3   OH222884   6.709   5.218   2.825 -0.3761 -0.7234 -0.2360
  490TIP3    H122885   6.743   5.135   2.858 -0.5375 -0.1177  1.5466
  490TIP3    H222886   6.783   5.259   2.782  0.1527 -1.0758  0.3182
  491TIP3   OH222887   5.312   4.398   0.398  0.5643 -0.0470 -0.4870
  491TIP3    H122888   5.266   4.329   0.447  0.6256  0.5670  0.4643
  491TIP3    H222889   5.259   4.476   0.412  0.2009  0.0193 -2.0053
  492TIP3   OH222890   0.112   3.784  14.256 -0.6217  0.1361  0.2479
  492TIP3    H122891   0.090   3.722  14.187 -0.9554  1.9095 -1.3064
  492TIP3    H222892   0.028   3.815  14.289 -0.4870  0.9394 -0.1232
  493TIP3   OH222893   0.447   4.593   1.616 -0.5411 -0.7872  0.0465
  493TIP3    H122894   0.451   4.590   1.712  0.7103 -0.7637  0.0105
  493TIP3    H222895   0.538   4.600   1.588 -0.9768  1.0025 -1.0967
  494TIP3   OH222896   4.348   2.114   5.373 -0.1139  0.2316  0.0545
  494TIP3    H122897   4.440   2.124   5.399  0.8334 -0.8715 -2.4815
  494TIP3    H222898   4.330   2.021   5.388 -0.9623  0.5084  0.8381
  495TIP3   OH222899   6.018   5.624   6.008 -0.2261 -0.4910  0.0538
  495TIP3    H122900   6.060   5.675   5.939 -0.1711 -1.3383 -0.5649
  495TIP3    H222901   6.044   5.667   6.090 -0.4594  0.6439 -0.4598
  496TIP3   OH222902   4.790   5.119  12.388  0.5875 -0.4328  0.0388
  496TIP3    H122903   4.809   5.147  12.299 -1.3779  0.8097 -0.0590
  496TIP3    H222904   4.793   5.200  12.440 -0.8341 -0.6921  0.5878
  497TIP3   OH222905   0.482   3.512   5.279 -0.1091 -0.1058  0.3264
  497TIP3    H122906   0.501   3.564   5.357 -2.0204  1.0898  0.0619
  497TIP3    H222907   0.496   3.572   5.206  2.1972 -1.3759 -0.3564
  498TIP3   OH222908   4.636   6.415  16.172  0.3456  0.3158 -0.7022
  498TIP3    H122909   4.643   6.429  16.267  0.6340 -0.6461 -0.5783
  498TIP3    H222910   4.543   6.395  16.158  0.6139 -1.2690 -0.3701
  499TIP3   OH222911   0.686   5.891  16.624  0.1517  0.1079  0.0032
  499TIP3    H122912   0.726   5.928  16.545  0.9859  2.1440  1.2888
  499TIP3    H222913   0.661   5.802  16.599  2.2762 -0.0473 -1.9292
  500TIP3   OH222914   6.425   1.220  16.782 -0.4625  0.1584  0.4811
  500TIP3    H122915   6.460   1.142  16.824  0.2160  0.9190  1.3588
  500TIP3    H222916   6.366   1.259  16.847 -0.3234  0.7040  0.2904
  501TIP3   OH222917   6.140   2.746   4.543 -0.4711  0.2054 -0.3172
  501TIP3    H122918   6.055   2.735   4.584 -0.5504  0.4685 -0.4066
  501TIP3    H222919   6.200   2.764   4.615 -0.3231 -0.8676 -0.1600
  502TIP3   OH222920   4.360   2.451   2.415  0.2658  0.3090 -0.1629
  502TIP3    H122921   4.450   2.480   2.430 -0.0447  1.1435  0.1572
  502TIP3    H222922   4.338   2.486   2.329  0.9469 -1.7203 -1.2356
  503TIP3   OH222923   0.764   5.899   3.707 -0.0977 -0.0572 -0.0860
  503TIP3    H122924   0.773   5.955   3.784  0.0306  1.1137 -0.9310
  503TIP3    H222925   0.677   5.859   3.717 -0.2529  0.3954  0.4597
  504TIP3   OH222926   5.596   5.211   1.328 -0.5396  0.5989 -0.4287
  504TIP3    H122927   5.512   5.177   1.360  0.0771 -1.5283 -0.9589
  504TIP3    H222928   5.580   5.231   1.236 -0.3808 -0.1161 -0.6131
  505TIP3   OH222929   3.393   2.309  16.766 -0.0402  0.1960  0.4077
  505TIP3    H122930   3.450   2.239  16.734  0.3063  1.0936 -1.0074
  505TIP3    H222931   3.305   2.279  16.744 -0.0826 -0.7617  1.7567
  506TIP3   OH222932   1.427   5.248  14.226 -0.0618  1.0680  0.2498
  506TIP3    H122933   1.469   5.256  14.311 -2.4937 -1.4164  1.8525
  506TIP3    H222934   1.438   5.156  14.202 -1.9677  1.0186 -0.6353
  507TIP3   OH222935   4.212   6.388   2.379  0.2461 -0.2933 -0.2121
  507TIP3    H122936   4.263   6.309   2.398 -1.4937 -1.3690  0.2376
  507TIP3    H222937   4.123   6.355   2.361 -0.1684  1.4376 -1.6128
  508TIP3   OH222938   2.612   6.542  14.558 -1.1144  0.0399  0.5993
  508TIP3    H122939   2.571   6.461  14.588 -0.9271 -0.1837  0.2524
  508TIP3    H222940   2.703   6.534  14.587 -1.0662  0.0724  0.4550
  509TIP3   OH222941   5.082   3.129   3.253 -0.1257  0.5167  0.5117
  509TIP3    H122942   5.040   3.044   3.258 -1.1755  1.0236  0.6830
  509TIP3    H222943   5.172   3.113   3.279 -0.3377 -0.5176  0.6553
  510TIP3   OH222944   1.022   4.595   3.759  0.1194 -0.2853  0.6092
  510TIP3    H122945   1.019   4.531   3.689 -0.9853 -0.7978  1.1032
  510TIP3    H222946   0.936   4.590   3.801  0.6567  0.1852  1.8383
  511TIP3   OH222947   5.275   2.240   6.597 -0.1086 -0.3594 -0.3977
  511TIP3    H122948   5.327   2.319   6.586  0.9768 -0.8232  1.1136
  511TIP3    H222949   5.309   2.179   6.531 -1.2950  0.5285 -1.9238
  512TIP3   OH222950   3.784   0.440   3.794 -0.3641 -0.2469  0.5067
  512TIP3    H122951   3.861   0.385   3.802 -0.8012 -1.4841 -2.4695
  512TIP3    H222952   3.710   0.382   3.812 -0.7482 -0.2638 -0.9638
  513TIP3   OH222953   0.077   5.887   2.461 -0.1454  0.0440 -0.9399
  513TIP3    H122954   0.021   5.958   2.493 -0.8238  0.3366 -2.6759
  513TIP3    H222955   0.166   5.921   2.469 -0.1849 -0.2438  1.4090
  514TIP3   OH222956   0.244   6.309   5.430 -0.4164  1.1651  0.1899
  514TIP3    H122957   0.312   6.343   5.371 -0.1020  1.0329  0.4708
  514TIP3    H222958   0.223   6.222   5.396 -0.1126  1.0197  0.3712
  515TIP3   OH222959   5.481   0.815   2.491 -0.2290  0.7692  0.0732
  515TIP3    H122960   5.392   0.790   2.517  0.1626 -1.2314 -0.3462
  515TIP3    H222961   5.468   0.875   2.418 -1.2653 -0.0822 -0.4843
  516TIP3   OH222962   6.658   5.960   0.904  0.1871 -0.1567 -0.3400
  516TIP3    H122963   6.747   5.940   0.931  0.7051  0.8811 -1.1907
  516TIP3    H222964   6.635   5.892   0.841  0.7729  0.1589 -0.9005
  517TIP3   OH222965   4.471   1.741  16.554 -0.0247  0.2486  0.6155
  517TIP3    H122966   4.423   1.711  16.631 -0.8547 -0.3701 -0.1169
  517TIP3    H222967   4.450   1.677  16.486  2.8580 -0.7847  0.5763
  518TIP3   OH222968   4.741   2.599  14.473  0.5585 -0.1333  0.0468
  518TIP3    H122969   4.804   2.529  14.457  0.4525 -0.1873 -0.1380
  518TIP3    H222970   4.765   2.634  14.559 -0.1743 -1.2366  0.7262
  519TIP3   OH222971   0.206   1.956   4.486 -0.7164  0.4751  0.3892
  519TIP3    H122972   0.129   1.936   4.539 -1.1949 -0.2435 -0.5364
  519TIP3    H222973   0.249   1.872   4.473 -0.7353  0.5993 -0.5359
  520TIP3   OH222974   4.764   5.944  12.760  0.3343  0.0956 -0.1173
  520TIP3    H122975   4.849   5.948  12.804  0.8070 -0.9118 -0.8865
  520TIP3    H222976   4.753   5.851  12.738  0.1668  0.5459 -2.1586
  521TIP3   OH222977   1.222   6.551   4.227 -0.2626  0.7339  0.3033
  521TIP3    H122978   1.128   6.543   4.216 -0.4426  0.4998  1.8083
  521TIP3    H222979   1.259   6.486   4.167 -1.2484 -2.3912  2.8134
  522TIP3   OH222980   3.662   6.135  11.018  0.7742 -0.0656  0.4658
  522TIP3    H122981   3.717   6.104  11.091  0.3890 -1.1794  0.3062
  522TIP3    H222982   3.690   6.083  10.943 -1.4308 -1.7467  0.6868
  523TIP3   OH222983   4.642   4.490  14.768  0.2806  0.5273  0.1860
  523TIP3    H122984   4.715   4.542  14.735  1.3095 -0.7464  0.4326
  523TIP3    H222985   4.670   4.399  14.758 -0.8122  0.0459  1.3329
  524TIP3   OH222986   1.826   2.804  16.019 -0.6903 -0.3527 -0.4112
  524TIP3    H122987   1.858   2.828  16.106 -2.4539 -1.5030  0.6066
  524TIP3    H222988   1.905   2.795  15.966  0.5624 -1.2824  1.5064
  525TIP3   OH222989   6.466   4.294   2.689  0.5280  0.2401 -0.3326
  525TIP3    H122990   6.433   4.248   2.766 -0.2058 -0.4907 -1.0530
  525TIP3    H222991   6.387   4.327   2.646  1.0810  3.3670  0.8268
  526TIP3   OH222992   1.032   1.577  14.682 -0.0570  0.2035  0.4339
  526TIP3    H122993   0.971   1.566  14.754  0.1387 -0.5893  0.4894
  526TIP3    H222994   0.991   1.532  14.608  0.1885  0.1725  0.3144
  527TIP3   OH222995   2.731   2.314   1.377 -0.4958 -0.1025 -0.7352
  527TIP3    H122996   2.752   2.284   1.289 -0.0924 -1.0775 -0.3196
  527TIP3    H222997   2.806   2.288   1.430 -0.0425  1.8173 -0.3716
  528TIP3   OH222998   6.002   2.911  14.159 -0.5111  0.7472  0.0231
  528TIP3    H122999   5.992   2.976  14.229  0.0679  1.3322 -0.4225
  528TIP3    H223000   6.067   2.949  14.100 -1.7276  0.7440 -1.3927
  529TIP3   OH223001   1.120   6.300  16.846  0.2808 -0.4292 -0.0620
  529TIP3    H123002   1.111   6.263  16.758 -1.4135  0.1082 -0.1604
  529TIP3    H223003   1.098   6.229  16.905 -0.6512 -0.2380 -0.1662
  530TIP3   OH223004   5.246   5.542  14.722  0.2605  0.3940  0.6982
  530TIP3    H123005   5.200   5.579  14.797 -0.1728 -0.4566  0.8672
  530TIP3    H223006   5.274   5.455  14.751  0.8064  0.3760  0.1448
  531TIP3   OH223007   4.730   5.680   5.453  0.1267  0.5893  0.4326
  531TIP3    H123008   4.689   5.642   5.531  0.3284  1.7402  1.1263
  531TIP3    H223009   4.679   5.646   5.380  0.6294 -1.4337  0.9542
  532TIP3   OH223010   1.332   1.474  11.910  0.2789  0.5520 -0.3279
  532TIP3    H123011   1.306   1.405  11.848 -1.3321  1.3229 -0.5667
  532TIP3    H223012   1.266   1.468  11.980  1.9225 -0.1509  1.2416
  533TIP3   OH223013   1.992   6.598  14.795 -0.3849  0.2263 -0.2259
  533TIP3    H123014   1.952   6.518  14.760 -0.1558 -0.2205  0.5358
  533TIP3    H223015   1.952   6.668  14.743 -0.3423 -0.3928 -1.1290
  534TIP3   OH223016   0.479   3.842  12.680 -0.7479 -0.0354 -0.1957
  534TIP3    H123017   0.458   3.753  12.650 -3.1072  0.5851 -0.5291
  534TIP3    H223018   0.549   3.871  12.621 -2.5665 -0.3103 -2.6094
  535TIP3   OH223019   4.523   0.569  15.838 -0.1856  0.3432  0.0515
  535TIP3    H123020   4.490   0.502  15.899  1.7997 -0.9352 -0.1463
  535TIP3    H223021   4.533   0.647  15.892  0.0531 -0.3205  1.0069
  536TIP3   OH223022   4.199   6.576   2.630  0.2766  0.4559  0.5298
  536TIP3    H123023   4.190   6.545   2.720  2.4941 -0.6503  0.4231
  536TIP3    H223024   4.223   6.499   2.579  0.5622  1.3394 -0.7397
  537TIP3   OH223025   0.900   0.932  13.129 -0.7671  0.8436  0.2560
  537TIP3    H123026   0.952   0.978  13.194 -2.6144  2.3047  0.7855
  537TIP3    H223027   0.810   0.962  13.143 -1.8169 -1.5488 -0.6064
  538TIP3   OH223028   3.074   2.446  13.971 -0.7983 -0.6023 -0.5339
  538TIP3    H123029   3.143   2.466  14.035  0.0127  0.2373 -1.6149
  538TIP3    H223030   3.040   2.361  13.998 -0.6985 -0.1357  1.1843
  539TIP3   OH223031   1.048   3.797  15.312  0.6199 -0.2833  0.1719
  539TIP3    H123032   1.071   3.755  15.395  0.1291 -1.1072 -0.0975
  539TIP3    H223033   0.960   3.832  15.327  1.2912  1.3145  0.6256
  540TIP3   OH223034   4.042   0.249   2.744  0.3999  0.1773 -0.6063
  540TIP3    H123035   4.039   0.243   2.649 -1.1077  0.5882 -0.6225
  540TIP3    H223036   3.998   0.332   2.764 -0.8830 -0.7035  0.4874
  541TIP3   OH223037   6.419   2.319  14.561  0.1803  0.0393  0.5150
  541TIP3    H123038   6.460   2.367  14.489  1.0224 -0.3422  0.7270
  541TIP3    H223039   6.360   2.382  14.602  2.3198  1.3992  1.6982
  542TIP3   OH223040   0.719   2.184   3.553  0.0638 -0.0952  0.2852
  542TIP3    H123041   0.771   2.251   3.510 -0.6196  0.9932  1.1036
  542TIP3    H223042   0.783   2.129   3.599  0.4874  2.3614  2.8945
  543TIP3   OH223043   1.818   2.522  14.749 -0.0662  0.3057  0.7269
  543TIP3    H123044   1.856   2.436  14.729  2.0243  1.2498  0.2930
  543TIP3    H223045   1.832   2.572  14.669  0.0477  1.4639  1.4592
  544TIP3   OH223046   1.746   0.289  14.677  0.2111  0.2359 -0.3960
  544TIP3    H123047   1.736   0.376  14.715 -2.9258 -1.0496  2.2793
  544TIP3    H223048   1.672   0.280  14.616 -1.3993 -1.3995  1.6057
  545TIP3   OH223049   6.644   3.107   2.200  0.4161  0.3390  0.0556
  545TIP3    H123050   6.669   3.141   2.115 -0.9305 -0.7296 -0.8027
  545TIP3    H223051   6.549   3.094   2.195  0.4761 -0.8673  1.2930
  546TIP3   OH223052   6.750   2.909   2.600  0.6572 -0.2648 -0.4762
  546TIP3    H123053   6.670   2.952   2.631  1.1337  0.9123 -0.8357
  546TIP3    H223054   6.720   2.823   2.570 -0.7023  0.5839 -1.7229
  547TIP3   OH223055   5.549   5.551  12.128  0.5115  0.0987  0.3329
  547TIP3    H123056   5.490   5.526  12.057  1.4997  0.5083 -0.6661
  547TIP3    H223057   5.559   5.472  12.181  1.5185 -0.9045 -1.2725
  548TIP3   OH223058   3.563   0.799  13.611 -0.0262  0.1754  0.2276
  548TIP3    H123059   3.635   0.797  13.674 -0.8236 -0.6168  1.1638
  548TIP3    H223060   3.487   0.769  13.661 -1.0204  1.0131 -0.7225
  549TIP3   OH223061   0.823   1.804  15.674  0.3976  0.3300  0.3441
  549TIP3    H123062   0.805   1.788  15.582  0.3831 -1.2860  0.5958
  549TIP3    H223063   0.770   1.739  15.721  0.3145  1.1941  1.5052
  550TIP3   OH223064   0.176   1.182  16.906  0.0382 -0.1860  0.0747
  550TIP3    H123065   0.093   1.135  16.917  0.7168 -1.4524  0.0250
  550TIP3    H223066   0.200   1.207  16.995  0.3517 -1.1984  0.2944
  551TIP3   OH223067   2.036   6.708  15.703  0.0023 -0.9020 -0.1214
  551TIP3    H123068   2.048   6.645  15.773  0.8096  0.7748  1.3032
  551TIP3    H223069   2.105   6.688  15.640  0.4143 -1.2761  0.4417
  552TIP3   OH223070   3.635   2.884  12.633 -0.4197 -0.4840 -0.5985
  552TIP3    H123071   3.610   2.793  12.648  1.9925 -0.9533  1.3045
  552TIP3    H223072   3.652   2.919  12.721 -1.2308  1.8461 -1.2698
  553TIP3   OH223073   0.153   0.662  11.695 -0.3582 -0.1573 -0.1943
  553TIP3    H123074   0.195   0.659  11.609  1.3713  3.4170  0.3488
  553TIP3    H223075   0.225   0.676  11.756 -1.9011  2.3124  1.2155
  554TIP3   OH223076   2.317   5.637  12.134 -0.3987 -0.1220  0.1130
  554TIP3    H123077   2.331   5.543  12.122  0.7972  0.1105 -0.3899
  554TIP3    H223078   2.274   5.665  12.053 -0.6107 -0.1965  0.1976
  555TIP3   OH223079   2.643   4.996  14.354  0.7136  0.1145  0.9388
  555TIP3    H123080   2.566   4.997  14.297  0.8992  1.2488  0.6990
  555TIP3    H223081   2.706   5.053  14.312  0.7890  1.1305  2.3624
  556TIP3   OH223082   0.883   3.078   1.790 -0.2849 -0.1439 -0.1445
  556TIP3    H123083   0.827   3.068   1.867  0.9426 -1.5336  0.6257
  556TIP3    H223084   0.901   3.172   1.785  0.1714 -0.0847  1.7191
  557TIP3   OH223085   0.641   0.301  12.379  0.0067 -0.1501 -0.2159
  557TIP3    H123086   0.735   0.283  12.381 -0.2729 -1.6560  1.5469
  557TIP3    H223087   0.605   0.235  12.319  0.2205  1.6424 -2.4734
  558TIP3   OH223088   4.186   3.458  14.206 -0.1392  0.0542  0.0048
  558TIP3    H123089   4.102   3.477  14.247 -1.1946 -3.0359 -0.4640
  558TIP3    H223090   4.177   3.369  14.171  3.4691 -0.6242  0.3256
  559TIP3   OH223091   0.635   2.574   4.944 -0.0433  0.3736  0.0229
  559TIP3    H123092   0.729   2.575   4.962  0.0781  1.3775 -0.5734
  559TIP3    H223093   0.594   2.560   5.030  0.6362  0.8000  0.4279
  560TIP3   OH223094   2.989   6.635  15.811  0.4496 -0.0773  0.2017
  560TIP3    H123095   2.990   6.675  15.898 -0.7073  0.8837 -0.2064
  560TIP3    H223096   2.957   6.546  15.827 -1.4150  0.6189  0.5892
  561TIP3   OH223097   6.241   1.906  12.930 -0.1333 -0.1810 -0.9943
  561TIP3    H123098   6.150   1.917  12.956 -0.4314 -1.4834 -1.3999
  561TIP3    H223099   6.271   1.994  12.909 -0.5331  0.6298  1.5540
  562TIP3   OH223100   6.546   0.424   0.417 -0.5200  0.1091  0.0206
  562TIP3    H123101   6.578   0.334   0.420  0.9234  0.5785 -0.4200
  562TIP3    H223102   6.469   0.424   0.474  1.0602 -0.7978  2.3220
  563TIP3   OH223103   6.185   1.503  17.179  0.2344 -0.5440 -0.4551
  563TIP3    H123104   6.193   1.565  17.252  0.7700 -0.4268 -0.6134
  563TIP3    H223105   6.095   1.469  17.187  0.0128  0.0742 -0.2281
  564TIP3   OH223106   6.276   1.704  15.540 -0.5055  0.5993  0.5608
  564TIP3    H123107   6.281   1.787  15.492 -1.7842  0.7577  0.6630
  564TIP3    H223108   6.338   1.646  15.495 -0.1749  1.3630  0.0067
  565TIP3   OH223109   3.145   1.045  14.155 -0.5617 -0.1286 -0.0676
  565TIP3    H123110   3.095   0.990  14.216 -1.4494  0.6239 -0.0885
  565TIP3    H223111   3.236   1.036  14.184 -0.8543 -0.5346  0.7718
  566TIP3   OH223112   6.693   5.715  16.054  0.7013 -0.2824  0.3775
  566TIP3    H123113   6.742   5.793  16.082 -0.4468  1.2643 -1.6709
  566TIP3    H223114   6.760   5.658  16.016  1.2921  0.5573  0.1238
  567TIP3   OH223115   6.218   6.688   0.752 -0.8843 -0.0888 -0.1854
  567TIP3    H123116   6.285   6.757   0.756 -1.4094  0.4046  0.1927
  567TIP3    H223117   6.159   6.714   0.682 -2.1144  0.8170  1.1300
  568TIP3   OH223118   4.021   2.447   1.111  0.1078  0.1554  0.5549
  568TIP3    H123119   4.091   2.421   1.171  1.2709  1.1743 -0.3072
  568TIP3    H223120   3.960   2.373   1.111  1.2734 -0.8362  1.1879
  569TIP3   OH223121   2.729   5.871   3.631  0.2041  0.0424  0.0474
  569TIP3    H123122   2.752   5.964   3.640 -1.0491  0.2627  1.4044
  569TIP3    H223123   2.706   5.861   3.539 -2.0999  1.7606  0.3357
  570TIP3   OH223124   3.338   3.555   0.047 -0.3431 -0.4467  0.4251
  570TIP3    H123125   3.261   3.569   0.102 -0.2461 -0.4871  0.5721
  570TIP3    H223126   3.305   3.509  -0.030 -0.5924  0.1864  0.1438
  571TIP3   OH223127   4.417   6.200   2.398  0.4191  0.1765 -0.1325
  571TIP3    H123128   4.505   6.234   2.386  0.1475  1.1463  0.4777
  571TIP3    H223129   4.422   6.108   2.370  1.9588 -0.2186  1.3054
  572TIP3   OH223130   2.222   1.072  16.609 -0.1409 -0.1631 -0.3333
  572TIP3    H123131   2.197   1.018  16.534 -2.5133  0.9339 -0.4206
  572TIP3    H223132   2.194   1.021  16.685 -0.1239 -0.1462 -0.3155
  573TIP3   OH223133   1.117   3.194   4.616 -0.1656  0.3561 -0.0610
  573TIP3    H123134   1.074   3.232   4.693 -0.2289  2.4943 -1.0663
  573TIP3    H223135   1.210   3.195   4.638 -0.2152  0.5559  0.1495
  574TIP3   OH223136   1.468   6.379  13.117  0.0831  0.2220  0.1575
  574TIP3    H123137   1.374   6.363  13.123 -0.1075  0.5245 -1.5123
  574TIP3    H223138   1.487   6.437  13.190 -1.0690  0.3416  0.3856
  575TIP3   OH223139   2.264   5.435  15.134 -0.1552 -0.2497 -0.1893
  575TIP3    H123140   2.175   5.443  15.100 -0.1908  1.7923  0.2543
  575TIP3    H223141   2.313   5.394  15.062 -0.5937  2.3842 -2.1611
  576TIP3   OH223142   4.820   0.503   2.332  0.7635 -0.1218  0.4330
  576TIP3    H123143   4.799   0.589   2.368  0.8022  0.2370 -0.3864
  576TIP3    H223144   4.785   0.441   2.396  0.7903  0.5021  1.0596
  577TIP3   OH223145   1.065   2.899   4.502  0.2143 -0.6896  0.1841
  577TIP3    H123146   1.089   2.854   4.421 -0.0913 -0.6981  0.0966
  577TIP3    H223147   1.148   2.927   4.540  0.3677 -0.8249 -0.0529
  578TIP3   OH223148   0.945   4.286  13.040 -0.3002  0.3594 -0.0698
  578TIP3    H123149   1.013   4.220  13.027  1.3792  1.5448  2.1874
  578TIP3    H223150   0.962   4.351  12.972  0.2021  0.1715 -0.1277
  579TIP3   OH223151   1.394   0.057   1.444 -0.1156  0.0180  0.0730
  579TIP3    H123152   1.473   0.042   1.393 -0.3501  2.0081 -0.9611
  579TIP3    H223153   1.347  -0.026   1.441  1.4144 -0.8676 -0.1928
  580TIP3   OH223154   3.281   2.790  17.195  0.1318 -0.3928  0.1933
  580TIP3    H123155   3.210   2.764  17.137 -0.7641  0.7541  0.7288
  580TIP3    H223156   3.329   2.709  17.213 -1.3498 -1.2965  0.2289
  581TIP3   OH223157   1.009   2.131   6.273 -0.0423  0.2569  0.5906
  581TIP3    H123158   0.955   2.088   6.340 -1.1067  0.0205 -0.3802
  581TIP3    H223159   0.987   2.224   6.281 -0.7553  0.1415  0.0824
  582TIP3   OH223160   5.066   4.697   0.857 -0.1192 -0.3166 -0.2702
  582TIP3    H123161   4.994   4.643   0.824  0.5575  0.1662 -2.7581
  582TIP3    H223162   5.024   4.781   0.877 -0.7013 -0.8868  0.9852
  583TIP3   OH223163   2.485   3.979  15.485  0.1124 -0.6059  0.0974
  583TIP3    H123164   2.491   4.066  15.525  0.8187 -0.9471  0.7556
  583TIP3    H223165   2.571   3.940  15.499  1.1718  0.0257 -3.5917
  584TIP3   OH223166   6.238   3.578   2.772 -0.4706 -0.2109  0.1888
  584TIP3    H123167   6.170   3.511   2.767  0.8756 -1.6202 -0.4664
  584TIP3    H223168   6.268   3.575   2.863  0.4312 -1.4579 -0.1144
  585TIP3   OH223169   0.816   2.461  14.028 -0.3752  0.7893 -0.2505
  585TIP3    H123170   0.726   2.428  14.031  0.0593 -0.4600 -0.6169
  585TIP3    H223171   0.869   2.391  14.065  0.3194  2.1053  1.3801
  586TIP3   OH223172   1.527   5.340  14.696 -0.2792 -0.2020  0.9182
  586TIP3    H123173   1.524   5.364  14.788  0.0235 -0.0375  0.8842
  586TIP3    H223174   1.617   5.358  14.668 -0.1772 -0.9037  0.7675
  587TIP3   OH223175   5.228   5.995  15.351 -0.3265 -0.0398 -0.7870
  587TIP3    H123176   5.266   6.054  15.415  0.6659  0.4157 -1.7763
  587TIP3    H223177   5.138   6.027  15.339 -0.3349  0.2189 -0.0745
  588TIP3   OH223178   2.240   2.384  16.326 -0.3512 -0.2911  0.2731
  588TIP3    H123179   2.319   2.401  16.276  0.2055 -0.0704  1.2156
  588TIP3    H223180   2.186   2.331  16.267 -0.0079  0.5398 -0.8074
  589TIP3   OH223181   4.622   6.154   0.089  0.3728  0.3066  0.1906
  589TIP3    H123182   4.531   6.180   0.080 -0.1648 -0.9243  1.5557
  589TIP3    H223183   4.653   6.203   0.166  0.7130  0.3355  0.0377
  590TIP3   OH223184   3.897   4.332   3.809  0.3027  0.2559 -0.5272
  590TIP3    H123185   3.957   4.355   3.738  1.0173  0.3096  0.0776
  590TIP3    H223186   3.955   4.311   3.883 -0.4180 -0.1361 -0.0674
  591TIP3   OH223187   6.184   4.410  16.049  0.3204  0.0767 -0.5114
  591TIP3    H123188   6.172   4.416  16.144 -0.6785 -1.7028 -0.4771
  591TIP3    H223189   6.096   4.417  16.013  0.3799 -1.6562 -1.1041
  592TIP3   OH223190   0.645   2.335   2.330 -0.1440  0.2758  0.0279
  592TIP3    H123191   0.671   2.244   2.318 -1.4022 -0.1826  0.5597
  592TIP3    H223192   0.657   2.352   2.424 -1.5475  0.0714  0.2808
  593TIP3   OH223193   3.311   3.551   6.124  0.2641  0.0864  0.2883
  593TIP3    H123194   3.310   3.631   6.072  1.7795  0.4764  0.8068
  593TIP3    H223195   3.378   3.496   6.083 -2.6777 -2.2702 -1.8954
  594TIP3   OH223196   6.122   2.048  11.633 -0.1573 -0.1241  0.1547
  594TIP3    H123197   6.036   2.013  11.609  0.5384  0.1373 -3.2211
  594TIP3    H223198   6.117   2.141  11.613  0.2460  0.4313  2.2979
  595TIP3   OH223199   5.225   2.738  11.978  0.2921  0.8298 -0.4549
  595TIP3    H123200   5.276   2.762  11.901  0.6012  2.0539  0.0956
  595TIP3    H223201   5.138   2.775  11.961  0.2839  0.8630 -0.3444
  596TIP3   OH223202   3.029   5.431   2.970 -0.4369  0.4051  0.3504
  596TIP3    H123203   2.940   5.424   3.004 -0.5533  0.9574  0.1705
  596TIP3    H223204   3.079   5.367   3.020 -0.5857  1.2479  1.6154
  597TIP3   OH223205   4.620   3.311  13.344 -0.5503 -0.2671 -0.2632
  597TIP3    H123206   4.542   3.338  13.392 -0.7193  0.0685 -0.7251
  597TIP3    H223207   4.589   3.242  13.286 -0.9952  1.3585 -2.0525
  598TIP3   OH223208   4.831   6.512   2.577 -0.2603  0.0056 -0.5297
  598TIP3    H123209   4.781   6.431   2.588  0.6680 -0.4027  0.9975
  598TIP3    H223210   4.922   6.485   2.589 -0.0722  1.6152  2.4468
  599TIP3   OH223211   2.711   3.329   1.472  0.5686 -0.2572  0.4781
  599TIP3    H123212   2.635   3.386   1.480  0.7015 -0.1894  1.3961
  599TIP3    H223213   2.766   3.351   1.548  0.4717 -1.8110  1.0418
  600TIP3   OH223214   2.551   4.104   2.937  0.2134  0.5588  0.5590
  600TIP3    H123215   2.620   4.127   2.999  1.3760 -0.7485 -0.1942
  600TIP3    H223216   2.583   4.137   2.852 -0.0590 -0.0948  0.1958
  601TIP3   OH223217   6.780   4.133   2.923  0.3540 -0.9655 -0.0873
  601TIP3    H123218   6.849   4.197   2.936  0.1934 -0.9582  0.8183
  601TIP3    H223219   6.810   4.079   2.850  0.3028  0.3752 -1.1352
  602TIP3   OH223220   5.572   1.287   3.764 -0.2584 -0.3113  0.7544
  602TIP3    H123221   5.554   1.226   3.693 -0.8167 -0.8386  1.3406
  602TIP3    H223222   5.494   1.285   3.818  0.2181 -0.0232  1.4676
  603TIP3   OH223223   0.638   4.351   1.749 -0.8418  0.1321 -0.4235
  603TIP3    H123224   0.701   4.423   1.749 -0.0523 -0.5325 -1.2566
  603TIP3    H223225   0.564   4.384   1.801  0.3355  0.7942  0.9250
  604TIP3   OH223226   1.657   1.900   5.211 -0.0357 -0.6743 -0.3716
  604TIP3    H123227   1.649   1.924   5.118 -4.6451 -0.8130 -0.2315
  604TIP3    H223228   1.665   1.983   5.256 -0.4807 -0.3987 -0.7818
  605TIP3   OH223229   4.103   3.482  12.726 -0.3899 -0.8644  0.0830
  605TIP3    H123230   4.155   3.544  12.674 -1.6737  1.7395  1.6991
  605TIP3    H223231   4.078   3.414  12.664 -0.1505  1.0132 -2.2105
  606TIP3   OH223232   4.975   2.372  13.310 -0.2521  0.1627  0.3927
  606TIP3    H123233   5.032   2.318  13.256  0.3150  1.4453 -0.3485
  606TIP3    H223234   4.886   2.344  13.288  0.0292 -0.6788  0.2805
  607TIP3   OH223235   4.491   3.520   2.367 -0.2731 -0.0594  0.4510
  607TIP3    H123236   4.550   3.454   2.332  1.4604  1.9598 -0.6941
  607TIP3    H223237   4.510   3.523   2.461  2.6499  1.5390 -0.0842
  608TIP3   OH223238   5.270   1.760   5.892  0.0239 -0.4179  0.1274
  608TIP3    H123239   5.336   1.809   5.843  0.1525  0.0145  0.7260
  608TIP3    H223240   5.290   1.777   5.984 -2.3821  1.7656  0.3403
  609TIP3   OH223241   2.594   5.075  16.173 -0.2410  0.1401  0.2003
  609TIP3    H123242   2.620   5.074  16.081  0.8767  1.5457  0.4743
  609TIP3    H223243   2.674   5.094  16.221 -0.8552 -0.3268  1.4700
  610TIP3   OH223244   4.256   4.044  16.097  0.1083 -0.6718 -0.0374
  610TIP3    H123245   4.282   4.124  16.144 -0.1240  0.4375 -1.7180
  610TIP3    H223246   4.192   4.002  16.155 -0.2501  0.6969  0.6039
  611TIP3   OH223247   3.071   0.266   2.609 -0.5652  0.6583  0.5111
  611TIP3    H123248   3.098   0.309   2.528  1.1961 -0.0326  0.6717
  611TIP3    H223249   3.019   0.331   2.656 -1.1938  1.2331 -0.9455
  612TIP3   OH223250   1.596   4.964   5.234 -0.0142  0.9058 -0.3607
  612TIP3    H123251   1.546   4.915   5.299  0.7393  1.5764  0.7542
  612TIP3    H223252   1.684   4.926   5.237 -0.3416 -0.0800 -2.1064
  613TIP3   OH223253   1.604   3.448  10.534  0.0064  0.0448 -0.1084
  613TIP3    H123254   1.610   3.543  10.531 -1.9348  0.2900  1.3890
  613TIP3    H223255   1.669   3.422  10.599  1.5044  0.1748 -1.5049
  614TIP3   OH223256   3.099   0.561  14.663  0.2608  0.5984  0.7725
  614TIP3    H123257   3.057   0.501  14.725  0.3324  0.6435  0.8661
  614TIP3    H223258   3.139   0.628  14.719 -0.4684  1.1517  0.6334
  615TIP3   OH223259   5.049   0.704   1.494 -0.0170  0.1119 -0.9744
  615TIP3    H123260   4.964   0.734   1.526 -0.8232 -1.2759 -1.7390
  615TIP3    H223261   5.034   0.614   1.464  1.9381 -0.5167 -0.2455
  616TIP3   OH223262   3.543   3.647  11.804  0.1850 -0.0133 -0.3705
  616TIP3    H123263   3.534   3.739  11.779  1.9355 -0.4661 -3.0735
  616TIP3    H223264   3.470   3.631  11.863 -0.0581  3.1423  0.3697
  617TIP3   OH223265   5.702   1.645  14.373  0.6807  0.6411 -0.2738
  617TIP3    H123266   5.616   1.676  14.399  0.6404 -0.1916  0.6470
  617TIP3    H223267   5.754   1.724  14.361 -0.0222  1.1231 -0.1872
  618TIP3   OH223268   6.688   4.124   3.752 -0.5551  0.0525  0.3262
  618TIP3    H123269   6.666   4.214   3.728 -0.4441 -0.0207 -0.0603
  618TIP3    H223270   6.777   4.129   3.787  0.3226 -0.2043 -1.7081
  619TIP3   OH223271   3.490   1.526   4.880 -0.1908  0.1998  0.3318
  619TIP3    H123272   3.468   1.546   4.971 -0.7302 -1.3277  0.5569
  619TIP3    H223273   3.543   1.447   4.884 -1.2169 -0.5842 -0.7473
  620TIP3   OH223274   1.797   2.766  15.723 -0.2316 -0.5096 -0.0993
  620TIP3    H123275   1.772   2.674  15.721  1.3129 -0.9913  0.7094
  620TIP3    H223276   1.828   2.781  15.813  2.1980 -0.0058 -0.9259
  621TIP3   OH223277   0.310   5.504  13.555  0.1135 -0.6603 -0.6530
  621TIP3    H123278   0.262   5.431  13.514 -1.5555 -0.6449  1.1418
  621TIP3    H223279   0.242   5.568  13.577  1.3549  0.7057 -0.6568
  622TIP3   OH223280   3.486   4.277   4.863  0.4128  0.0673  0.4136
  622TIP3    H123281   3.510   4.228   4.785 -0.6712 -0.2134  0.2365
  622TIP3    H223282   3.527   4.230   4.936 -0.7431 -1.2398  0.2678
  623TIP3   OH223283   3.110   1.326  15.013 -0.6759 -0.1083 -0.1379
  623TIP3    H123284   3.015   1.333  15.026 -0.7977  0.9734 -1.4596
  623TIP3    H223285   3.127   1.375  14.933  1.1641  0.7075  0.6998
  624TIP3   OH223286   3.341   5.211   0.106 -0.2528  0.1821  0.1328
  624TIP3    H123287   3.403   5.282   0.094 -0.5640  0.5760  0.8012
  624TIP3    H223288   3.393   5.131   0.093  0.0098  0.5304 -0.9942
  625TIP3   OH223289   2.795   2.467   1.759  0.2004  0.4204 -0.2721
  625TIP3    H123290   2.818   2.374   1.770 -1.6509 -0.3225 -1.9941
  625TIP3    H223291   2.878   2.513   1.763  1.0496 -1.1148  2.0442
  626TIP3   OH223292   1.803   4.400   0.999  0.0243  0.0525  0.4782
  626TIP3    H123293   1.806   4.441   1.085  1.0728  0.2846  0.3430
  626TIP3    H223294   1.711   4.374   0.988 -0.2343  0.5224  1.4203
  627TIP3   OH223295   0.472   2.184   0.481 -0.1456 -0.2828 -0.3275
  627TIP3    H123296   0.515   2.259   0.440 -0.8412  0.4044  0.1873
  627TIP3    H223297   0.432   2.137   0.407  0.3788 -0.2211 -0.6609
  628TIP3   OH223298   4.931   5.384   0.340  0.3367  0.7830  0.2806
  628TIP3    H123299   4.896   5.409   0.255  0.9311 -0.4874 -0.3665
  628TIP3    H223300   4.880   5.308   0.367  0.1712  1.1522  1.0638
  629TIP3   OH223301   4.997   0.240  16.315  0.4651 -0.2817  0.4853
  629TIP3    H123302   4.973   0.330  16.336 -1.5287 -0.7499  0.4385
  629TIP3    H223303   5.080   0.226  16.360  0.7103  1.5062  0.6584
  630TIP3   OH223304   4.515   2.880   0.235  0.3364  0.2189 -0.1615
  630TIP3    H123305   4.571   2.944   0.279 -1.4444  1.7405  0.0004
  630TIP3    H223306   4.501   2.917   0.147 -0.5328 -0.0551 -0.1415
  631TIP3   OH223307   3.847   6.215   0.277  0.3503  0.1744  0.0870
  631TIP3    H123308   3.901   6.253   0.208  1.9600  1.2718  1.8455
  631TIP3    H223309   3.891   6.241   0.358 -2.2275  0.1272  1.5830
  632TIP3   OH223310   0.180   1.091  15.612 -0.5568  0.4556  0.2327
  632TIP3    H123311   0.143   1.174  15.581  0.8074 -0.3226 -4.2097
  632TIP3    H223312   0.104   1.033  15.621 -1.1847  1.2055 -0.1111
  633TIP3   OH223313   6.772   6.090  11.208  0.2128  0.3870 -0.1075
  633TIP3    H123314   6.785   6.158  11.142 -2.8305 -0.0266 -1.3302
  633TIP3    H223315   6.765   6.009  11.158 -0.2946 -0.2153  0.9078
  634TIP3   OH223316   3.103   5.251   1.478  0.3180 -0.3720 -0.5028
  634TIP3    H123317   3.163   5.189   1.520  0.0270 -0.1581  0.2573
  634TIP3    H223318   3.053   5.198   1.416  0.1491 -0.8799  0.0553
  635TIP3   OH223319   3.232   4.414   5.090 -0.3843 -0.2505 -0.2174
  635TIP3    H123320   3.143   4.419   5.055  0.3269 -0.2812 -2.1561
  635TIP3    H223321   3.286   4.464   5.028  0.9336 -0.0414  1.0263
  636TIP3   OH223322   0.044   6.631   3.951 -0.3219 -0.7110 -0.1475
  636TIP3    H123323   0.081   6.550   3.986 -1.0026 -1.3314 -0.8299
  636TIP3    H223324   0.033   6.614   3.858 -0.3177  0.2292 -0.3277
  637TIP3   OH223325   4.564   2.549  13.296 -0.2835 -0.2470  0.1302
  637TIP3    H123326   4.489   2.551  13.237 -0.2808  0.7646  0.1390
  637TIP3    H223327   4.528   2.574  13.381  0.3423  2.1284 -0.2324
  638TIP3   OH223328   3.875   6.612  11.663  0.0604 -0.6971  0.4719
  638TIP3    H123329   3.933   6.537  11.652  0.2227 -0.1915 -4.1127
  638TIP3    H223330   3.789   6.580  11.635 -0.1773  0.4738 -0.1963
  639TIP3   OH223331   2.605   3.501   3.185 -1.1280 -1.0683  0.3805
  639TIP3    H123332   2.696   3.497   3.155 -1.3230 -1.7605 -0.1584
  639TIP3    H223333   2.568   3.578   3.141 -0.9619 -1.1317  0.1269
  640TIP3   OH223334   2.339   4.001   5.413 -0.0152  0.4529 -0.0169
  640TIP3    H123335   2.367   4.089   5.388  0.7927  0.0714 -0.4834
  640TIP3    H223336   2.314   3.959   5.331 -0.0096  0.1133  0.1534
  641TIP3   OH223337   3.513   1.311   1.818  0.4740 -0.0146  0.1434
  641TIP3    H123338   3.521   1.401   1.848  2.6554 -0.3335  0.7215
  641TIP3    H223339   3.422   1.302   1.792  0.6286  2.9592 -1.9291
  642TIP3   OH223340   1.003   1.570  13.163 -0.1441 -0.1092 -0.2975
  642TIP3    H123341   1.070   1.579  13.095 -0.6732  1.1988 -0.6761
  642TIP3    H223342   1.024   1.639  13.226 -2.7903  2.4447 -1.9309
  643TIP3   OH223343   1.893   0.323   1.838  0.4473  0.0364 -0.7014
  643TIP3    H123344   1.851   0.394   1.789 -0.0696 -0.0498 -0.3911
  643TIP3    H223345   1.986   0.347   1.839  0.3272  0.5326 -0.8979
  644TIP3   OH223346   0.687   5.229   1.499 -0.5298 -0.0374  0.0514
  644TIP3    H123347   0.640   5.154   1.463  0.1638 -2.0455  2.9808
  644TIP3    H223348   0.761   5.242   1.439 -0.7567 -1.5901 -0.6177
  645TIP3   OH223349   2.370   2.069  16.847 -0.4075  0.2975  0.3096
  645TIP3    H123350   2.277   2.056  16.864 -0.5037 -0.1527 -0.5164
  645TIP3    H223351   2.372   2.133  16.775 -0.0513  0.9669  0.8983
  646TIP3   OH223352   3.099   3.370   3.985  0.0669  0.0712 -0.1280
  646TIP3    H123353   3.080   3.277   3.973  0.7756  0.1633 -2.3465
  646TIP3    H223354   3.183   3.383   3.942 -0.5614  1.9734 -0.8830
  647TIP3   OH223355   2.681   2.895   2.372 -0.0168 -0.5715  0.2949
  647TIP3    H123356   2.769   2.894   2.335 -0.1217 -0.6843  0.0456
  647TIP3    H223357   2.664   2.804   2.396 -0.5474 -0.7842 -0.8155
  648TIP3   OH223358   3.157   5.228  11.838  0.3775  0.6859 -0.5595
  648TIP3    H123359   3.091   5.294  11.812 -1.3613 -1.1057 -0.9386
  648TIP3    H223360   3.226   5.237  11.772 -1.3637 -0.0024 -2.6352
  649TIP3   OH223361   1.582   4.572  13.619  0.0604  0.5023 -0.9857
  649TIP3    H123362   1.578   4.661  13.653  0.6745  0.2441 -0.1945
  649TIP3    H223363   1.636   4.579  13.541  1.0035  0.6694 -0.3390
  650TIP3   OH223364   2.843   5.976   0.615 -0.0479  0.1069  0.7693
  650TIP3    H123365   2.856   5.922   0.537  0.4429  0.4049  0.6366
  650TIP3    H223366   2.923   6.030   0.620 -1.2687  2.1160 -0.1489
  651TIP3   OH223367   2.502   2.701  13.430  0.2964  0.1966  0.2544
  651TIP3    H123368   2.466   2.632  13.485  2.3406 -1.2657 -0.1026
  651TIP3    H223369   2.426   2.750  13.398 -1.0405  0.0187  2.9176
  652TIP3   OH223370   0.404   2.822   5.913 -0.1868 -0.8975  0.7878
  652TIP3    H123371   0.475   2.829   5.976  1.1839  1.8950 -0.8704
  652TIP3    H223372   0.447   2.793   5.832 -1.2225 -0.6866  0.1450
  653TIP3   OH223373   5.070   1.105   5.458 -0.0242  0.3296  0.4184
  653TIP3    H123374   5.034   1.067   5.539 -2.4831 -0.0568 -0.7496
  653TIP3    H223375   5.101   1.029   5.408  1.6619  0.5829  1.0115
  654TIP3   OH223376   2.180   3.498   2.561 -0.1569  0.1061 -0.0896
  654TIP3    H123377   2.204   3.490   2.653 -0.5671 -1.7445 -0.0963
  654TIP3    H223378   2.105   3.557   2.561 -0.4981 -0.3026  0.8426
  655TIP3   OH223379   0.172   1.907  15.813  0.3614  0.4875  0.5354
  655TIP3    H123380   0.234   1.844  15.777  0.4370 -0.0034  1.4775
  655TIP3    H223381   0.200   1.992  15.779  0.2702  0.0274 -0.7337
  656TIP3   OH223382   5.004   0.509   1.741 -0.1500 -0.2969  0.1520
  656TIP3    H123383   4.967   0.528   1.655  0.6906 -1.1799 -0.4228
  656TIP3    H223384   4.936   0.458   1.786 -1.9950  2.8796  1.3223
  657TIP3   OH223385   6.735   2.686   0.858 -0.2355  0.0860  0.1069
  657TIP3    H123386   6.642   2.686   0.879 -0.0737 -1.1296  0.8795
  657TIP3    H223387   6.779   2.670   0.942  0.7162  1.2633 -0.1280
  658TIP3   OH223388   0.881   2.860  17.165 -0.3795  0.2342 -0.8314
  658TIP3    H123389   0.960   2.811  17.190 -0.0845  1.4811  0.8309
  658TIP3    H223390   0.809   2.804  17.193 -0.0620  0.0290 -0.4060
  659TIP3   OH223391   3.202   3.032   4.491  0.0518  0.3243 -0.2293
  659TIP3    H123392   3.174   3.124   4.492  0.7100  0.5294 -0.2785
  659TIP3    H223393   3.121   2.983   4.473 -0.6687  0.7384  1.6863
  660TIP3   OH223394   0.164   2.266  16.635  0.2642  0.0338 -0.2971
  660TIP3    H123395   0.149   2.302  16.723 -0.9620 -3.1394  0.9299
  660TIP3    H223396   0.098   2.309  16.581 -1.2045 -0.3372  1.1033
  661TIP3   OH223397   4.523   5.107  11.058  0.1229 -0.1282 -0.2562
  661TIP3    H123398   4.579   5.075  11.129  0.8794 -0.1660 -0.8542
  661TIP3    H223399   4.459   5.038  11.045  0.6796 -0.6326 -0.3678
  662TIP3   OH223400   0.873   2.003   3.356 -0.0546  0.5088  0.2531
  662TIP3    H123401   0.790   1.966   3.325 -0.0185  1.4803 -1.0897
  662TIP3    H223402   0.873   2.093   3.322  1.5512  0.5148  0.2197
  663TIP3   OH223403   0.584   5.591  14.293  0.1450 -0.0840  0.0341
  663TIP3    H123404   0.678   5.572  14.285  0.1460 -0.5894  1.1268
  663TIP3    H223405   0.547   5.514  14.336 -0.8925 -0.1561 -0.9384
  664TIP3   OH223406   0.257   5.848  13.743  0.6393 -0.4161 -0.4893
  664TIP3    H123407   0.351   5.835  13.728  0.8719  2.3208 -2.0837
  664TIP3    H223408   0.216   5.773  13.699  2.0336 -1.3037 -0.3536
  665TIP3   OH223409   1.093   2.482  12.330  0.2949  0.2235  0.4255
  665TIP3    H123410   1.112   2.446  12.417  0.0151 -0.6049  0.1543
  665TIP3    H223411   1.001   2.460  12.314  0.0181  1.3782  0.3910
  666TIP3   OH223412   2.631   0.699  11.927  0.0280  0.1577 -0.7542
  666TIP3    H123413   2.581   0.776  11.956  0.3119  1.0321 -2.4517
  666TIP3    H223414   2.591   0.674  11.844  0.3660 -1.1369 -0.5401
  667TIP3   OH223415   0.124   4.578  11.912  0.7149  0.1185  0.6142
  667TIP3    H123416   0.210   4.556  11.948  0.7109  0.7889  1.0447
  667TIP3    H223417   0.075   4.495  11.915  0.7711  0.1050  2.0026
  668TIP3   OH223418   0.858   2.294   1.202  0.5352  0.0537  0.0670
  668TIP3    H123419   0.844   2.278   1.295 -0.8634  0.5271 -0.0444
  668TIP3    H223420   0.858   2.207   1.162 -0.9872 -0.0500  0.2456
  669TIP3   OH223421   2.791   4.758  13.810  0.0175 -0.2155  0.3154
  669TIP3    H123422   2.861   4.811  13.773 -0.0758  0.1620  0.6719
  669TIP3    H223423   2.752   4.813  13.878  0.2843 -0.9431  1.0809
  670TIP3   OH223424   2.930   4.384   3.058  0.0346  0.4685 -0.1144
  670TIP3    H123425   2.892   4.303   3.094 -0.0623  1.2640  1.7039
  670TIP3    H223426   2.855   4.437   3.033  0.0451  0.5982  0.1233
  671TIP3   OH223427   2.312   0.903   2.704  0.1861 -0.3222 -0.4392
  671TIP3    H123428   2.304   0.914   2.799  1.8523  2.3237 -0.5032
  671TIP3    H223429   2.376   0.833   2.694  0.9576  0.2240  0.4585
  672TIP3   OH223430   0.126   0.107   1.018 -0.4621  0.1973  0.3232
  672TIP3    H123431   0.114   0.014   1.002  0.1975  0.2068 -0.2886
  672TIP3    H223432   0.221   0.120   1.014 -0.6148  1.1663 -1.2575
  673TIP3   OH223433   2.385   2.693   0.626 -0.0856 -0.1220  0.1685
  673TIP3    H123434   2.329   2.618   0.647  0.1729 -0.3281  0.1233
  673TIP3    H223435   2.450   2.694   0.696 -2.1237  2.1799  2.2455
  674TIP3   OH223436   3.847   6.525   0.045 -0.1010 -0.0795 -0.2188
  674TIP3    H123437   3.899   6.472  -0.015 -0.0995  0.8309 -1.0489
  674TIP3    H223438   3.756   6.509   0.020 -0.1952 -0.9881  0.6524
  675TIP3   OH223439   3.364   5.628   4.228 -0.2368  0.3273 -0.4321
  675TIP3    H123440   3.284   5.636   4.175 -0.1036  0.6061 -0.5939
  675TIP3    H223441   3.343   5.676   4.309  0.6447  2.6881 -1.4976
  676TIP3   OH223442   2.815   1.867  13.654  0.0613 -0.2287  0.4818
  676TIP3    H123443   2.887   1.850  13.593  0.1291  0.9867  0.1986
  676TIP3    H223444   2.758   1.791  13.645  1.3120 -1.2120  0.7142
  677TIP3   OH223445   0.440   1.376   4.818 -0.2499  0.3889 -0.1800
  677TIP3    H123446   0.499   1.451   4.809 -0.2378  0.4383  0.2620
  677TIP3    H223447   0.368   1.395   4.758 -0.0987  0.6075 -0.2957
  678TIP3   OH223448   4.878   4.496  11.580  0.5507  0.3018  0.7355
  678TIP3    H123449   4.896   4.531  11.668 -0.2891  0.1147  0.9914
  678TIP3    H223450   4.804   4.549  11.549  1.6927  1.2709 -0.4135
  679TIP3   OH223451   4.168   5.095  16.875  0.1704 -0.5714 -0.2037
  679TIP3    H123452   4.245   5.041  16.891 -0.7093 -1.9851 -0.5639
  679TIP3    H223453   4.120   5.049  16.806 -0.8473  0.4265 -0.1986
  680TIP3   OH223454   0.237   4.587   3.399  0.1121 -0.3428  0.4972
  680TIP3    H123455   0.183   4.632   3.465  1.1711  0.2685  0.9748
  680TIP3    H223456   0.186   4.594   3.318 -0.8770 -0.4599  1.0873
  681TIP3   OH223457   3.797   2.702  11.764  0.5144 -0.3490 -0.5517
  681TIP3    H123458   3.837   2.668  11.844 -1.1001 -0.4545  0.2463
  681TIP3    H223459   3.789   2.625  11.707 -0.3551 -0.7185  0.0615
  682TIP3   OH223460   4.427   2.768  16.313 -0.1369 -0.1960  0.0014
  682TIP3    H123461   4.370   2.840  16.285  0.5596 -0.0788 -1.1859
  682TIP3    H223462   4.370   2.692  16.315 -0.7159  0.2401  0.5322
  683TIP3   OH223463   5.781   6.715  14.071  0.2229 -0.5575 -0.1508
  683TIP3    H123464   5.752   6.677  14.154 -1.2132 -0.6846 -0.6851
  683TIP3    H223465   5.862   6.669  14.051  0.0613 -1.2367  0.6810
  684TIP3   OH223466   6.636   5.075   1.716  0.2708  0.5679  0.0198
  684TIP3    H123467   6.542   5.078   1.696  0.4499 -0.1144 -1.0025
  684TIP3    H223468   6.676   5.040   1.636  1.1675 -1.1823  1.1982
  685TIP3   OH223469   0.944   0.786  13.467 -0.5924 -0.5495 -0.1635
  685TIP3    H123470   0.896   0.749  13.393 -1.2609  0.9417 -0.5103
  685TIP3    H223471   1.032   0.749  13.459 -0.8771 -1.0397 -1.2244
  686TIP3   OH223472   4.312   1.938   0.672 -0.1315  0.4320 -0.2447
  686TIP3    H123473   4.250   1.865   0.681  0.7314 -0.2538  0.2549
  686TIP3    H223474   4.263   2.004   0.623 -0.9256 -0.4873 -0.7391
  687TIP3   OH223475   5.942   0.384  12.653  0.6757 -0.1677 -0.3630
  687TIP3    H123476   5.998   0.461  12.662  0.0275  0.2499  0.1758
  687TIP3    H223477   5.899   0.395  12.568 -0.8480  1.0510  0.5192
  688TIP3   OH223478   2.568   5.902   3.401  0.4122  0.0239 -0.8413
  688TIP3    H123479   2.476   5.909   3.425  0.4718  0.4752 -0.7336
  688TIP3    H223480   2.598   5.992   3.392  0.4009 -0.1028 -2.6208
  689TIP3   OH223481   4.119   6.232  13.854 -0.3301  0.2039 -0.5909
  689TIP3    H123482   4.192   6.282  13.889 -0.4711  1.2590 -1.7412
  689TIP3    H223483   4.041   6.279  13.885 -0.8587 -2.9654  3.8914
  690TIP3   OH223484   1.597   0.204  15.686 -0.0207 -0.0291  0.0507
  690TIP3    H123485   1.681   0.162  15.706  0.0585  0.9133  1.9101
  690TIP3    H223486   1.544   0.192  15.765 -1.0033  0.9027 -0.4336
  691TIP3   OH223487   3.194   1.329  16.240  0.7550 -0.3165  0.5809
  691TIP3    H123488   3.235   1.341  16.155  0.0606 -0.6006  0.1945
  691TIP3    H223489   3.258   1.279  16.291  1.8473  1.2390  0.7861
  692TIP3   OH223490   4.361   2.469  10.444  0.2804 -0.0075  0.3809
  692TIP3    H123491   4.452   2.452  10.469  0.5038 -0.0870 -0.4430
  692TIP3    H223492   4.367   2.496  10.352 -0.3628  1.6049  0.7828
  693TIP3   OH223493   0.899   0.018   0.204 -0.8070 -0.3924  0.2903
  693TIP3    H123494   0.819   0.015   0.257 -1.4545 -0.5497 -0.6643
  693TIP3    H223495   0.910  -0.072   0.173 -1.7013  0.0811 -1.6093
  694TIP3   OH223496   3.660   6.743   3.026 -0.7328  0.3458 -0.5275
  694TIP3    H123497   3.565   6.753   3.021 -0.6879  0.8438 -0.5214
  694TIP3    H223498   3.694   6.827   2.994 -0.2968  0.2136 -0.4197
  695TIP3   OH223499   1.533   6.387   4.535 -0.4233 -0.1737  0.3300
  695TIP3    H123500   1.614   6.431   4.509  0.6331 -0.3948  2.9503
  695TIP3    H223501   1.466   6.456   4.529  0.8334  1.3655  2.3688
  696TIP3   OH223502   0.251   4.176  13.819  0.8840  0.1241  0.1439
  696TIP3    H123503   0.341   4.148  13.803  0.9810  0.6019 -0.1623
  696TIP3    H223504   0.202   4.140  13.745  1.1434  1.3979 -0.6806
  697TIP3   OH223505   5.400   3.420  15.323  0.3073  0.4503  0.0041
  697TIP3    H123506   5.463   3.415  15.395  0.4244  0.6500 -0.0851
  697TIP3    H223507   5.328   3.472  15.357  0.0356 -0.0585  0.2210
  698TIP3   OH223508   5.565   4.367   3.884  0.2012  0.1056 -0.2920
  698TIP3    H123509   5.572   4.404   3.972  2.5019  0.7271 -0.6697
  698TIP3    H223510   5.551   4.443   3.827 -0.3553 -0.1929 -0.5614
  699TIP3   OH223511   2.282   6.263   4.220  0.2824  0.7091  0.2558
  699TIP3    H123512   2.337   6.192   4.253  1.3830  1.0116 -0.8187
  699TIP3    H223513   2.193   6.237   4.241  0.6296 -1.1384 -0.3895
  700TIP3   OH223514   1.031   1.606   3.970 -0.3952  0.5538  0.2260
  700TIP3    H123515   0.939   1.625   3.989 -0.3536 -0.4498  1.5776
  700TIP3    H223516   1.080   1.666   4.027 -0.2371 -0.1289  0.8204
  701TIP3   OH223517   4.537   1.892   5.055 -0.3955  0.5070 -0.2892
  701TIP3    H123518   4.511   1.954   4.988 -1.8257 -0.2321 -0.4570
  701TIP3    H223519   4.506   1.931   5.137  2.0722  1.8101  0.1155
  702TIP3   OH223520   2.510   3.679  13.873 -0.4994  0.2877 -0.2041
  702TIP3    H123521   2.581   3.619  13.898 -1.3856 -0.9205 -0.5405
  702TIP3    H223522   2.541   3.720  13.792 -0.8091 -1.3808 -1.2111
  703TIP3   OH223523   6.177   3.145   5.487 -0.2264 -0.1228  0.5471
  703TIP3    H123524   6.122   3.080   5.531 -0.7307 -0.1343 -0.0841
  703TIP3    H223525   6.228   3.186   5.558 -1.1686  0.0011  1.1712
  704TIP3   OH223526   1.664   6.269   0.828  0.3394 -0.2922 -0.2440
  704TIP3    H123527   1.668   6.193   0.886  1.1619 -1.3971 -1.6571
  704TIP3    H223528   1.571   6.281   0.811  0.1727 -0.7469  0.3014
  705TIP3   OH223529   4.138   1.729   2.503 -0.3216 -0.3715 -0.1085
  705TIP3    H123530   4.105   1.793   2.441  1.8177  0.6171 -0.3096
  705TIP3    H223531   4.066   1.716   2.565 -0.5835  2.9106  0.4608
  706TIP3   OH223532   3.688   1.422   2.128 -0.5457  0.4093  0.3078
  706TIP3    H123533   3.620   1.457   2.071  0.9306 -0.2102 -1.9712
  706TIP3    H223534   3.673   1.327   2.128 -0.2776  0.3635  0.5984
  707TIP3   OH223535   2.406   2.010  13.970  0.3039 -0.3614  0.5539
  707TIP3    H123536   2.327   1.992  13.920 -0.4034  0.8830  1.1830
  707TIP3    H223537   2.377   2.011  14.061  0.6944  1.7398  0.6877
  708TIP3   OH223538   2.859   0.742   1.278  0.3411  0.3688  0.6322
  708TIP3    H123539   2.832   0.787   1.358  0.3037  0.9487  0.2959
  708TIP3    H223540   2.777   0.726   1.232  0.4560  1.0175  0.1956
  709TIP3   OH223541   6.028   3.635  15.147 -0.2323  0.0867 -0.1842
  709TIP3    H123542   6.099   3.685  15.185 -1.5057  1.3417  0.6369
  709TIP3    H223543   6.017   3.560  15.206  1.4091 -0.9967 -1.1920
  710TIP3   OH223544   0.501   2.647   0.360  0.2973 -0.2185  0.2551
  710TIP3    H123545   0.535   2.661   0.271  0.0696 -2.0858 -0.1536
  710TIP3    H223546   0.410   2.677   0.354  0.4715  0.2873  0.0464
  711TIP3   OH223547   6.747   4.146   5.940 -0.0757  0.2484 -0.4187
  711TIP3    H123548   6.677   4.106   5.890  0.7922 -1.3220 -0.4366
  711TIP3    H223549   6.754   4.093   6.019  2.0009 -0.5454 -1.0660
  712TIP3   OH223550   2.316   2.720  15.509  0.8585 -0.5591  0.0667
  712TIP3    H123551   2.327   2.664  15.433 -1.9395 -1.8436  0.4831
  712TIP3    H223552   2.325   2.809  15.475 -1.1857 -1.0524 -2.0409
  713TIP3   OH223553   3.019   3.529   1.065  0.0028 -0.1243 -0.2734
  713TIP3    H123554   3.058   3.444   1.044 -1.5439 -0.8657 -0.2520
  713TIP3    H223555   2.942   3.508   1.117  0.1863  1.3654  0.6595
  714TIP3   OH223556   2.587   3.686  14.311  0.1060 -0.1026 -0.1786
  714TIP3    H123557   2.591   3.769  14.359  1.2405 -1.6211  2.5335
  714TIP3    H223558   2.660   3.690  14.250 -0.7949  1.4796 -1.2405
  715TIP3   OH223559   5.821   6.368   2.264  0.2856 -0.4521 -0.7274
  715TIP3    H123560   5.884   6.338   2.329 -0.7336  0.0478  0.5308
  715TIP3    H223561   5.748   6.307   2.269  0.6705 -1.0798 -2.2365
  716TIP3   OH223562   1.220   2.411  10.948  0.6313 -0.8168  0.2238
  716TIP3    H123563   1.244   2.341  10.887  2.4124 -1.0755  1.1710
  716TIP3    H223564   1.135   2.384  10.983  0.5698 -1.7055 -0.5653
  717TIP3   OH223565   1.938   0.772  17.122  0.0656  0.2576 -0.4012
  717TIP3    H123566   2.026   0.747  17.150 -0.6095  0.5993  2.2618
  717TIP3    H223567   1.887   0.776  17.203 -2.3488  0.3790 -1.8292
  718TIP3   OH223568   0.336   2.046  11.815 -0.2624 -0.1241  0.1971
  718TIP3    H123569   0.297   2.105  11.750 -1.3917 -0.4163  0.5848
  718TIP3    H223570   0.419   2.087  11.838 -0.7159  0.9669 -0.0441
  719TIP3   OH223571   4.785   3.115   1.632 -0.1033  0.5635 -0.4566
  719TIP3    H123572   4.817   3.114   1.542 -1.9286  0.5313 -1.1550
  719TIP3    H223573   4.752   3.204   1.644 -0.5897  0.3354 -0.0928
  720TIP3   OH223574   1.490   2.694  15.814 -0.2239  0.4790 -0.5689
  720TIP3    H123575   1.398   2.714  15.829 -0.2209  0.0005  0.1151
  720TIP3    H223576   1.491   2.645  15.731 -0.5596  0.6637 -0.6818
  721TIP3   OH223577   0.289   3.819   5.324  0.3508 -0.0972 -0.2457
  721TIP3    H123578   0.209   3.786   5.283 -0.2803  1.5890 -0.4569
  721TIP3    H223579   0.312   3.896   5.273  1.7202 -0.1269  0.2734
  722TIP3   OH223580   1.985   4.992  11.283 -0.6404  0.1803 -0.1610
  722TIP3    H123581   2.027   5.024  11.203 -1.4650 -1.2467 -1.2310
  722TIP3    H223582   1.917   5.057  11.302 -1.4938 -0.2494 -1.5800
  723TIP3   OH223583   6.585   6.459   2.363 -0.1222  0.9104  0.4006
  723TIP3    H123584   6.525   6.391   2.393 -0.2071  0.8639  0.1275
  723TIP3    H223585   6.602   6.512   2.441 -0.3276  0.7819  0.5337
  724TIP3   OH223586   0.557   2.126  16.496  0.4336 -0.1171 -0.4223
  724TIP3    H123587   0.553   2.183  16.419 -1.7999 -0.5955 -0.7408
  724TIP3    H223588   0.465   2.115  16.522  0.9508 -1.9314  0.8380
  725TIP3   OH223589   1.193   3.072   0.513  0.2538 -0.1347 -0.1632
  725TIP3    H123590   1.258   3.110   0.572 -0.9974  1.3805  0.2987
  725TIP3    H223591   1.111   3.071   0.563 -0.3066 -1.1469 -1.0356
  726TIP3   OH223592   0.862   3.023  16.069 -0.9593  0.4328 -0.1519
  726TIP3    H123593   0.788   2.966  16.092 -1.5724  0.9654 -0.7682
  726TIP3    H223594   0.928   3.004  16.135 -2.2086  1.0346  1.3221
  727TIP3   OH223595   6.467   2.282   0.092  0.3799  0.0168  0.2429
  727TIP3    H123596   6.472   2.323   0.006 -1.4352 -0.5573 -0.1879
  727TIP3    H223597   6.377   2.299   0.121 -1.2280 -5.0020 -0.7612
  728TIP3   OH223598   0.395   0.142   1.755 -0.6499 -0.1208 -0.2690
  728TIP3    H123599   0.474   0.163   1.804 -0.2229 -0.7889 -0.6648
  728TIP3    H223600   0.404   0.190   1.673 -0.5139 -0.4326 -0.4369
  729TIP3   OH223601   2.775   0.751  12.738 -0.0191  0.0488 -0.7781
  729TIP3    H123602   2.853   0.708  12.702  0.7945  0.7352  0.0993
  729TIP3    H223603   2.702   0.696  12.710  0.9699 -1.9412  0.3273
  730TIP3   OH223604   5.857   5.588   4.856 -0.4018  0.2637 -0.2420
  730TIP3    H123605   5.815   5.513   4.898 -0.7998 -0.4353 -1.8285
  730TIP3    H223606   5.946   5.558   4.836 -0.7496 -0.0289 -1.4320
  731TIP3   OH223607   1.247   6.294  13.693 -0.1358  0.2179 -0.6743
  731TIP3    H123608   1.272   6.361  13.757  0.7730  0.7732 -1.5760
  731TIP3    H223609   1.268   6.211  13.736  2.1895  0.6224 -0.8829
  732TIP3   OH223610   2.151   2.912   3.112  0.7065 -0.1722 -0.5355
  732TIP3    H123611   2.180   2.997   3.143 -2.5899  1.6881 -1.9818
  732TIP3    H223612   2.231   2.867   3.085  2.7947  1.4479  2.4433
  733TIP3   OH223613   6.558   4.978   2.396  0.3742  0.0747 -0.2532
  733TIP3    H123614   6.556   5.042   2.467  2.4548  0.0570 -0.1085
  733TIP3    H223615   6.640   4.995   2.350  0.1299 -1.3384 -1.3029
  734TIP3   OH223616   3.842   2.022  15.178 -0.3869  0.2747 -0.3260
  734TIP3    H123617   3.782   1.966  15.129  0.3556  0.5576 -1.6119
  734TIP3    H223618   3.854   2.099  15.122  1.2432  0.1732 -0.1450
  735TIP3   OH223619   1.780   1.074  13.285  0.4389  0.0049  0.2869
  735TIP3    H123620   1.825   1.007  13.235  0.2140 -0.1781  0.3270
  735TIP3    H223621   1.702   1.094  13.233  1.1714  1.2084 -0.4137
  736TIP3   OH223622   4.771   2.895   3.105  0.3804  0.0561  0.2879
  736TIP3    H123623   4.793   2.922   3.016 -0.2719 -1.8826 -0.5251
  736TIP3    H223624   4.676   2.906   3.110  0.4698  0.5791  0.9070
  737TIP3   OH223625   5.178   2.102   3.563 -0.9503 -0.2669 -0.0925
  737TIP3    H123626   5.217   2.150   3.490  0.1802 -0.3303  0.4422
  737TIP3    H223627   5.170   2.012   3.532  1.5960 -0.8007  0.5348
  738TIP3   OH223628   3.402   6.605  12.491  0.0540 -1.2176  0.1780
  738TIP3    H123629   3.328   6.597  12.430 -1.5432 -0.5530  1.9354
  738TIP3    H223630   3.466   6.658  12.443 -1.3370 -0.3163 -0.7719
  739TIP3   OH223631   4.324   4.625  13.251  0.3166 -0.0771 -0.0956
  739TIP3    H123632   4.245   4.666  13.217  1.1840  0.7175 -1.2255
  739TIP3    H223633   4.343   4.555  13.188 -0.2729 -1.2452  0.9675
  740TIP3   OH223634   6.207   1.782  11.110 -0.3313 -0.4481 -0.0950
  740TIP3    H123635   6.228   1.769  11.018  1.6456 -2.1615  0.5091
  740TIP3    H223636   6.123   1.827  11.110  0.2836  0.8578 -2.7198
  741TIP3   OH223637   3.060   5.185   5.501  0.3478 -0.2137 -0.2780
  741TIP3    H123638   3.134   5.162   5.557  1.1273 -2.4278 -2.0228
  741TIP3    H223639   3.002   5.109   5.506 -1.8634  1.4672  1.0100
  742TIP3   OH223640   3.166   2.666  12.110 -0.2542  0.0730 -0.2186
  742TIP3    H123641   3.261   2.664  12.112 -0.2697 -1.3031  0.1140
  742TIP3    H223642   3.142   2.731  12.177  0.4321 -0.6914  0.7903
  743TIP3   OH223643   4.534   0.474   4.898 -0.0629 -0.4970 -0.6423
  743TIP3    H123644   4.464   0.408   4.900  0.8162 -1.4628 -0.6790
  743TIP3    H223645   4.558   0.481   4.806 -1.0907  0.9281 -0.8266
  744TIP3   OH223646   0.556   0.916   5.574  0.2446  0.6291  0.6920
  744TIP3    H123647   0.591   1.004   5.589 -1.3887  1.7803 -1.4912
  744TIP3    H223648   0.466   0.920   5.607 -0.0635  0.0235 -0.0236
  745TIP3   OH223649   1.451   0.895   4.831 -0.5453 -0.1293  0.1347
  745TIP3    H123650   1.544   0.875   4.847 -0.1629  1.9287  0.8537
  745TIP3    H223651   1.439   0.882   4.737  0.6635  0.2102 -0.0879
  746TIP3   OH223652   5.251   6.361   4.186  0.3948 -0.0643 -0.4148
  746TIP3    H123653   5.345   6.363   4.169  0.7641 -1.6286  1.1855
  746TIP3    H223654   5.234   6.437   4.241  0.7092  0.2034 -0.6818
  747TIP3   OH223655   4.150   6.378   0.362  0.0907 -0.8120 -0.0873
  747TIP3    H123656   4.116   6.401   0.449  1.6884  0.4165  0.2672
  747TIP3    H223657   4.124   6.450   0.306 -0.0300 -1.0870 -0.3863
  748TIP3   OH223658   3.748   0.183  16.854 -0.5271  0.5334  0.0610
  748TIP3    H123659   3.685   0.233  16.907 -1.0414  2.5190 -2.2531
  748TIP3    H223660   3.807   0.250  16.819 -0.4750 -0.6200 -2.1735
  749TIP3   OH223661   3.825   2.915  14.860  0.1570  0.4701 -0.0594
  749TIP3    H123662   3.900   2.910  14.918  0.8471  0.7851 -0.8973
  749TIP3    H223663   3.752   2.882  14.912  0.9644 -0.3163  0.6003
  750TIP3   OH223664   2.379   6.493   2.076 -0.0760  0.1923  0.2569
  750TIP3    H123665   2.443   6.425   2.095  0.5374  0.6997  0.0530
  750TIP3    H223666   2.321   6.494   2.152  1.8776  1.6849  1.8303
  751TIP3   OH223667   4.955   2.453  14.553  0.2353 -0.3397  0.2881
  751TIP3    H123668   4.935   2.473  14.644  3.6075  0.2610  1.0148
  751TIP3    H223669   5.025   2.388  14.556 -0.4571 -1.2905 -1.9170
  752TIP3   OH223670   4.169   0.150  17.054  0.5557 -0.6138 -0.1114
  752TIP3    H123671   4.114   0.072  17.040 -0.1389 -0.2557  0.5078
  752TIP3    H223672   4.110   0.212  17.098  1.9404 -0.9032  2.3335
  753TIP3   OH223673   1.440   1.578   3.282 -0.3084 -0.1477  0.3366
  753TIP3    H123674   1.363   1.626   3.253 -0.1236  0.4035  0.7295
  753TIP3    H223675   1.406   1.508   3.338 -0.5825 -0.5060 -0.2684
  754TIP3   OH223676   2.763   4.788  15.997 -0.4039 -0.0931  0.1423
  754TIP3    H123677   2.771   4.879  15.970  1.9883 -0.6229 -1.2981
  754TIP3    H223678   2.707   4.748  15.930 -0.3523  0.0547  0.0092
  755TIP3   OH223679   4.480   0.625  12.488  0.6284 -0.2333  0.6732
  755TIP3    H123680   4.443   0.638  12.576  0.1104  0.7264  0.3294
  755TIP3    H223681   4.428   0.683  12.432  2.0939  0.5028  0.0198
  756TIP3   OH223682   3.382   5.511  17.101  0.2555  0.2088  0.0750
  756TIP3    H123683   3.306   5.553  17.142  0.1828  0.6425 -0.5009
  756TIP3    H223684   3.399   5.563  17.023  0.6965 -0.3284 -0.1900
  757TIP3   OH223685   2.305   2.821   2.248 -0.0756 -0.0121 -0.0537
  757TIP3    H123686   2.214   2.795   2.264 -0.2176  0.8990  0.6940
  757TIP3    H223687   2.355   2.777   2.317 -0.3325  1.6943  1.2958
  758TIP3   OH223688   2.716   3.633  12.664  0.4376 -0.5674  0.6236
  758TIP3    H123689   2.682   3.716  12.631 -1.6373 -1.0838  1.2982
  758TIP3    H223690   2.767   3.657  12.742  0.9826  0.1571  0.0612
  759TIP3   OH223691   1.154   5.637  15.171  0.3320  0.1375  0.2257
  759TIP3    H123692   1.114   5.701  15.230 -0.1677 -0.3998  0.4716
  759TIP3    H223693   1.094   5.632  15.097  0.0319 -0.5342  0.5112
  760TIP3   OH223694   6.361   0.500   2.010  0.0204  0.2660 -0.2555
  760TIP3    H123695   6.435   0.458   2.055  0.2732 -0.8488 -1.6343
  760TIP3    H223696   6.398   0.579   1.970  0.7198 -0.7475 -1.6864
  761TIP3   OH223697   2.312   4.531   4.386  0.0945 -0.1185 -0.0832
  761TIP3    H123698   2.289   4.555   4.475 -2.0469 -1.4712 -0.2062
  761TIP3    H223699   2.312   4.614   4.338 -0.4925  0.4231  0.8148
  762TIP3   OH223700   1.395   3.569  12.963 -0.0634  0.0215  0.0929
  762TIP3    H123701   1.433   3.552  13.049  0.0292 -0.8375 -0.1166
  762TIP3    H223702   1.435   3.652  12.935  1.5372 -0.7466 -0.0397
  763TIP3   OH223703   4.223   2.743   3.315  0.1523 -0.0197  0.1389
  763TIP3    H123704   4.163   2.720   3.386 -0.9116 -0.5391 -0.8900
  763TIP3    H223705   4.225   2.839   3.315 -0.2192 -0.0089  0.5585
  764TIP3   OH223706   5.485   0.500   2.908  0.3956  0.2682 -0.4009
  764TIP3    H123707   5.538   0.450   2.845 -0.7045 -2.1293  0.4375
  764TIP3    H223708   5.543   0.514   2.982  0.6460 -0.0377 -0.5332
  765TIP3   OH223709   5.011   1.841  17.137 -0.7430  0.0112  0.0429
  765TIP3    H123710   5.000   1.856  17.043  0.0741  1.4941  0.1508
  765TIP3    H223711   5.068   1.913  17.166 -1.5244 -0.0210  1.7905
  766TIP3   OH223712   4.886   4.381  12.972  0.0667  0.0362  0.2555
  766TIP3    H123713   4.888   4.291  12.940 -0.9905 -0.5220  1.6768
  766TIP3    H223714   4.903   4.434  12.894 -1.1171 -1.3101 -0.9763
  767TIP3   OH223715   3.738   6.757   1.683  0.1885 -0.5384 -0.0745
  767TIP3    H123716   3.814   6.716   1.725  0.5780  1.0181  0.8318
  767TIP3    H223717   3.675   6.686   1.672  0.9955 -1.4578  1.0264
  768TIP3   OH223718   3.396   2.530  15.124  0.2434  0.0101 -0.3663
  768TIP3    H123719   3.472   2.492  15.168  0.4374 -0.2293 -0.8964
  768TIP3    H223720   3.433   2.593  15.063 -0.0162  0.2674 -0.2568
  769TIP3   OH223721   3.379   3.860   0.662 -0.0632  0.9603  0.3353
  769TIP3    H123722   3.468   3.851   0.697  0.3318  0.9708 -0.6322
  769TIP3    H223723   3.392   3.894   0.573 -1.0546  1.2861  0.3100
  770TIP3   OH223724   5.389   6.477  11.980  0.4097 -0.0663  0.3835
  770TIP3    H123725   5.343   6.548  11.935  0.8160  0.2193  0.4079
  770TIP3    H223726   5.372   6.399  11.926 -0.3646 -0.0331  0.5769
  771TIP3   OH223727   3.805   1.298   1.367  0.3631 -0.2934 -0.2931
  771TIP3    H123728   3.864   1.356   1.318 -0.0293 -0.5189 -1.0371
  771TIP3    H223729   3.862   1.255   1.431  0.8401  0.1714 -0.3951
  772TIP3   OH223730   1.300   0.031  16.074  0.9160 -0.4416  0.0495
  772TIP3    H123731   1.248   0.097  16.119 -0.3253 -0.5859 -1.1073
  772TIP3    H223732   1.236  -0.029  16.037  1.9354 -0.9974 -0.8699
  773TIP3   OH223733   0.528   0.009   0.749 -0.2124 -0.4202  0.7107
  773TIP3    H123734   0.463  -0.061   0.750  0.9010 -1.4909  0.3582
  773TIP3    H223735   0.601  -0.025   0.801  0.2720  0.5713  0.7056
  774TIP3   OH223736   1.629   0.387   2.107 -0.6123 -0.2280 -0.5345
  774TIP3    H123737   1.647   0.295   2.129 -1.4567  0.0486  1.5110
  774TIP3    H223738   1.535   0.391   2.094 -0.3420 -0.0384 -2.9262
  775TIP3   OH223739   1.988   5.510   5.069  0.5917  0.0128  0.0021
  775TIP3    H123740   2.045   5.505   5.146  0.2762  1.6744  0.3865
  775TIP3    H223741   1.901   5.487   5.103  0.4049  1.0056  0.2148
  776TIP3   OH223742   2.534   2.485   1.897 -0.0869 -0.3194  0.2598
  776TIP3    H123743   2.601   2.488   1.830 -0.8789 -1.4954 -0.6319
  776TIP3    H223744   2.520   2.576   1.923  1.6190 -0.0320  0.2676
  777TIP3   OH223745   2.813   1.674   4.523  0.0334  0.1647  0.0875
  777TIP3    H123746   2.760   1.712   4.454  0.5430  1.5063  0.3890
  777TIP3    H223747   2.903   1.691   4.496  0.2401  2.1554  1.7885
  778TIP3   OH223748   2.374   2.920  13.669 -0.0419 -0.3131 -0.0156
  778TIP3    H123749   2.408   3.003  13.701  0.3430  0.3998 -2.1168
  778TIP3    H223750   2.420   2.853  13.720 -0.7136  0.7160  2.0429
  779TIP3   OH223751   1.447   0.834  14.776  0.0530  0.3790  0.1855
  779TIP3    H123752   1.425   0.757  14.829 -0.7201  0.7719  0.4510
  779TIP3    H223753   1.539   0.853  14.799  0.1456 -0.2571  0.3695
  780TIP3   OH223754   2.005   6.232   5.576 -0.1303 -0.4889 -0.1326
  780TIP3    H123755   1.987   6.139   5.563  1.1696 -1.0598  1.8140
  780TIP3    H223756   2.094   6.244   5.543 -1.2042  0.7575 -2.9760
  781TIP3   OH223757   0.179   4.593   1.536  0.9517 -0.6992  0.2392
  781TIP3    H123758   0.272   4.581   1.553  0.8198  0.0475  1.6234
  781TIP3    H223759   0.149   4.649   1.607  0.1701  2.0214 -2.0394
  782TIP3   OH223760   3.749   0.188   2.897 -0.0834  0.1431  0.2393
  782TIP3    H123761   3.721   0.208   2.808  0.3051 -0.3766 -0.0052
  782TIP3    H223762   3.801   0.264   2.923 -1.3461  0.9252  0.5450
  783TIP3   OH223763   6.417   3.534  14.470  0.5009  0.1237  0.3426
  783TIP3    H123764   6.381   3.585  14.542  3.2843  0.9562  1.2592
  783TIP3    H223765   6.411   3.443  14.499  0.1956  0.3347  0.9436
  784TIP3   OH223766   3.380   2.388   4.181 -0.1951  0.4967 -0.0934
  784TIP3    H123767   3.354   2.385   4.273 -0.9148 -0.7268 -0.3156
  784TIP3    H223768   3.400   2.297   4.159  3.2158  1.1857 -0.2712
  785TIP3   OH223769   2.143   6.130  13.176  0.4038 -0.6745 -0.3311
  785TIP3    H123770   2.197   6.093  13.246 -0.6460 -0.8065  0.4212
  785TIP3    H223771   2.205   6.178  13.121  1.0730  0.5896  1.4440
  786TIP3   OH223772   5.350   1.845  14.272  0.3029  0.0015 -0.1850
  786TIP3    H123773   5.276   1.863  14.331  0.7901  0.6324  0.2456
  786TIP3    H223774   5.365   1.751  14.281  0.0185 -0.0036  0.2871
  787TIP3   OH223775   0.377   2.199  15.388  0.0072  0.5608 -0.1046
  787TIP3    H123776   0.465   2.238  15.386 -0.0849  0.7824 -2.5041
  787TIP3    H223777   0.321   2.268  15.425  0.4527  1.3563 -0.8759
  788TIP3   OH223778   4.141   3.441   0.778  0.2024  0.4129 -0.0143
  788TIP3    H123779   4.126   3.437   0.684 -2.1465  0.3151  0.2877
  788TIP3    H223780   4.191   3.522   0.791  0.8506  0.2578 -1.3560
  789TIP3   OH223781   5.927   3.471   0.682  0.3377 -0.0039 -0.2159
  789TIP3    H123782   5.843   3.517   0.686  0.2517 -0.2376  1.0378
  789TIP3    H223783   5.903   3.378   0.681  0.5723 -0.0644 -0.3163
  790TIP3   OH223784   1.452   0.566   1.257  0.2144 -0.1190  0.2694
  790TIP3    H123785   1.495   0.513   1.190 -0.1346 -1.6076  1.1560
  790TIP3    H223786   1.363   0.579   1.224  0.0515 -0.8253  0.3968
  791TIP3   OH223787   4.964   2.555   5.932  0.2452  0.2277  0.1090
  791TIP3    H123788   4.933   2.546   5.842  2.3355  0.6712 -0.7125
  791TIP3    H223789   4.973   2.466   5.964 -1.1415  0.0772  0.1519
  792TIP3   OH223790   6.447   0.935  15.589  0.2312  0.0160 -0.4535
  792TIP3    H123791   6.388   0.986  15.534 -0.1790  1.1526  0.9529
  792TIP3    H223792   6.398   0.920  15.670  0.5273 -2.2627 -0.6472
  793TIP3   OH223793   3.672   2.748  16.672  0.2117 -0.1182 -0.1412
  793TIP3    H123794   3.661   2.684  16.742  0.7417  1.5359  1.5006
  793TIP3    H223795   3.634   2.829  16.706  1.3447  0.9920 -1.3789
  794TIP3   OH223796   1.624   3.115   5.862 -0.3130  0.1722  0.0051
  794TIP3    H123797   1.675   3.115   5.943 -0.4253  0.9137  0.0806
  794TIP3    H223798   1.533   3.117   5.891 -0.4265 -1.6081 -0.1238
  795TIP3   OH223799   4.501   3.382   0.078  0.4747  0.1226  0.4585
  795TIP3    H123800   4.481   3.365   0.170  0.6818 -1.6460  0.2055
  795TIP3    H223801   4.567   3.451   0.080 -0.2720  0.8335  1.5803
  796TIP3   OH223802   0.825   4.363  15.352  0.0117 -0.1237 -0.1527
  796TIP3    H123803   0.909   4.322  15.334 -0.4509 -0.9034 -0.5992
  796TIP3    H223804   0.775   4.296  15.400 -0.1312  0.5577  0.6677
  797TIP3   OH223805   6.512   3.517   1.153 -0.1520  0.0071 -0.4468
  797TIP3    H123806   6.557   3.602   1.147  0.8676 -0.5758 -1.2275
  797TIP3    H223807   6.538   3.471   1.074  0.2053 -1.4784  0.5069
  798TIP3   OH223808   3.526   3.326   4.854  0.2407 -0.0416 -0.6658
  798TIP3    H123809   3.523   3.305   4.760  0.8590 -0.2501 -0.6472
  798TIP3    H223810   3.604   3.381   4.863 -0.0730  0.3421 -0.3436
  799TIP3   OH223811   1.131   5.793  12.652 -0.1753 -0.4068 -0.2122
  799TIP3    H123812   1.222   5.783  12.682 -0.4920 -0.6514  0.7018
  799TIP3    H223813   1.129   5.750  12.567  0.6264 -0.1721 -0.3650
  800TIP3   OH223814   1.867   6.695  11.378 -0.5067  0.4861  0.3530
  800TIP3    H123815   1.773   6.677  11.365 -0.5559  0.7667  0.3282
  800TIP3    H223816   1.869   6.763  11.445 -0.4480  2.7121 -1.7980
  801TIP3   OH223817   1.445   5.633  15.073 -0.1435  0.7525 -0.3146
  801TIP3    H123818   1.352   5.656  15.079 -0.2651 -0.0162  1.3444
  801TIP3    H223819   1.471   5.617  15.164  1.8995  1.9616 -0.6357
  802TIP3   OH223820   3.955   1.923   1.930 -0.1909  0.3219 -0.6018
  802TIP3    H123821   3.992   1.919   2.018  0.2292  1.2141 -0.7165
  802TIP3    H223822   3.881   1.864   1.932 -1.4192  1.7995  0.9726
  803TIP3   OH223823   0.007   1.775  13.405 -0.5339 -0.0212  0.2676
  803TIP3    H123824  -0.059   1.787  13.337 -0.2361 -0.7691 -0.1675
  803TIP3    H223825   0.044   1.688  13.388 -0.4218 -0.2026  1.3609
  804TIP3   OH223826   2.349   0.439  14.016  0.5043  0.0443 -0.3771
  804TIP3    H123827   2.445   0.436  14.020  0.4401 -0.3226  1.1445
  804TIP3    H223828   2.330   0.440  13.922  1.9940  0.0823 -0.7076
  805TIP3   OH223829   2.061   1.444  14.926  0.4088  0.2123 -0.2287
  805TIP3    H123830   2.002   1.519  14.931  1.7265  1.2418  0.2865
  805TIP3    H223831   2.076   1.419  15.017 -1.9029 -2.2767 -0.3847
  806TIP3   OH223832   3.423   2.514   3.156  0.3563  0.2411  0.0934
  806TIP3    H123833   3.483   2.454   3.201 -0.9006 -2.7057 -1.8248
  806TIP3    H223834   3.337   2.476   3.171 -0.3508  0.6877 -2.4482
  807TIP3   OH223835   1.298   5.165   6.308 -0.4554 -0.2809 -0.0007
  807TIP3    H123836   1.280   5.119   6.226 -1.0935  0.3388 -0.2178
  807TIP3    H223837   1.227   5.228   6.317  0.3596  0.6280  0.3161
  808TIP3   OH223838   2.340   0.616   4.797 -0.4634 -0.4884  0.1652
  808TIP3    H123839   2.359   0.532   4.838 -1.4214  0.2417  2.2411
  808TIP3    H223840   2.374   0.681   4.858 -2.6555  0.6735  0.2464
  809TIP3   OH223841   4.963   3.236  16.413  0.0322  0.4431 -0.3137
  809TIP3    H123842   4.921   3.322  16.406 -0.1577  0.3079 -0.8272
  809TIP3    H223843   5.003   3.237  16.500 -3.0149 -0.3137  1.2471
  810TIP3   OH223844   1.353   4.947  11.722  0.2296  0.7551 -0.2421
  810TIP3    H123845   1.274   4.944  11.667 -1.7571  0.4301  2.3877
  810TIP3    H223846   1.387   5.036  11.712 -1.1899  1.2870 -0.5785
  811TIP3   OH223847   6.159   2.941  15.978 -0.2050  0.2034  0.5836
  811TIP3    H123848   6.196   2.956  15.890 -0.4638 -1.7763  0.0842
  811TIP3    H223849   6.092   3.008  15.988  1.5776  2.1130  0.3654
  812TIP3   OH223850   0.481   3.305  16.948 -0.8624  0.1771 -0.0537
  812TIP3    H123851   0.542   3.239  16.915 -2.0740 -1.3275  0.5916
  812TIP3    H223852   0.439   3.340  16.869  1.1085  1.5908 -0.5439
  813TIP3   OH223853   1.466   4.214  16.311 -0.1811 -0.4117 -0.0638
  813TIP3    H123854   1.416   4.147  16.265  0.2276  0.2427 -1.5471
  813TIP3    H223855   1.410   4.241  16.384 -1.6805 -0.2082 -1.2417
  814TIP3   OH223856   1.163   4.968  16.009 -0.5425  0.3946  0.1597
  814TIP3    H123857   1.074   4.963  15.973 -0.2779  0.4913 -0.5233
  814TIP3    H223858   1.204   4.885  15.986 -0.0011  0.9056 -0.7888
  815TIP3   OH223859   2.981   6.210  14.466  0.0135  0.0886 -0.5646
  815TIP3    H123860   2.995   6.297  14.429 -2.5025  1.9437  2.3101
  815TIP3    H223861   2.928   6.226  14.544  0.5143 -3.9540  0.8353
  816TIP3   OH223862   2.221   0.229  17.116  0.1194 -0.2540 -1.0080
  816TIP3    H123863   2.166   0.279  17.055  1.0074  0.2465 -1.4078
  816TIP3    H223864   2.208   0.272  17.200 -2.0090 -1.6343 -0.5412
  817TIP3   OH223865   4.185   4.631  15.861  0.4238  0.1852 -0.0011
  817TIP3    H123866   4.209   4.714  15.820 -1.2578  0.7252  0.0333
  817TIP3    H223867   4.091   4.638  15.877  0.1986 -1.8071 -0.1506
  818TIP3   OH223868   1.835   4.352  15.425  0.1817  0.2035  0.0266
  818TIP3    H123869   1.836   4.447  15.433  1.6811  0.2262 -0.1964
  818TIP3    H223870   1.865   4.320  15.510 -1.5621 -0.1451  0.5568
  819TIP3   OH223871   2.259   6.294   5.524  0.2167 -0.0406  0.0299
  819TIP3    H123872   2.284   6.257   5.608  0.8200 -1.0496 -0.5748
  819TIP3    H223873   2.273   6.388   5.534  0.1041 -0.1275  1.1093
  820TIP3   OH223874   3.006   2.277  14.778  0.1248  0.2274  0.0695
  820TIP3    H123875   3.086   2.250  14.824 -0.7750  0.3612  1.7966
  820TIP3    H223876   3.037   2.308  14.693  1.9018  0.1650  0.6504
  821TIP3   OH223877   4.928   2.815  10.345  0.1675 -0.2841  0.4174
  821TIP3    H123878   4.976   2.791  10.266 -1.0116  1.3300 -0.8823
  821TIP3    H223879   4.907   2.732  10.387  2.5442 -1.0940  0.1426
  822TIP3   OH223880   2.539   4.683  13.697 -0.1131  0.5589  0.1381
  822TIP3    H123881   2.626   4.721  13.712  0.2706 -0.8036  1.6265
  822TIP3    H223882   2.506   4.662  13.785 -1.3534 -0.2271 -0.4832
  823TIP3   OH223883   3.216   0.917   5.334  0.2910  0.5895 -0.0968
  823TIP3    H123884   3.257   0.933   5.419 -1.3217 -1.9560  1.2836
  823TIP3    H223885   3.289   0.898   5.275  1.3354 -0.0854  1.3484
  824TIP3   OH223886   0.217   2.348  15.564  0.3857  0.0072 -0.2707
  824TIP3    H123887   0.200   2.381  15.476 -1.3083 -0.1393 -0.0438
  824TIP3    H223888   0.286   2.404  15.598 -0.1689  1.2148 -1.0571
  825TIP3   OH223889   5.114   1.294   2.734 -0.0801  0.3359  0.2530
  825TIP3    H123890   5.190   1.269   2.681  0.3755 -1.3791  1.6378
  825TIP3    H223891   5.130   1.256   2.820 -1.7125  1.4130  1.0912
  826TIP3   OH223892   2.348   3.954   6.530  0.0688 -0.6788  0.5997
  826TIP3    H123893   2.347   3.862   6.505  0.9860 -0.8502  1.1491
  826TIP3    H223894   2.287   3.996   6.469  2.1778 -1.0734 -1.9388
  827TIP3   OH223895   0.263   0.802   5.064 -0.0996  0.0632  0.1096
  827TIP3    H123896   0.251   0.852   5.145 -0.4871 -0.1018  0.1525
  827TIP3    H223897   0.194   0.737   5.065 -1.4129  1.3504 -1.3344
  828TIP3   OH223898   3.340   2.386   5.660  0.1076 -0.3075 -0.5497
  828TIP3    H123899   3.417   2.376   5.716  0.6834 -0.5073 -1.3619
  828TIP3    H223900   3.328   2.300   5.620 -0.7519 -0.3734 -0.1646
  829TIP3   OH223901   6.222   3.790  14.021  0.2658 -0.0937 -0.1578
  829TIP3    H123902   6.160   3.863  14.015 -0.2018 -0.2994  1.5585
  829TIP3    H223903   6.230   3.774  14.115  1.2684 -1.4934 -0.4567
  830TIP3   OH223904   3.468   0.999   5.059  0.5145  0.4945  0.4553
  830TIP3    H123905   3.397   1.062   5.047 -1.1382 -1.3984 -0.4371
  830TIP3    H223906   3.508   0.990   4.973 -0.9842 -1.4796 -0.1273
  831TIP3   OH223907   1.429   3.749  13.898  0.1584  0.2089 -0.4100
  831TIP3    H123908   1.509   3.701  13.877  0.3443  0.7541 -0.9943
  831TIP3    H223909   1.421   3.744  13.993  1.4786  1.0468 -0.2330
  832TIP3   OH223910   1.067   4.245  15.261 -0.1356 -0.2028  0.6124
  832TIP3    H123911   1.112   4.223  15.343 -0.6178 -0.6638  0.7667
  832TIP3    H223912   1.095   4.177  15.200 -2.1003 -1.6973  1.2575
  833TIP3   OH223913   2.458   4.267   3.619 -0.7209 -0.0435  0.1556
  833TIP3    H123914   2.512   4.345   3.605 -0.7266 -0.1512 -0.5079
  833TIP3    H223915   2.394   4.294   3.686 -0.2255  0.2675  0.5102
  834TIP3   OH223916   4.887   4.597  11.201  0.0244 -0.2459  0.0190
  834TIP3    H123917   4.905   4.599  11.107 -0.1345  1.9169 -0.0161
  834TIP3    H223918   4.795   4.621  11.209  0.1887  0.1662  0.7523
  835TIP3   OH223919   1.829   6.406  16.093 -0.3896 -0.3211  0.1313
  835TIP3    H123920   1.841   6.430  16.002 -0.4548  2.6140  0.8083
  835TIP3    H223921   1.917   6.405  16.130 -0.4631 -0.3011  0.3104
  836TIP3   OH223922   5.879   5.801   1.182 -0.5893 -0.8475  0.1799
  836TIP3    H123923   5.847   5.888   1.203 -1.0288 -0.3901 -2.0760
  836TIP3    H223924   5.903   5.763   1.266 -0.7809  1.2799  1.2634
  837TIP3   OH223925   1.286   0.205   3.788  0.3102  0.6184  0.3464
  837TIP3    H123926   1.203   0.181   3.830 -0.4491  1.4464 -0.6242
  837TIP3    H223927   1.349   0.142   3.821 -0.8395 -0.3942  0.6583
  838TIP3   OH223928   1.615   3.535   0.950 -0.0927  0.2300 -0.2006
  838TIP3    H123929   1.638   3.606   1.011 -1.4993  0.1197  0.5168
  838TIP3    H223930   1.686   3.472   0.959  0.4868  0.9183  0.1920
  839TIP3   OH223931   5.080   4.544   0.417  0.2449  0.5255  0.2737
  839TIP3    H123932   5.093   4.633   0.452 -1.3842  0.5967  0.7972
  839TIP3    H223933   5.026   4.500   0.483 -2.1799  0.3716 -1.6561
  840TIP3   OH223934   5.404   0.593  11.404  0.1588 -0.0329  0.4488
  840TIP3    H123935   5.435   0.607  11.315  1.3269 -1.3846  0.5872
  840TIP3    H223936   5.310   0.577  11.395  0.3840 -0.8631 -0.6370
  841TIP3   OH223937   0.859   5.509  14.076 -0.3478 -0.0938  0.7474
  841TIP3    H123938   0.814   5.424  14.072 -0.4013 -0.0292 -0.2444
  841TIP3    H223939   0.945   5.492  14.038 -0.1123  0.1457  1.1744
  842TIP3   OH223940   5.280   6.375   2.916  0.0421 -0.3895 -0.4505
  842TIP3    H123941   5.205   6.418   2.875 -0.7109 -0.2781  0.9615
  842TIP3    H223942   5.355   6.430   2.895 -0.8581  1.5731  1.1211
  843TIP3   OH223943   6.018   4.268  11.934 -0.1521  0.2490  0.0014
  843TIP3    H123944   6.015   4.261  12.030 -2.7406 -0.4102 -0.0606
  843TIP3    H223945   6.111   4.278  11.914  0.4237  0.9001  2.6044
  844TIP3   OH223946   4.920   3.622   1.260  0.3562 -0.1752  0.1453
  844TIP3    H123947   4.832   3.654   1.284 -0.2309 -0.4982 -1.4404
  844TIP3    H223948   4.969   3.625   1.342 -0.7022  1.4212  0.7836
  845TIP3   OH223949   4.846   5.418   6.295  0.0609  0.2348  0.1333
  845TIP3    H123950   4.901   5.439   6.370  0.2850  0.6791 -0.1542
  845TIP3    H223951   4.871   5.481   6.227 -1.5869  1.2057  0.3683
  846TIP3   OH223952   1.795   0.036  14.759 -0.1652  0.8941  0.0631
  846TIP3    H123953   1.743   0.008  14.684  0.4252  1.3814 -0.5430
  846TIP3    H223954   1.788   0.132  14.759 -0.5718  0.8746  0.9374
  847TIP3   OH223955   2.559   6.596   2.428 -0.2340  0.0107  0.4012
  847TIP3    H123956   2.629   6.661   2.435  0.8622 -0.9878 -0.7694
  847TIP3    H223957   2.481   6.643   2.457  0.8108  1.3060  1.3025
  848TIP3   OH223958   3.287   6.156  12.844 -0.0236  0.0894  0.4796
  848TIP3    H123959   3.324   6.071  12.822 -0.1253  0.4294 -1.0902
  848TIP3    H223960   3.293   6.207  12.763 -0.1132  1.5213  1.3451
  849TIP3   OH223961   0.609   2.597  11.916  0.0184 -0.3644 -0.4167
  849TIP3    H123962   0.620   2.635  11.829  1.6874 -0.6153 -0.3414
  849TIP3    H223963   0.636   2.506  11.906  0.3997 -0.3533  0.3926
  850TIP3   OH223964   1.942   1.140  12.282  0.4605  0.0009 -0.1993
  850TIP3    H123965   2.036   1.157  12.275  0.5483  0.2217  1.2446
  850TIP3    H223966   1.902   1.202  12.222  1.2547 -0.4521 -1.2341
  851TIP3   OH223967   4.292   3.086   3.775  0.0914  0.0925 -0.2038
  851TIP3    H123968   4.217   3.133   3.741 -1.5079 -1.8831  0.4151
  851TIP3    H223969   4.340   3.152   3.826 -1.4998  1.2873 -0.1734
  852TIP3   OH223970   0.680   4.978   3.411 -0.4004  0.2719  0.3597
  852TIP3    H123971   0.693   4.965   3.318 -2.5659 -0.3143  0.0788
  852TIP3    H223972   0.727   4.906   3.453 -0.5616 -0.2619 -0.3716
  853TIP3   OH223973   4.579   2.311  16.256  0.1698 -0.1186  0.2754
  853TIP3    H123974   4.573   2.230  16.307 -1.7994 -1.1716 -1.4459
  853TIP3    H223975   4.604   2.282  16.168 -2.2245  0.8530 -0.8154
  854TIP3   OH223976   6.607   6.254   5.824  0.1483 -0.2715  0.0622
  854TIP3    H123977   6.642   6.341   5.844  0.1523 -0.5504  1.3453
  854TIP3    H223978   6.594   6.255   5.729 -0.3514  1.3123  0.1150
  855TIP3   OH223979   3.087   2.366  15.712 -0.8619  0.6250 -0.0145
  855TIP3    H123980   3.108   2.386  15.620  1.2965  0.4462  0.3836
  855TIP3    H223981   3.136   2.431  15.762 -0.9909 -0.0798  1.0594
  856TIP3   OH223982   1.809   6.097  16.410  0.0607  0.2102 -0.0294
  856TIP3    H123983   1.764   6.150  16.476  0.2077  1.2207 -0.7187
  856TIP3    H223984   1.760   6.113  16.330 -1.2857 -2.4982  0.1640
  857TIP3   OH223985   1.619   6.331   1.819 -0.3194  0.0010  0.4003
  857TIP3    H123986   1.575   6.358   1.738  1.0786  0.2263 -0.3096
  857TIP3    H223987   1.642   6.240   1.805  0.7411  0.2939  0.1532
  858TIP3   OH223988   2.503   0.404   5.720  0.6245  0.5013  0.2585
  858TIP3    H123989   2.545   0.482   5.756 -0.1046  0.5832  0.9398
  858TIP3    H223990   2.573   0.338   5.717  1.1949  1.1091 -0.1351
  859TIP3   OH223991   2.373   1.314   4.140 -0.5061 -0.5352  1.1301
  859TIP3    H123992   2.411   1.298   4.227 -0.5685 -0.6503  1.1360
  859TIP3    H223993   2.439   1.280   4.079 -0.3774 -0.2825  1.1268
  860TIP3   OH223994   5.040   6.402   2.807 -0.1347  0.4430 -0.3519
  860TIP3    H123995   4.974   6.454   2.852  0.6860  0.2686  1.1465
  860TIP3    H223996   5.009   6.311   2.815 -0.1772  0.4484 -0.4626
  861TIP3   OH223997   3.057   3.894   5.023 -0.0297 -0.4158  0.0133
  861TIP3    H123998   3.122   3.920   4.958  1.7762 -0.5631  1.6665
  861TIP3    H223999   3.078   3.802   5.042 -1.6921 -0.9251 -0.4783
  862TIP3   OH224000   3.880   0.765  12.632 -0.0468 -0.6684  0.2257
  862TIP3    H124001   3.925   0.736  12.552  0.5185  1.3297 -0.2639
  862TIP3    H224002   3.951   0.794  12.690 -0.5732  1.5858 -0.1581
  863TIP3   OH224003   1.118   4.057   5.761  0.5538  0.3117 -0.2228
  863TIP3    H124004   1.023   4.062   5.756  0.4287 -0.0329  1.3673
  863TIP3    H224005   1.149   4.129   5.706 -0.6350  0.9709 -0.0578
  864TIP3   OH224006   3.027   0.464   3.295  0.4774  0.2670 -0.6321
  864TIP3    H124007   3.061   0.477   3.383 -2.2048 -0.5056  0.6309
  864TIP3    H224008   3.025   0.552   3.257  0.7253  0.7584  0.4570
  865TIP3   OH224009   6.241   0.415   0.876 -0.1329  0.5189 -0.1777
  865TIP3    H124010   6.180   0.342   0.886 -0.2110  0.4242 -1.1831
  865TIP3    H224011   6.325   0.373   0.857 -0.4381  0.6544 -2.1205
  866TIP3   OH224012   4.987   1.782  15.937  0.0782 -1.2362 -0.0096
  866TIP3    H124013   5.013   1.694  15.909 -2.9909 -1.4264 -3.0055
  866TIP3    H224014   5.067   1.834  15.928  1.2148 -3.0800 -1.5258
  867TIP3   OH224015   4.847   5.053   0.223 -0.1543 -0.1245 -0.5599
  867TIP3    H124016   4.882   4.981   0.275 -0.3912  0.5999  0.6309
  867TIP3    H224017   4.861   5.026   0.132 -0.8913 -1.9989 -0.1662
  868TIP3   OH224018   2.337   0.591   3.911 -0.4648  0.4968 -0.2094
  868TIP3    H124019   2.376   0.671   3.947 -1.6927  0.4752  1.2808
  868TIP3    H224020   2.349   0.599   3.817  1.2022  1.4806  0.0426
  869TIP3   OH224021   6.664   4.077  12.458 -0.1825  0.0990  0.3876
  869TIP3    H124022   6.670   3.990  12.498  0.2879 -1.0864 -2.0846
  869TIP3    H224023   6.750   4.092  12.419 -1.1789  0.1947 -1.9845
  870TIP3   OH224024   4.348   2.584   1.870  0.5618 -0.0847  0.3297
  870TIP3    H124025   4.422   2.637   1.842  0.0652  1.4651  1.7328
  870TIP3    H224026   4.314   2.545   1.790  2.8204 -0.8054 -0.3621
  871TIP3   OH224027   2.117   1.149   2.102 -0.1812 -0.0347  0.2189
  871TIP3    H124028   2.097   1.202   2.179 -0.0220  0.3461  0.0020
  871TIP3    H224029   2.180   1.202   2.053 -1.8196  0.6433 -1.2168
  872TIP3   OH224030   0.042   5.220  14.987  0.6155 -0.1591 -0.0386
  872TIP3    H124031   0.039   5.307  14.948  0.9864  0.2356  0.7945
  872TIP3    H224032   0.025   5.160  14.914 -0.2277  0.6324 -0.5009
  873TIP3   OH224033   5.297   3.079   0.787  0.7080  0.0538  0.0854
  873TIP3    H124034   5.393   3.086   0.794  0.7596 -0.9406  0.5170
  873TIP3    H224035   5.284   3.006   0.726  0.2102  1.9208 -2.1988
  874TIP3   OH224036   3.417   0.540   3.334  0.2665  0.9472 -0.1115
  874TIP3    H124037   3.480   0.610   3.324  1.9980 -0.5719 -0.3523
  874TIP3    H224038   3.413   0.525   3.429  1.9662 -0.3517 -0.1929
  875TIP3   OH224039   3.916   4.478   5.558 -0.0125  0.0892  0.2920
  875TIP3    H124040   3.938   4.447   5.645  0.7027 -1.5115 -0.4237
  875TIP3    H224041   3.995   4.463   5.506 -0.4777  0.8728 -0.6811
  876TIP3   OH224042   6.628   4.202   4.922  0.5768 -0.0389  0.1367
  876TIP3    H124043   6.636   4.111   4.894 -0.1758 -0.5232  1.4130
  876TIP3    H224044   6.547   4.233   4.881  1.0232  0.1850 -0.5939
  877TIP3   OH224045   2.109   0.932  15.731 -0.1190 -0.0560 -0.3668
  877TIP3    H124046   2.159   0.985  15.668 -1.4042  0.3631 -1.0604
  877TIP3    H224047   2.176   0.897  15.790  1.0852 -0.1012 -1.6883
  878TIP3   OH224048   2.063   2.478   5.198  0.4141 -0.2653  0.2062
  878TIP3    H124049   2.068   2.419   5.273  0.4310 -0.9788 -0.3468
  878TIP3    H224050   1.969   2.487   5.181  0.3763  0.4123  0.6952
  879TIP3   OH224051   0.823   2.291   5.603 -0.1111 -0.2647  0.2158
  879TIP3    H124052   0.785   2.281   5.515  0.7615  0.6317 -0.2882
  879TIP3    H224053   0.782   2.222   5.655 -0.7324 -0.7416 -0.8719
  880TIP3   OH224054   2.648   0.656   0.248  0.0971  0.4819 -0.1470
  880TIP3    H124055   2.561   0.695   0.251 -0.0454  0.2080 -0.7284
  880TIP3    H224056   2.650   0.598   0.325 -0.6313 -0.3318 -0.7126
  881TIP3   OH224057   5.389   6.322   1.578  0.0960  0.2807  0.1510
  881TIP3    H124058   5.419   6.358   1.494  4.9573 -2.8651  0.0808
  881TIP3    H224059   5.373   6.229   1.559  0.9274 -0.4328  2.5532
  882TIP3   OH224060   3.794   6.768  17.003  0.3520  0.0691  0.0491
  882TIP3    H124061   3.780   6.827  16.928  2.7303  1.0988  0.2984
  882TIP3    H224062   3.715   6.715  17.007 -2.2338  3.5771  0.1116
  883TIP3   OH224063   6.357   5.283   2.945 -0.1042 -0.0632 -0.1076
  883TIP3    H124064   6.263   5.287   2.960  0.0337 -1.5041  1.4136
  883TIP3    H224065   6.370   5.328   2.862 -1.9979  1.0843  0.1727
  884TIP3   OH224066   2.949   3.805  16.376  0.1697  0.4150  0.1137
  884TIP3    H124067   2.990   3.875  16.325  0.3899 -0.4326 -0.9144
  884TIP3    H224068   3.013   3.733  16.373  0.1738  0.3275  1.5735
  885TIP3   OH224069   0.258   5.083   5.234 -0.0636 -0.4182 -0.2445
  885TIP3    H124070   0.172   5.111   5.263  1.0749  1.1098  1.9965
  885TIP3    H224071   0.309   5.164   5.227  1.1742 -1.2573 -1.6502
  886TIP3   OH224072   1.525   0.591  17.012 -0.0589  0.1107  0.1438
  886TIP3    H124073   1.472   0.659  17.052 -1.0461  1.0469 -2.5030
  886TIP3    H224074   1.607   0.635  16.989  0.2693 -0.2572  0.5977
  887TIP3   OH224075   4.186   4.943   1.413  0.4547 -0.1008 -0.6543
  887TIP3    H124076   4.177   4.911   1.323 -1.7704  2.1995 -1.3655
  887TIP3    H224077   4.223   5.030   1.403 -0.4359  0.4433  0.5938
  888TIP3   OH224078   2.990   4.209   1.994  0.0829  0.2838 -0.5172
  888TIP3    H124079   2.967   4.261   1.917  0.7942  0.8722 -0.3470
  888TIP3    H224080   3.029   4.273   2.055  1.5298 -0.5432 -0.5348
  889TIP3   OH224081   2.833   1.571   5.851  0.2203  0.6212 -0.2841
  889TIP3    H124082   2.794   1.484   5.839  0.8674  0.0991  1.1228
  889TIP3    H224083   2.921   1.563   5.816 -0.0145  0.9938 -0.9761
  890TIP3   OH224084   5.821   1.042  15.719  0.5048 -0.2148  0.3111
  890TIP3    H124085   5.913   1.069  15.722  1.2248 -2.3482 -0.5501
  890TIP3    H224086   5.806   0.998  15.803  0.7529 -1.1795 -0.1315
  891TIP3   OH224087   0.638   4.607   5.020  0.0305 -0.0795  0.9190
  891TIP3    H124088   0.670   4.522   5.052 -0.1139 -0.4330  0.1410
  891TIP3    H224089   0.634   4.662   5.099  0.4501 -0.6879  1.3775
  892TIP3   OH224090   2.158   0.029   4.774 -0.2612 -0.6699  0.4395
  892TIP3    H124091   2.142  -0.061   4.746  1.0123 -1.3429  1.7699
  892TIP3    H224092   2.217   0.064   4.708  1.5926 -1.7974  1.3959
  893TIP3   OH224093   3.677   3.689   3.565 -0.0555 -0.1626  0.1668
  893TIP3    H124094   3.682   3.706   3.471  0.8837  1.2388  0.4454
  893TIP3    H224095   3.601   3.739   3.595  1.1718  1.5331  0.5561
  894TIP3   OH224096   3.043   5.112   1.099 -0.0884  0.2798 -0.2223
  894TIP3    H124097   3.041   5.086   1.007  0.4063  1.0459 -0.4596
  894TIP3    H224098   3.063   5.206   1.097  0.8376  0.1239  0.6783
  895TIP3   OH224099   1.100   0.218  16.131  0.1266 -0.4848 -0.2719
  895TIP3    H124100   1.021   0.248  16.176 -0.3033 -1.0250 -0.6551
  895TIP3    H224101   1.094   0.257  16.043  0.0281 -0.9434 -0.4697
  896TIP3   OH224102   4.033   1.376   1.974  0.3826 -0.4522 -0.8408
  896TIP3    H124103   4.084   1.385   2.054  0.3687 -1.8345 -0.6496
  896TIP3    H224104   3.942   1.376   2.003  0.3518 -0.1980 -0.9378
  897TIP3   OH224105   6.598   0.591   6.608 -0.1763  0.2349 -0.0674
  897TIP3    H124106   6.605   0.583   6.703 -0.7908  0.8137  0.0394
  897TIP3    H224107   6.514   0.635   6.594  0.4499  1.2352 -0.8145
  898TIP3   OH224108   6.530   4.707   4.610 -0.9279 -0.2054  0.2179
  898TIP3    H124109   6.533   4.803   4.613  0.4521 -0.2132 -0.1586
  898TIP3    H224110   6.591   4.679   4.679  1.9776 -0.7208 -2.3377
  899TIP3   OH224111   3.508   2.668  12.511 -0.1535  0.1224 -0.0481
  899TIP3    H124112   3.575   2.635  12.451  0.3813  2.3744 -0.7566
  899TIP3    H224113   3.474   2.747  12.469 -1.7729  0.2030  1.3019
  900TIP3   OH224114   6.719   1.099   2.976 -0.4213 -0.1031  0.3757
  900TIP3    H124115   6.727   1.016   3.024 -2.2389 -0.0116  0.9279
  900TIP3    H224116   6.693   1.073   2.887  0.1184 -0.1615  0.2331
  901TIP3   OH224117   4.190   0.153  13.462  0.4184  0.2195 -0.0272
  901TIP3    H124118   4.278   0.117  13.477  0.8728  0.8530 -1.0965
  901TIP3    H224119   4.158   0.174  13.550  0.5709 -1.7303  0.5422
  902TIP3   OH224120   4.652   0.364  15.450  0.8617 -0.1221  0.1102
  902TIP3    H124121   4.628   0.331  15.364  0.7107 -2.3780  0.9312
  902TIP3    H224122   4.569   0.384  15.492  0.9221  0.7455 -0.1819
  903TIP3   OH224123   4.686   2.705   5.967  0.1400 -0.7723  0.4347
  903TIP3    H124124   4.768   2.657   5.965  0.7633  0.2077  1.4221
  903TIP3    H224125   4.619   2.639   5.979  0.7476 -1.6093 -0.6019
  904TIP3   OH224126   4.651   2.956  14.180 -0.1244 -0.1326 -0.1572
  904TIP3    H124127   4.607   2.872  14.196  2.4074 -1.2996  1.2429
  904TIP3    H224128   4.623   3.010  14.254 -1.1953  0.0431 -0.6703
  905TIP3   OH224129   3.114   3.151  10.768 -0.1527 -0.1308  0.0075
  905TIP3    H124130   3.078   3.224  10.819 -1.5305 -0.6399 -0.1917
  905TIP3    H224131   3.079   3.164  10.680  0.7756 -0.2329 -0.3780
  906TIP3   OH224132   2.645   0.215   3.758  0.0234  0.2726 -0.3137
  906TIP3    H124133   2.587   0.253   3.692  1.0655  3.6766  0.5724
  906TIP3    H224134   2.601   0.231   3.841  0.9162  0.3364  0.1597
  907TIP3   OH224135   4.716   1.025   2.338 -0.3295 -0.0189 -0.5338
  907TIP3    H124136   4.795   1.079   2.332 -0.0545 -0.3965 -0.3189
  907TIP3    H224137   4.730   0.970   2.415 -1.0185  0.2631 -0.1962
  908TIP3   OH224138   5.298   3.365  15.067  0.1236  0.1004  0.2962
  908TIP3    H124139   5.330   3.382  15.156  2.2240  1.4309 -0.6427
  908TIP3    H224140   5.369   3.318  15.024  0.8324  2.7599 -1.7516
  909TIP3   OH224141   2.275   2.301   5.659 -0.8301  0.2431 -0.3370
  909TIP3    H124142   2.196   2.268   5.700 -0.4067  1.1388  1.2794
  909TIP3    H224143   2.331   2.224   5.650 -1.4365 -0.1902 -0.4650
  910TIP3   OH224144   4.650   0.979  11.491 -0.0620 -0.3950 -0.7419
  910TIP3    H124145   4.735   1.009  11.460 -1.4195  0.1329 -4.5432
  910TIP3    H224146   4.670   0.906  11.550  2.9852  0.1265 -0.9643
  911TIP3   OH224147   4.522   2.189   5.736 -0.3504  0.0592  0.3949
  911TIP3    H124148   4.530   2.157   5.646 -0.6551 -0.5069  0.5636
  911TIP3    H224149   4.428   2.205   5.747 -0.2758  0.4108  0.5173
  912TIP3   OH224150   6.172   1.044  12.962  0.1433  0.1719 -0.2082
  912TIP3    H124151   6.214   0.965  12.928 -0.9893 -1.6502  2.2783
  912TIP3    H224152   6.081   1.018  12.977 -0.2353  1.9209  0.7928
  913TIP3   OH224153   1.346   2.712  14.422  0.1912 -0.1552 -0.2436
  913TIP3    H124154   1.294   2.665  14.487  0.1030  0.2011 -0.0527
  913TIP3    H224155   1.294   2.708  14.342  0.4784 -0.9323 -0.3969
  914TIP3   OH224156   5.260   5.872  12.947  0.1596 -0.3241  0.6799
  914TIP3    H124157   5.313   5.860  13.025  1.5514 -2.7925 -0.5403
  914TIP3    H224158   5.314   5.838  12.875 -1.6987  0.3413 -1.1430
  915TIP3   OH224159   1.763   3.912   2.646 -0.2350  0.2171  0.2194
  915TIP3    H124160   1.811   3.882   2.724  0.1337  0.8937  0.2613
  915TIP3    H224161   1.674   3.881   2.660 -0.2618  0.6468  1.1018
  916TIP3   OH224162   1.733   4.132   3.908 -0.4822 -0.2080 -0.0421
  916TIP3    H124163   1.821   4.170   3.907 -1.0156  1.1905  1.6430
  916TIP3    H224164   1.736   4.063   3.842  1.5808  0.4608 -0.7180
  917TIP3   OH224165   3.120   5.781   6.276 -0.3276 -0.2515 -0.2799
  917TIP3    H124166   3.169   5.741   6.204  0.3061  0.1509 -0.0800
  917TIP3    H224167   3.184   5.789   6.347 -1.5337 -3.2661  1.3925
  918TIP3   OH224168   0.900   2.720   0.540  0.1873 -0.0636  0.4083
  918TIP3    H124169   0.828   2.783   0.537 -0.6504 -0.9934 -2.5194
  918TIP3    H224170   0.909   2.690   0.450  2.5396 -1.9582  1.1645
  919TIP3   OH224171   4.881   5.338   4.552 -0.2362 -0.0344  0.3997
  919TIP3    H124172   4.972   5.311   4.561  0.0981  0.7319 -0.5054
  919TIP3    H224173   4.830   5.260   4.572  0.6193 -0.5145  0.7515
  920TIP3   OH224174   3.292   5.298  14.209 -0.8072 -0.0329 -0.5615
  920TIP3    H124175   3.217   5.253  14.172 -1.5409  1.5957 -1.1539
  920TIP3    H224176   3.264   5.390  14.217  0.4284  0.2494  1.0805
  921TIP3   OH224177   0.711   4.870  15.178  0.0141  0.0859 -0.4682
  921TIP3    H124178   0.736   4.794  15.230  1.4790  0.4662 -0.5641
  921TIP3    H224179   0.720   4.944  15.239 -2.0131  0.1600 -0.1864
  922TIP3   OH224180   1.493   0.288   5.742 -0.0738  0.4783 -0.2933
  922TIP3    H124181   1.412   0.323   5.704 -0.5054  0.7502  0.8439
  922TIP3    H224182   1.490   0.315   5.834  1.7326  1.2499 -0.4110
  923TIP3   OH224183   4.829   3.020  12.351  0.5916 -0.0174  0.0745
  923TIP3    H124184   4.803   3.022  12.443 -0.7085 -0.8771 -0.2452
  923TIP3    H224185   4.748   3.038  12.303  1.1609 -0.0295 -0.9047
  924TIP3   OH224186   3.858   0.831   4.948  0.3735  0.4506  0.6720
  924TIP3    H124187   3.942   0.872   4.971 -0.4659  1.8715  1.3472
  924TIP3    H224188   3.849   0.844   4.854  1.0975 -0.1212  0.5092
  925TIP3   OH224189   5.300   1.808   4.744  0.1117 -0.4488  0.5591
  925TIP3    H124190   5.395   1.797   4.739 -0.0416 -3.1149  2.0489
  925TIP3    H224191   5.269   1.792   4.654  1.0653  1.2958 -0.1361
  926TIP3   OH224192   4.848   0.655   4.764  0.3940  0.8615  0.7492
  926TIP3    H124193   4.873   0.614   4.681  2.5952  1.5891  0.9862
  926TIP3    H224194   4.840   0.582   4.825 -0.8904  0.3558  0.0114
  927TIP3   OH224195   6.614   5.530   3.939  0.1926 -0.6113 -0.6863
  927TIP3    H124196   6.609   5.577   4.022  1.0586 -2.1019  0.2520
  927TIP3    H224197   6.707   5.530   3.916 -0.0833  0.2024 -1.9427
  928TIP3   OH224198   4.334   1.711   0.517  0.2863  0.0149 -0.2748
  928TIP3    H124199   4.389   1.780   0.555 -1.6230  1.4330  0.1233
  928TIP3    H224200   4.335   1.641   0.582  1.3112  0.1706 -0.1098
  929TIP3   OH224201   2.820   1.621  11.170 -0.4067  0.2038 -0.1106
  929TIP3    H124202   2.830   1.715  11.151  0.3645 -0.0366 -0.9603
  929TIP3    H224203   2.903   1.595  11.208 -0.9441  0.0473  0.9954
  930TIP3   OH224204   4.896   5.486  16.541  0.7574  0.8574  1.2954
  930TIP3    H124205   4.804   5.508  16.555  0.8420  1.9207  0.3034
  930TIP3    H224206   4.915   5.422  16.609 -1.3340 -1.2218  0.0816
  931TIP3   OH224207   5.274   3.774  16.943 -0.2745 -0.2835 -0.0272
  931TIP3    H124208   5.203   3.795  16.882 -1.2614 -2.5808  0.1953
  931TIP3    H224209   5.230   3.728  17.015  1.3864 -1.5923  0.2171
  932TIP3   OH224210   3.198   4.540   4.668 -0.3553  0.0524 -0.3728
  932TIP3    H124211   3.113   4.549   4.711 -0.4428  0.0108 -0.5355
  932TIP3    H224212   3.234   4.629   4.669 -0.3788  0.0604 -0.2553
  933TIP3   OH224213   5.814   0.116  13.232 -0.6350 -0.1730  0.4490
  933TIP3    H124214   5.766   0.092  13.311 -1.1911 -1.5123 -0.2584
  933TIP3    H224215   5.747   0.116  13.163  0.3314 -1.9455 -0.5403
  934TIP3   OH224216   0.004   3.123  15.367 -0.0710 -0.3623 -0.3771
  934TIP3    H124217  -0.091   3.119  15.379 -0.1889 -0.7698 -1.3734
  934TIP3    H224218   0.019   3.095  15.277  0.9809 -0.0665 -0.3167
  935TIP3   OH224219   5.885   2.455   0.550 -0.6869 -0.3179  0.2547
  935TIP3    H124220   5.879   2.361   0.535  0.4680 -0.4797  0.6597
  935TIP3    H224221   5.797   2.489   0.534 -0.7496 -1.2310 -1.5007
  936TIP3   OH224222   5.330   6.706   3.623 -0.0526 -0.2425 -0.2695
  936TIP3    H124223   5.388   6.753   3.563 -1.0650 -1.0716 -1.9633
  936TIP3    H224224   5.378   6.704   3.706  1.5418  0.6563 -1.1258
  937TIP3   OH224225   1.432   3.242  14.017 -0.1880 -0.1201 -0.4408
  937TIP3    H124226   1.416   3.331  14.049  0.3734 -0.1010 -0.2067
  937TIP3    H224227   1.364   3.189  14.058 -0.4795  0.1837 -0.5231
  938TIP3   OH224228   4.038   6.281   2.595  0.3592 -0.1023 -0.1471
  938TIP3    H124229   3.978   6.295   2.669 -0.9745 -1.4391 -0.8988
  938TIP3    H224230   3.980   6.280   2.518  1.9092  3.4396 -1.5804
  939TIP3   OH224231   4.199   4.204  13.588 -0.7240 -0.1343 -0.3067
  939TIP3    H124232   4.218   4.187  13.681 -1.5399  0.4663 -0.0140
  939TIP3    H224233   4.237   4.130  13.542  2.3840  0.9783  0.2025
  940TIP3   OH224234   1.446   6.780   0.993 -0.7558 -0.0884 -0.3150
  940TIP3    H124235   1.429   6.868   0.959 -0.7062 -0.1487 -0.4992
  940TIP3    H224236   1.498   6.738   0.924 -0.5363 -0.1651 -0.1029
  941TIP3   OH224237   6.464   5.191   5.314 -0.0364 -0.5819  0.1555
  941TIP3    H124238   6.372   5.178   5.292 -1.1121  1.4980  2.8055
  941TIP3    H224239   6.509   5.117   5.274 -2.6752 -1.1439 -2.0754
  942TIP3   OH224240   3.546   2.103  16.669  0.2393  0.1769  0.1258
  942TIP3    H124241   3.595   2.024  16.689  0.0407  0.2130  0.7810
  942TIP3    H224242   3.554   2.113  16.574  0.8393 -0.2439  0.1266
  943TIP3   OH224243   5.223   0.517   2.260 -0.1014 -0.0710 -0.1586
  943TIP3    H124244   5.231   0.488   2.169  1.1398  0.8125 -0.3706
  943TIP3    H224245   5.158   0.587   2.258 -2.4137 -2.0775  0.2023
  944TIP3   OH224246   3.479   4.235  16.859 -0.3861  0.3904  0.0882
  944TIP3    H124247   3.499   4.325  16.833  4.1851  0.0948  1.6621
  944TIP3    H224248   3.493   4.233  16.954  1.0823 -2.1983 -0.0790
  945TIP3   OH224249   5.609   0.779  13.304 -0.5998 -0.4491 -0.2071
  945TIP3    H124250   5.628   0.869  13.333  2.2963 -0.9932 -0.1385
  945TIP3    H224251   5.602   0.729  13.384  1.9684 -0.9587 -0.2100
  946TIP3   OH224252   5.071   0.200   4.137 -0.6705  0.3609  0.0331
  946TIP3    H124253   5.053   0.141   4.063 -1.7936 -0.1154  0.6528
  946TIP3    H224254   5.135   0.153   4.190  0.3682  0.8356 -0.7766
  947TIP3   OH224255   5.371   3.636  12.745  0.4174  0.1841  0.0466
  947TIP3    H124256   5.286   3.603  12.717  0.6055 -0.7527  0.5256
  947TIP3    H224257   5.350   3.710  12.802 -0.2661 -1.7670  2.5138
  948TIP3   OH224258   5.049   6.705  14.502 -0.0559 -1.1432  0.2404
  948TIP3    H124259   5.052   6.783  14.446  0.4018 -0.9389  0.5433
  948TIP3    H224260   5.131   6.708  14.551 -1.4152 -0.0608  2.6180
  949TIP3   OH224261   3.689   5.104  16.684  0.3557 -0.1109 -0.1146
  949TIP3    H124262   3.725   5.024  16.722  0.6045  0.5795  1.1728
  949TIP3    H224263   3.612   5.123  16.737 -1.4873 -1.0811 -2.2805
  950TIP3   OH224264   2.776   5.783  14.671 -0.1430  0.3475  0.5358
  950TIP3    H124265   2.771   5.688  14.671  1.9265  0.1822  1.8673
  950TIP3    H224266   2.694   5.811  14.629  0.0603 -2.0125 -1.7235
  951TIP3   OH224267   3.007   3.207  16.357  0.1800 -0.0547  0.5607
  951TIP3    H124268   3.061   3.275  16.396 -0.1418  0.1944  0.5747
  951TIP3    H224269   3.026   3.213  16.263 -0.3533  0.5098  0.4813
  952TIP3   OH224270   0.149   0.899  13.685 -0.1813 -0.4458 -0.4248
  952TIP3    H124271   0.080   0.956  13.651 -0.0427 -0.8166 -1.3681
  952TIP3    H224272   0.205   0.882  13.609  0.7891 -0.3832  0.2595
  953TIP3   OH224273   3.859   0.188  11.376 -0.0207 -0.6382 -0.8904
  953TIP3    H124274   3.764   0.199  11.368  0.1032  1.0382 -0.4507
  953TIP3    H224275   3.871   0.160  11.467 -0.0240  0.6302 -0.4734
  954TIP3   OH224276   0.449   4.513  16.134  0.4549 -0.3284 -0.0601
  954TIP3    H124277   0.415   4.424  16.122 -0.2426  0.1113 -1.5681
  954TIP3    H224278   0.393   4.552  16.201  0.3091 -0.7951  0.0916
  955TIP3   OH224279   5.240   5.790   1.577  0.3517  0.4262 -0.0960
  955TIP3    H124280   5.146   5.785   1.561  0.4526  0.4853 -0.7410
  955TIP3    H224281   5.248   5.838   1.659 -0.2116 -0.3323  0.4266
  956TIP3   OH224282   3.998   4.741   0.872  0.0132  0.2537  0.6754
  956TIP3    H124283   3.944   4.749   0.950 -0.8795  1.9223 -0.0688
  956TIP3    H224284   4.052   4.663   0.888  0.0447  0.7022  3.0481
  957TIP3   OH224285   4.038   2.987   3.059  0.6421  0.3115 -0.3053
  957TIP3    H124286   4.010   2.985   3.150  1.4462  2.4916  0.0449
  957TIP3    H224287   3.961   3.014   3.010  0.2086 -0.8653 -0.3195
  958TIP3   OH224288   6.610   3.730  12.183  0.1361  0.3185  0.0412
  958TIP3    H124289   6.598   3.635  12.175  2.8715 -0.1912  0.8135
  958TIP3    H224290   6.556   3.755  12.257  1.8404 -1.3195  1.9776
  959TIP3   OH224291   2.940   4.720  16.484  0.1316  0.0481 -0.4118
  959TIP3    H124292   2.904   4.775  16.553  3.3358  0.2141  1.3191
  959TIP3    H224293   2.944   4.632  16.523  1.8653  0.1139 -0.3916
  960TIP3   OH224294   3.095   2.604   6.175  0.1156  0.0022  1.0243
  960TIP3    H124295   3.168   2.666   6.177  0.7666 -0.4049 -2.5631
  960TIP3    H224296   3.138   2.518   6.165 -0.7521 -0.2816 -0.7021
  961TIP3   OH224297   0.000   3.802   2.568 -0.0571  0.2050 -0.6284
  961TIP3    H124298  -0.011   3.713   2.537  1.4005 -1.6151  3.4035
  961TIP3    H224299  -0.088   3.840   2.567 -0.9068 -1.7022 -1.2923
  962TIP3   OH224300   2.586   0.286  14.040  0.1441 -0.3902  0.3861
  962TIP3    H124301   2.570   0.292  13.946 -1.2625 -0.7623  0.5828
  962TIP3    H224302   2.682   0.279  14.047  0.3035  0.0361 -0.9788
  963TIP3   OH224303   0.861   3.315  15.345 -0.2737 -0.7507 -0.5386
  963TIP3    H124304   0.825   3.386  15.291 -1.8410  0.1975  1.6033
  963TIP3    H224305   0.939   3.354  15.386 -1.7231  0.2145  1.4687
  964TIP3   OH224306   6.241   0.905   4.847  0.0092 -0.2484 -0.3780
  964TIP3    H124307   6.261   0.817   4.879 -0.8694 -0.7449 -1.1307
  964TIP3    H224308   6.188   0.945   4.916  1.3341  0.1156  0.4580
  965TIP3   OH224309   3.187   3.262  15.286  0.2469 -0.2000  0.1171
  965TIP3    H124310   3.121   3.209  15.330 -2.0478  1.9101 -0.5324
  965TIP3    H224311   3.218   3.207  15.214 -0.9783 -1.2055  0.3294
  966TIP3   OH224312   0.995   2.500   4.887 -0.1685  0.0193 -0.1857
  966TIP3    H124313   0.977   2.481   4.795 -1.4027  0.2800 -0.0134
  966TIP3    H224314   1.033   2.419   4.921  1.9924  0.4812 -1.3239
  967TIP3   OH224315   1.822   2.198   0.591 -0.3185 -0.1331  0.3451
  967TIP3    H124316   1.806   2.169   0.502  0.1437  0.2134  0.1433
  967TIP3    H224317   1.759   2.268   0.606 -0.7306 -0.5299  0.4659
  968TIP3   OH224318   3.753   3.870   4.444 -0.1870  0.1676 -0.2299
  968TIP3    H124319   3.741   3.957   4.481 -0.2258 -0.6137  1.7071
  968TIP3    H224320   3.734   3.810   4.516  4.4985 -1.4097  0.0137
  969TIP3   OH224321   0.233   3.627   5.042  0.1332  0.2993  0.6356
  969TIP3    H124322   0.276   3.543   5.026  1.1832  0.4246  2.5253
  969TIP3    H224323   0.145   3.616   5.006  1.4171 -0.2414 -2.6511
  970TIP3   OH224324   6.604   1.185  16.083  0.0631 -0.0631  0.6214
  970TIP3    H124325   6.629   1.212  16.171  0.0627 -1.5815  1.1274
  970TIP3    H224326   6.683   1.196  16.030  0.2716  0.1815  0.9837
  971TIP3   OH224327   3.958   1.006   3.918 -0.3965  0.1384 -0.0091
  971TIP3    H124328   4.009   0.949   3.975  0.0952  1.0409  0.4665
  971TIP3    H224329   3.899   0.946   3.872 -0.0705 -0.7246  0.6591
  972TIP3   OH224330   2.323   5.803   2.422 -0.7688 -0.2015 -0.4038
  972TIP3    H124331   2.385   5.846   2.364 -0.8105  1.7170  0.8997
  972TIP3    H224332   2.369   5.725   2.453  0.5744  0.5965 -0.3130
  973TIP3   OH224333   0.445   6.459   5.318  0.0916  0.2130  0.4465
  973TIP3    H124334   0.461   6.503   5.401  1.4720  2.7048 -1.0363
  973TIP3    H224335   0.517   6.396   5.309  1.0405  1.3069  0.2820
  974TIP3   OH224336   3.082   5.430  11.538 -0.2678  0.6539 -0.4631
  974TIP3    H124337   3.042   5.443  11.624 -1.4058  0.1310 -0.8952
  974TIP3    H224338   3.123   5.514  11.518  1.6437  0.2629  1.3807
  975TIP3   OH224339   1.395   6.741  11.179 -0.0881 -0.0835 -0.0175
  975TIP3    H124340   1.348   6.692  11.111 -0.0921 -3.3093  2.0797
  975TIP3    H224341   1.467   6.784  11.132 -1.1075 -0.7038 -2.2875
  976TIP3   OH224342   1.032   1.281   0.150  0.3148  0.6626  0.6980
  976TIP3    H124343   1.044   1.345   0.220  2.0139  0.2862  0.7851
  976TIP3    H224344   1.064   1.324   0.071  3.3203 -0.6611  1.0761
  977TIP3   OH224345   4.763   4.039   1.112  0.3299  0.3576 -0.0713
  977TIP3    H124346   4.710   4.118   1.123  0.3056  0.7173 -2.2953
  977TIP3    H224347   4.712   3.984   1.051 -0.3504 -2.0813  2.4655
  978TIP3   OH224348   4.592   6.379  14.240 -0.2121 -0.0165 -0.1968
  978TIP3    H124349   4.680   6.361  14.206 -0.1530 -0.4017  0.1570
  978TIP3    H224350   4.596   6.354  14.332 -0.5941  0.2992 -0.0912
  979TIP3   OH224351   5.991   5.346  11.014  0.2219 -0.2420 -0.1284
  979TIP3    H124352   6.020   5.362  11.104  0.4076 -1.8575  0.1215
  979TIP3    H224353   5.980   5.251  11.008  0.7567 -0.2361 -1.9791
  980TIP3   OH224354   3.869   5.364   2.202 -0.2492 -0.0588  0.0255
  980TIP3    H124355   3.845   5.293   2.141 -0.9476 -0.0720  0.3152
  980TIP3    H224356   3.898   5.318   2.281 -1.0248 -0.0288  0.3375
  981TIP3   OH224357   3.099   1.775   1.383 -0.1246 -0.0954 -0.2081
  981TIP3    H124358   3.014   1.732   1.381  0.6748 -1.7518 -0.2486
  981TIP3    H224359   3.147   1.730   1.452  0.5458  1.2095  0.2191
  982TIP3   OH224360   5.692   1.299  12.956 -0.0844 -0.0422  0.5629
  982TIP3    H124361   5.754   1.324  13.025 -0.2594  0.4997  0.5268
  982TIP3    H224362   5.737   1.230  12.907  0.9777  1.1413 -0.1844
  983TIP3   OH224363   4.370   5.628  14.103  0.1672 -0.1743  0.7536
  983TIP3    H124364   4.429   5.697  14.072 -0.0539  0.4483  1.6579
  983TIP3    H224365   4.289   5.675  14.125  0.1833 -0.6289  1.8545
  984TIP3   OH224366   2.768   0.556   2.313  0.2363  0.6004  0.3571
  984TIP3    H124367   2.753   0.608   2.392  0.0877 -0.0661  0.7770
  984TIP3    H224368   2.823   0.483   2.343  1.9614  1.4378 -0.5716
  985TIP3   OH224369   2.698   0.613  15.767  0.1010  0.2175 -0.0520
  985TIP3    H124370   2.732   0.528  15.738  0.1302  0.4928 -0.8309
  985TIP3    H224371   2.608   0.616  15.734  0.3354  0.7941 -0.6540
  986TIP3   OH224372   5.160   0.116  16.524 -0.0982  0.3120 -0.1540
  986TIP3    H124373   5.223   0.075  16.465  0.7930  1.1360  0.2057
  986TIP3    H224374   5.113   0.042  16.565  0.4377 -0.2957 -0.6244
  987TIP3   OH224375   3.138   1.816   1.932 -0.1817 -0.0550  0.0853
  987TIP3    H124376   3.060   1.764   1.953  0.0722 -0.8123 -0.8150
  987TIP3    H224377   3.116   1.863   1.852  0.8101 -1.4751 -1.0704
  988TIP3   OH224378   1.618   6.422  15.300  0.3776 -0.1452  0.5617
  988TIP3    H124379   1.550   6.461  15.245 -2.1752  0.6637  3.9438
  988TIP3    H224380   1.676   6.496  15.322 -0.4891  0.2894  1.4759
  989TIP3   OH224381   3.031   3.789  14.186  0.2026 -0.4374 -0.2425
  989TIP3    H124382   3.046   3.875  14.223 -3.1556  0.2896 -0.2854
  989TIP3    H224383   3.112   3.768  14.140  1.4100  2.2844  0.4756
  990TIP3   OH224384   5.835   0.458  12.406  0.3682 -0.3824  0.0340
  990TIP3    H124385   5.835   0.553  12.418 -1.1883 -0.3801  0.2496
  990TIP3    H224386   5.822   0.446  12.312  1.7186 -0.3932 -0.1605
  991TIP3   OH224387   4.393   4.440  13.064  0.3416 -0.3028  0.5277
  991TIP3    H124388   4.454   4.415  12.994 -1.0808  0.2742 -0.9840
  991TIP3    H224389   4.368   4.357  13.106  1.2370 -0.6508  0.3936
  992TIP3   OH224390   6.182   4.364  11.136  0.4183  0.4340  0.4615
  992TIP3    H124391   6.234   4.325  11.206  0.2946 -1.0769 -0.2590
  992TIP3    H224392   6.245   4.380  11.065  0.3238  0.8268  0.4635
  993TIP3   OH224393   0.015   0.042  11.489  0.3488 -0.3130 -0.5174
  993TIP3    H124394   0.010  -0.051  11.512 -1.1104 -0.1592 -0.1526
  993TIP3    H224395   0.091   0.048  11.431  0.1478 -1.8222 -0.9672
  994TIP3   OH224396   6.667   6.523  16.206  0.4582  0.2767  0.1050
  994TIP3    H124397   6.702   6.550  16.122 -2.4802 -0.3760 -1.4637
  994TIP3    H224398   6.727   6.455  16.237  0.8057 -0.5503 -2.2144
  995TIP3   OH224399   3.346   3.999  16.804  0.2355 -0.5679  0.0028
  995TIP3    H124400   3.397   4.078  16.822 -0.9749  0.3711 -0.5602
  995TIP3    H224401   3.347   3.990  16.709 -1.5987  0.1594 -0.1228
  996TIP3   OH224402   0.010   5.701  14.046  0.2807  0.1993  0.1645
  996TIP3    H124403   0.093   5.740  14.072  0.6511  0.3659 -1.1696
  996TIP3    H224404   0.034   5.617  14.007 -0.0034  0.7771 -1.3673
  997TIP3   OH224405   1.881   2.601   1.161 -0.3063 -0.2103  0.3957
  997TIP3    H124406   1.865   2.675   1.102  1.6393 -0.3843 -0.4346
  997TIP3    H224407   1.864   2.524   1.108 -1.4802 -0.3896  1.0021
  998TIP3   OH224408   5.966   3.665  11.752 -0.0781 -0.2215 -0.6856
  998TIP3    H124409   5.997   3.605  11.685  1.2664 -1.1520  0.6895
  998TIP3    H224410   5.916   3.610  11.812 -0.2229  0.3489 -0.2734
  999TIP3   OH224411   3.735   1.856  12.087  0.4517 -0.7742  0.0914
  999TIP3    H124412   3.738   1.937  12.139  1.3850 -0.6062 -0.2192
  999TIP3    H224413   3.678   1.797  12.138  1.2711 -0.5785  1.2580
 1000TIP3   OH224414   1.045   6.425   1.644  0.5693 -0.4455  0.1204
 1000TIP3    H124415   0.965   6.473   1.666  0.4486 -1.1616  1.3325
 1000TIP3    H224416   1.088   6.409   1.728  2.3028  0.4300 -0.5592
 1001TIP3   OH224417   1.879   2.669   2.282  0.0112  0.1755 -1.3592
 1001TIP3    H124418   1.854   2.761   2.289  0.2835  0.1967 -0.6216
 1001TIP3    H224419   1.796   2.621   2.294  0.4452  0.1448  3.5792
 1002TIP3   OH224420   0.029   3.037   1.777 -0.1670 -0.4281 -0.4290
 1002TIP3    H124421   0.021   3.092   1.699  0.7433  0.1476 -0.1360
 1002TIP3    H224422   0.066   3.095   1.844  3.8586 -2.0063 -0.9457
 1003TIP3   OH224423   0.090   0.556  14.928 -0.8102  0.1977  0.6047
 1003TIP3    H124424   0.053   0.625  14.983  0.7827 -0.6082  2.8165
 1003TIP3    H224425   0.172   0.593  14.895 -0.8807  0.0209  0.2207
 1004TIP3   OH224426   3.019   5.835  14.790  0.5871 -0.2411 -0.5688
 1004TIP3    H124427   3.044   5.836  14.698  2.0826 -1.1552 -0.1964
 1004TIP3    H224428   2.933   5.792  14.791  0.6979 -0.4964 -1.5121
 1005TIP3   OH224429   5.310   3.196  12.408 -0.3151 -0.4633 -0.6584
 1005TIP3    H124430   5.348   3.259  12.469  0.2596 -1.0014 -0.4500
 1005TIP3    H224431   5.216   3.208  12.417 -0.2792 -1.1160  0.9928
 1006TIP3   OH224432   5.229   1.434  14.439  0.3128 -0.3747 -0.8189
 1006TIP3    H124433   5.210   1.372  14.510 -1.1367  1.3304  0.3621
 1006TIP3    H224434   5.241   1.379  14.362  0.7648 -2.2228  0.4963
 1007TIP3   OH224435   5.374   6.675  14.870 -0.2953  0.2999  0.2239
 1007TIP3    H124436   5.435   6.602  14.877  0.9399  1.2276 -0.4720
 1007TIP3    H224437   5.377   6.717  14.956  1.1665  1.1594 -0.2057
 1008TIP3   OH224438   1.129   5.907  13.523  0.0121 -0.4650  0.7439
 1008TIP3    H124439   1.170   5.875  13.442  0.5129 -0.2141  0.8946
 1008TIP3    H224440   1.119   5.829  13.577 -1.2762 -0.8148  0.0423
 1009TIP3   OH224441   1.681   6.570  12.249  0.1529 -0.0899 -0.1085
 1009TIP3    H124442   1.590   6.549  12.227  0.1639  0.4740 -0.7170
 1009TIP3    H224443   1.675   6.646  12.306  0.1356 -1.4292  1.7863
 1010TIP3   OH224444   3.015   1.078  16.835 -0.3147  0.3570  0.7084
 1010TIP3    H124445   2.980   1.099  16.749 -0.3374 -0.9215  0.3925
 1010TIP3    H224446   3.106   1.107  16.832 -0.4453  0.7499  0.4345
 1011TIP3   OH224447   5.035   3.932   0.516 -0.2439 -0.1224  0.3810
 1011TIP3    H124448   4.992   3.997   0.572 -3.5576 -1.4190 -0.4227
 1011TIP3    H224449   5.047   3.856   0.573 -1.0366 -0.4841  0.0806
 1012TIP3   OH224450   5.078   0.065  15.233 -0.3703  0.4538 -0.0361
 1012TIP3    H124451   5.107   0.042  15.321 -2.1014  1.1479  0.7540
 1012TIP3    H224452   5.042   0.153  15.241 -1.9277 -0.0307 -1.0968
 1013TIP3   OH224453   4.589   1.243   0.032 -0.1156  0.0714  0.6895
 1013TIP3    H124454   4.502   1.204   0.023 -1.0201  1.6979  1.8511
 1013TIP3    H224455   4.573   1.337   0.043  1.9747  0.9388 -2.3496
 1014TIP3   OH224456   0.168   0.108  14.053  0.0664 -0.3992 -0.2664
 1014TIP3    H124457   0.104   0.164  14.010 -0.0665 -0.7784 -0.5673
 1014TIP3    H224458   0.194   0.157  14.131 -1.8788 -0.9919  0.8170
 1015TIP3   OH224459   0.298   5.047  12.574 -0.1959  0.0333 -0.5496
 1015TIP3    H124460   0.314   5.092  12.657  0.0509 -3.0499  1.2146
 1015TIP3    H224461   0.374   4.991  12.561 -2.4853 -3.5181  0.0263
 1016TIP3   OH224462   1.771   6.004  13.686 -0.5106  0.3598  0.8143
 1016TIP3    H124463   1.688   6.035  13.649 -0.6147  0.0105  0.7519
 1016TIP3    H224464   1.746   5.927  13.738 -0.0809 -0.3724 -0.0490
 1017TIP3   OH224465   3.982   2.098  16.868 -0.2269  0.3290 -0.0571
 1017TIP3    H124466   4.040   2.062  16.936 -1.0759 -1.2750 -0.1199
 1017TIP3    H224467   3.904   2.127  16.916 -0.5943 -0.2834 -0.2744
 1018TIP3   OH224468   6.234   5.124  17.001  0.0302  0.4044 -0.1110
 1018TIP3    H124469   6.301   5.143  17.067  0.8410  0.0150 -0.8034
 1018TIP3    H224470   6.213   5.209  16.962 -0.8877  0.7289  1.0276
 1019TIP3   OH224471   4.040   6.077  12.548  0.1567  0.5625 -0.2040
 1019TIP3    H124472   4.108   6.062  12.482 -0.5875 -0.8212 -0.7085
 1019TIP3    H224473   3.962   6.098  12.497 -0.1486  0.6582  0.2980
 1020TIP3   OH224474   0.166   0.214  11.052 -0.1708 -0.0635  0.6080
 1020TIP3    H124475   0.137   0.306  11.049 -0.1890 -0.0951 -0.5406
 1020TIP3    H224476   0.214   0.202  10.970  1.2469 -0.6296  1.4880
 1021TIP3   OH224477   5.834   4.620   5.854 -0.2309  0.3401 -0.1927
 1021TIP3    H124478   5.758   4.609   5.912 -0.0503 -0.0403 -0.0237
 1021TIP3    H224479   5.895   4.552   5.882 -0.6472 -0.6590 -1.6536
 1022TIP3   OH224480   5.815   1.309   3.186  0.1191  0.1244  0.1576
 1022TIP3    H124481   5.885   1.375   3.182 -0.5313  0.8304  0.2244
 1022TIP3    H224482   5.841   1.243   3.121  1.0676  0.1478  0.4921
 1023TIP3   OH224483   1.151   4.175   0.365 -0.1576 -0.3548 -0.2213
 1023TIP3    H124484   1.234   4.160   0.320  0.0971 -0.2950  0.2208
 1023TIP3    H224485   1.162   4.260   0.408 -1.4078  0.9309 -2.3000
 1024TIP3   OH224486   2.478   2.223   3.600  0.5691 -0.9086  0.2599
 1024TIP3    H124487   2.388   2.192   3.589  0.0473  0.1869  1.2310
 1024TIP3    H224488   2.517   2.212   3.513  0.3850 -3.9793  0.4692
 1025TIP3   OH224489   5.990   5.660  13.014 -0.0579 -0.1012 -0.4304
 1025TIP3    H124490   6.038   5.697  13.088 -0.4997 -0.0126 -0.1854
 1025TIP3    H224491   6.044   5.587  12.984 -0.4804 -0.9407  0.7707
 1026TIP3   OH224492   2.443   5.498  13.727 -0.2819 -0.0908  0.1000
 1026TIP3    H124493   2.514   5.435  13.742  1.1058  0.9243 -1.8346
 1026TIP3    H224494   2.412   5.478  13.639  0.0200  1.7545 -0.4525
 1027TIP3   OH224495   3.394   3.281  13.436 -0.2110  0.1649  0.4702
 1027TIP3    H124496   3.352   3.198  13.457  0.5120 -0.3489 -0.0439
 1027TIP3    H224497   3.474   3.281  13.488  0.1413  0.2051 -0.0595
 1028TIP3   OH224498   2.192   4.376  17.086 -0.1928 -0.3565 -0.6429
 1028TIP3    H124499   2.143   4.357  17.006  0.6505  0.6611 -1.4318
 1028TIP3    H224500   2.245   4.298  17.100  1.4290  0.3307 -2.4691
 1029TIP3   OH224501   1.610   3.947   4.091 -0.7699  0.3527  0.2438
 1029TIP3    H124502   1.628   4.023   4.036 -1.4840  0.1907 -0.2245
 1029TIP3    H224503   1.571   3.983   4.171 -2.3666  0.4084 -0.5218
 1030TIP3   OH224504   0.934   1.650  13.659  0.6728  0.7251 -0.5077
 1030TIP3    H124505   0.926   1.728  13.714 -1.6249 -0.6726  1.3302
 1030TIP3    H224506   0.844   1.628  13.636  1.4922  0.9838 -4.6737
 1031TIP3   OH224507   5.573   0.869  13.852  0.0851  0.4140 -0.0968
 1031TIP3    H124508   5.565   0.926  13.929 -0.0895 -1.0226  0.9877
 1031TIP3    H224509   5.529   0.917  13.782 -2.7438  0.3602  1.5049
 1032TIP3   OH224510   0.450   5.679  12.018  0.1425  0.2064  0.3598
 1032TIP3    H124511   0.375   5.726  11.984 -0.8478 -0.3536  1.6611
 1032TIP3    H224512   0.473   5.725  12.099 -0.2723 -0.9750  1.1757
 1033TIP3   OH224513   3.986   6.118  14.278 -0.0863  0.5016 -0.4136
 1033TIP3    H124514   4.056   6.100  14.216 -1.4855  0.2307 -1.9689
 1033TIP3    H224515   3.917   6.159  14.226 -1.2011  0.5328  1.0118
 1034TIP3   OH224516   0.987   3.173  11.858 -0.0371  0.0046 -0.4316
 1034TIP3    H124517   0.954   3.108  11.796 -1.4990 -0.8616  1.1727
 1034TIP3    H224518   1.045   3.123  11.916 -1.4987 -0.0524  1.0731
 1035TIP3   OH224519   0.152   1.675   3.348  0.0191 -0.2516  0.8201
 1035TIP3    H124520   0.149   1.607   3.281 -0.6984 -0.1452  0.7360
 1035TIP3    H224521   0.242   1.672   3.381 -0.1627 -1.6648  1.2505
 1036TIP3   OH224522   5.497   0.153  15.325  0.0144 -0.9898  0.0926
 1036TIP3    H124523   5.509   0.069  15.280 -0.5805 -0.6502 -0.7359
 1036TIP3    H224524   5.542   0.143  15.409  0.2020 -2.0301 -0.1252
 1037TIP3   OH224525   1.227   5.881   4.590 -0.8188 -0.2032 -0.3570
 1037TIP3    H124526   1.286   5.881   4.665 -0.5842  0.5462 -0.5275
 1037TIP3    H224527   1.144   5.848   4.624 -0.2735 -1.3906 -0.1504
 1038TIP3   OH224528   0.366   6.621  12.448 -0.5315  0.3212 -0.1326
 1038TIP3    H124529   0.458   6.605  12.424  0.4722  2.1256  2.1710
 1038TIP3    H224530   0.321   6.540  12.423  1.8182 -0.9566 -0.5661
 1039TIP3   OH224531   6.074   2.040   1.720  0.0597  0.0893 -0.4956
 1039TIP3    H124532   6.088   2.043   1.815 -1.3853  0.7862 -0.2777
 1039TIP3    H224533   6.111   2.122   1.687  0.1791  0.0410 -0.4830
 1040TIP3   OH224534   1.312   3.068  16.885  0.0545  0.6561  0.3215
 1040TIP3    H124535   1.274   3.151  16.858 -0.5623  0.5334  0.7910
 1040TIP3    H224536   1.390   3.091  16.934  0.7796  0.9051 -0.9107
 1041TIP3   OH224537   1.376   4.833  10.922  0.4248 -0.2111  0.8610
 1041TIP3    H124538   1.324   4.901  10.877 -2.5472 -2.6813  0.2219
 1041TIP3    H224539   1.460   4.832  10.876  0.0759  2.0901  0.0526
 1042TIP3   OH224540   5.033   5.233  11.872  0.0839  0.0725 -0.3604
 1042TIP3    H124541   4.994   5.175  11.806 -0.1437  0.1658 -0.3094
 1042TIP3    H224542   5.031   5.319  11.832  0.6902 -0.0006 -0.5514
 1043TIP3   OH224543   4.458   3.504  14.968 -0.3051  0.2206  0.1571
 1043TIP3    H124544   4.366   3.523  14.988 -0.6659 -1.1081 -0.1476
 1043TIP3    H224545   4.489   3.581  14.920 -1.0600  0.9627  0.8194
 1044TIP3   OH224546   2.160   5.029  15.771  0.3048  0.2893 -0.3425
 1044TIP3    H124547   2.182   5.113  15.811 -2.2467  0.7804  0.2200
 1044TIP3    H224548   2.145   5.049  15.679 -0.7432  0.5636 -0.1207
 1045TIP3   OH224549   5.025   0.503  16.455 -0.4573 -0.3169  0.3755
 1045TIP3    H124550   5.108   0.503  16.501 -0.1078 -0.4109 -0.2483
 1045TIP3    H224551   4.961   0.532  16.520  0.2418  0.9283  0.5219
 1046TIP3   OH224552   6.593   3.172  13.949  0.2771  0.5666 -0.4679
 1046TIP3    H124553   6.652   3.239  13.917  0.7690  0.1718 -0.4031
 1046TIP3    H224554   6.638   3.135  14.025  0.0814  0.0616 -0.5947
 1047TIP3   OH224555   0.569   6.205  16.686  0.2218 -0.5787 -0.1418
 1047TIP3    H124556   0.534   6.159  16.610  0.2830  0.1568 -0.6235
 1047TIP3    H224557   0.650   6.158  16.708  0.2191 -0.7721 -0.5498
 1048TIP3   OH224558   5.699   2.194  12.534  0.5148 -0.0300  0.1993
 1048TIP3    H124559   5.728   2.110  12.498 -3.2640 -0.1762 -3.2909
 1048TIP3    H224560   5.724   2.258  12.467 -0.3837  0.9362  0.7605
 1049TIP3   OH224561   5.556   1.663  14.837  0.9171  0.1805  0.2857
 1049TIP3    H124562   5.541   1.645  14.745 -0.2073 -0.3772  0.5610
 1049TIP3    H224563   5.640   1.620  14.856  0.9013 -0.1481 -0.3510
 1050TIP3   OH224564   5.318   6.726   0.663  0.1132  0.5030 -0.0103
 1050TIP3    H124565   5.403   6.727   0.708  0.8476 -0.5271 -1.3008
 1050TIP3    H224566   5.293   6.818   0.657  0.1827  0.6976  2.0907
 1051TIP3   OH224567   5.684   2.150   5.277 -0.1520  0.1371  0.4366
 1051TIP3    H124568   5.746   2.206   5.230  0.8714  0.2487  1.8242
 1051TIP3    H224569   5.731   2.067   5.288 -0.6648 -0.1368  0.5706
 1052TIP3   OH224570   1.240   0.268  13.197  0.0849  0.1809 -0.4152
 1052TIP3    H124571   1.301   0.199  13.172 -0.4410  0.0488 -1.3899
 1052TIP3    H224572   1.290   0.325  13.255  0.8436 -0.4276 -0.4597
 1053TIP3   OH224573   5.309   5.240  16.231 -0.0767  0.4862  0.2923
 1053TIP3    H124574   5.217   5.241  16.260 -0.2550  2.2300 -0.2583
 1053TIP3    H224575   5.320   5.321  16.182  1.4665 -0.2463 -0.6350
 1054TIP3   OH224576   5.575   6.216   6.073  0.0931 -0.2890  0.0877
 1054TIP3    H124577   5.655   6.165   6.083  0.2910  0.3964  2.6253
 1054TIP3    H224578   5.509   6.153   6.043  1.4138 -0.9550 -1.5449
 1055TIP3   OH224579   5.362   4.678   1.535  0.1173  0.4589  0.3783
 1055TIP3    H124580   5.353   4.587   1.506  1.5903  0.9012 -1.7075
 1055TIP3    H224581   5.278   4.698   1.576 -1.1957 -1.0738 -1.3688
 1056TIP3   OH224582   2.044   3.561   5.453  0.1513  0.5505  0.2080
 1056TIP3    H124583   2.064   3.472   5.423  1.1134  0.9465 -0.3806
 1056TIP3    H224584   2.006   3.604   5.377 -2.0562  0.1427  0.9990
 1057TIP3   OH224585   6.500   5.526   3.562  0.1855 -0.1191  0.3837
 1057TIP3    H124586   6.587   5.563   3.548  0.1487 -0.5463 -1.2351
 1057TIP3    H224587   6.451   5.595   3.607  0.9984  0.6128  0.1710
 1058TIP3   OH224588   5.849   0.875  13.650  0.0513 -0.4513 -0.3995
 1058TIP3    H124589   5.872   0.888  13.742  0.4016 -1.3746 -0.3474
 1058TIP3    H224590   5.928   0.900  13.602  0.3257 -1.2128 -0.3637
 1059TIP3   OH224591   5.353   2.899  14.074 -0.6167 -0.2701 -0.3212
 1059TIP3    H124592   5.374   2.871  14.163 -1.9068 -0.2038  0.0256
 1059TIP3    H224593   5.307   2.982  14.084 -2.1780 -1.0047 -0.8932
 1060TIP3   OH224594   4.380   0.954  11.858 -0.8894 -0.5048 -0.3362
 1060TIP3    H124595   4.366   1.001  11.775 -0.6759  0.8373  0.3635
 1060TIP3    H224596   4.292   0.940  11.892 -0.9346 -0.1193 -0.2882
 1061TIP3   OH224597   6.665   4.297  13.152 -0.0172  0.2551 -0.2420
 1061TIP3    H124598   6.607   4.237  13.105 -2.8130  1.3584  1.5950
 1061TIP3    H224599   6.645   4.283  13.244  2.0877  1.3284  0.4465
 1062TIP3   OH224600   0.541   2.379  13.981  0.2520 -0.2932 -0.4360
 1062TIP3    H124601   0.447   2.395  13.970  0.0977 -0.4006  0.5521
 1062TIP3    H224602   0.582   2.418  13.904 -0.8402 -3.2505 -2.7041
 1063TIP3   OH224603   6.294   3.501   1.336  0.5750  0.5413  0.3553
 1063TIP3    H124604   6.233   3.571   1.310 -0.6326 -0.2396  0.9952
 1063TIP3    H224605   6.366   3.509   1.274 -0.6920  0.8030 -1.1518
 1064TIP3   OH224606   4.576   1.058  12.434 -0.1753 -0.1466 -0.0246
 1064TIP3    H124607   4.489   1.037  12.402  0.0828 -1.8091  0.2908
 1064TIP3    H224608   4.616   0.973  12.455  1.8924  0.4744 -1.1440
 1065TIP3   OH224609   5.137   0.536   2.562 -0.5788 -0.3045  0.1942
 1065TIP3    H124610   5.132   0.471   2.492 -2.1082 -0.8007  0.7359
 1065TIP3    H224611   5.136   0.620   2.517  0.6552 -0.6188 -0.4709
 1066TIP3   OH224612   0.896   4.633   3.180  0.2406  0.2610 -0.1812
 1066TIP3    H124613   0.990   4.635   3.166  0.1143 -1.0796 -1.4297
 1066TIP3    H224614   0.860   4.595   3.100 -1.3812  0.8145  0.2296
 1067TIP3   OH224615   3.140   4.425  13.736 -0.0942 -0.2005  0.1945
 1067TIP3    H124616   3.054   4.448  13.699 -0.9881 -2.1747  0.9320
 1067TIP3    H224617   3.136   4.456  13.826  0.9822  1.9689 -0.4323
 1068TIP3   OH224618   4.702   4.986  13.615 -0.8116 -0.2065  0.5224
 1068TIP3    H124619   4.610   4.978  13.589 -0.8289 -0.0172  0.5220
 1068TIP3    H224620   4.712   4.924  13.687 -0.6119 -1.1875 -0.3270
 1069TIP3   OH224621   4.522   0.879   1.185  0.9728 -0.8699 -0.0773
 1069TIP3    H124622   4.518   0.901   1.092 -0.4811  0.1057  0.1781
 1069TIP3    H224623   4.529   0.964   1.229  4.3562 -1.3965  0.6628
 1070TIP3   OH224624   2.522   5.888   2.250 -0.3044  0.0926  0.1221
 1070TIP3    H124625   2.581   5.830   2.201  0.4598 -1.3541  2.6065
 1070TIP3    H224626   2.542   5.976   2.217  0.8382 -0.7127 -1.4437
 1071TIP3   OH224627   0.935   5.719  12.846 -0.0447  0.5220 -0.2575
 1071TIP3    H124628   0.961   5.634  12.882 -0.9947 -0.1767 -1.1772
 1071TIP3    H224629   1.010   5.746  12.793 -0.3584 -0.5213 -1.2627
 1072TIP3   OH224630   2.003   6.395   0.269  0.2395  0.8387  0.1963
 1072TIP3    H124631   2.059   6.366   0.197 -1.0997 -0.7825 -0.2568
 1072TIP3    H224632   2.021   6.334   0.340 -1.6472 -0.4045 -0.3117
 1073TIP3   OH224633   6.774   4.886   2.748 -0.3405  0.1317  0.2275
 1073TIP3    H124634   6.679   4.870   2.741 -0.3694  1.0465 -3.5521
 1073TIP3    H224635   6.812   4.834   2.677  1.9934  0.1254  1.3975
 1074TIP3   OH224636   1.831   6.263  14.384  0.2484  0.3087 -0.7438
 1074TIP3    H124637   1.775   6.204  14.434  1.0789  0.1590  0.0397
 1074TIP3    H224638   1.919   6.228  14.395  0.4432  0.1245 -2.5452
 1075TIP3   OH224639   4.023   5.055  12.443  0.3000  0.0418  0.2350
 1075TIP3    H124640   4.065   4.970  12.456  0.2278 -0.0044  0.1680
 1075TIP3    H224641   4.066   5.113  12.506  3.5973  1.1179 -2.6926
 1076TIP3   OH224642   4.663   0.277  12.668 -0.2038 -0.1350 -0.0004
 1076TIP3    H124643   4.656   0.216  12.741  0.7214  0.2190  0.4004
 1076TIP3    H224644   4.632   0.360  12.704 -2.1900 -0.4959 -0.7594
 1077TIP3   OH224645   6.009   0.740   2.241 -0.6779  0.3180 -0.1241
 1077TIP3    H124646   6.060   0.809   2.199 -0.3812  0.9969  1.3080
 1077TIP3    H224647   5.976   0.779   2.322  0.5092 -1.5437  1.3621
 1078TIP3   OH224648   4.872   1.023  14.907  0.7843 -0.0967 -0.0119
 1078TIP3    H124649   4.809   1.004  14.837  0.4865  1.4459 -0.1890
 1078TIP3    H224650   4.845   1.107  14.942  1.8115 -0.1587  0.9939
 1079TIP3   OH224651   1.683   5.194   4.434 -0.4294  0.0216  0.6412
 1079TIP3    H124652   1.629   5.261   4.393  0.6365  0.9373  0.6774
 1079TIP3    H224653   1.721   5.238   4.511 -0.3017 -0.8564  1.0953
 1080TIP3   OH224654   0.060   6.750   3.679 -0.4083 -0.2182  0.0675
 1080TIP3    H124655  -0.005   6.814   3.709 -0.0781  0.1154  0.0746
 1080TIP3    H224656   0.125   6.802   3.633 -0.0884 -0.5379  0.1533
 1081TIP3   OH224657   0.537   5.638   0.409 -0.2059  0.1575  0.0294
 1081TIP3    H124658   0.552   5.712   0.468  0.6034  1.4881 -1.7225
 1081TIP3    H224659   0.625   5.609   0.384 -0.4310  1.3571 -2.4712
 1082TIP3   OH224660   5.065   5.180   2.462  0.0938  0.0581 -0.2350
 1082TIP3    H124661   5.021   5.136   2.389  0.1957 -2.8471  1.3071
 1082TIP3    H224662   5.009   5.255   2.483 -1.9209 -1.1598 -0.9577
 1083TIP3   OH224663   4.479   5.166  13.065  0.2789  0.2108 -0.1061
 1083TIP3    H124664   4.388   5.137  13.056  0.3034  0.3654 -0.9567
 1083TIP3    H224665   4.511   5.121  13.143 -0.2293 -0.6575 -0.3758
 1084TIP3   OH224666   5.617   3.964   3.020 -0.3264 -0.3318 -0.8523
 1084TIP3    H124667   5.678   3.895   3.044  2.5843  2.3951  0.4334
 1084TIP3    H224668   5.576   3.990   3.103  2.4225  2.6214 -0.2032
 1085TIP3   OH224669   1.622   1.473  12.412 -0.1716  0.4698 -0.0240
 1085TIP3    H124670   1.695   1.534  12.410 -0.2934  0.6491 -3.3436
 1085TIP3    H224671   1.559   1.507  12.348 -2.0791 -0.9909  0.9503
 1086TIP3   OH224672   0.195   6.600  13.874  0.4646 -0.4087 -0.1599
 1086TIP3    H124673   0.153   6.526  13.829 -0.2265  0.7816 -1.5274
 1086TIP3    H224674   0.289   6.583  13.864  0.3303 -0.3626 -1.7707
 1087TIP3   OH224675   0.920   4.887  15.930  0.1353  0.2189  0.0648
 1087TIP3    H124676   0.846   4.948  15.936 -1.0954 -1.2912  1.0750
 1087TIP3    H224677   0.882   4.807  15.893  1.4112 -0.3885  0.0160
 1088TIP3   OH224678   2.066   3.198   6.133  0.5903 -0.4781 -0.3967
 1088TIP3    H124679   2.128   3.207   6.206  0.3251  0.8267 -0.3048
 1088TIP3    H224680   2.069   3.283   6.089 -0.0224 -0.9088 -1.2914
 1089TIP3   OH224681   2.418   1.680  14.386 -0.1756  0.0160  1.0199
 1089TIP3    H124682   2.364   1.673  14.307 -0.5434  1.5718  1.0990
 1089TIP3    H224683   2.386   1.759  14.429  0.5382 -0.3953  2.3456
 1090TIP3   OH224684   3.297   5.322   5.359  0.1626 -0.0857  0.2187
 1090TIP3    H124685   3.317   5.355   5.271 -2.5143 -1.9257 -1.2031
 1090TIP3    H224686   3.203   5.307   5.358  0.1308 -0.6067  3.2874
 1091TIP3   OH224687   3.262   5.890  13.961 -0.2913 -0.0742 -0.1926
 1091TIP3    H124688   3.171   5.886  13.932 -0.5026 -2.3713  0.5254
 1091TIP3    H224689   3.314   5.873  13.882 -0.4881  0.9792 -0.5545
 1092TIP3   OH224690   1.500   3.646  14.721  0.3231 -0.6581 -0.0972
 1092TIP3    H124691   1.587   3.607  14.728  0.1244 -1.4987 -1.7337
 1092TIP3    H224692   1.440   3.571  14.722 -0.1256 -0.3997 -2.4132
 1093TIP3   OH224693   2.753   4.011  13.895 -0.0204  0.0402  0.5026
 1093TIP3    H124694   2.679   4.045  13.844  0.3299  1.2880  0.7820
 1093TIP3    H224695   2.830   4.033  13.842  0.1978 -0.7071  0.5035
 1094TIP3   OH224696   2.738   2.502  14.826 -0.5960 -0.7423  0.1851
 1094TIP3    H124697   2.689   2.420  14.837 -1.6384 -0.3590 -1.2130
 1094TIP3    H224698   2.671   2.568  14.809  0.1485  0.6553  2.3018
 1095TIP3   OH224699   1.552   5.848  15.385  0.5220  0.2391  0.1046
 1095TIP3    H124700   1.603   5.926  15.405  3.3666 -0.6311 -2.8897
 1095TIP3    H224701   1.613   5.775  15.400 -0.5587 -1.0588 -1.4184
 1096TIP3   OH224702   3.467   1.421  12.116  0.0583  0.3136 -0.6750
 1096TIP3    H124703   3.376   1.434  12.091 -0.1971  0.6540  0.3632
 1096TIP3    H224704   3.495   1.344  12.066 -1.2240 -0.6421  0.0126
 1097TIP3   OH224705   1.620   4.080  14.880 -0.4581 -0.1067  0.6221
 1097TIP3    H124706   1.542   4.082  14.936  0.2244 -0.9181  1.6242
 1097TIP3    H224707   1.658   3.993  14.894 -0.5923 -0.5794 -1.5754
 1098TIP3   OH224708   6.471   1.752  15.775 -0.5917 -0.0817 -0.6602
 1098TIP3    H124709   6.477   1.662  15.744  0.5871 -0.8896  1.6803
 1098TIP3    H224710   6.549   1.795  15.740  1.0501 -1.1419  1.4339
 1099TIP3   OH224711   6.605   0.119   2.908 -0.2279  0.6269  0.7081
 1099TIP3    H124712   6.535   0.062   2.939 -0.8914  0.7358 -0.5444
 1099TIP3    H224713   6.647   0.151   2.988  0.4753 -1.9505  1.4883
 1100TIP3   OH224714   3.258   5.216  10.211  0.2240  0.1102 -0.5188
 1100TIP3    H124715   3.343   5.236  10.172  0.2091 -0.2863 -0.7546
 1100TIP3    H224716   3.196   5.221  10.138  0.3466 -1.6860 -0.7695
 1101TIP3   OH224717   0.228   5.957   4.876  0.5520 -0.3582  0.0849
 1101TIP3    H124718   0.253   6.034   4.825  1.7806 -0.5202  0.3986
 1101TIP3    H224719   0.303   5.941   4.933  0.4581 -1.9598 -0.1885
 1102TIP3   OH224720   2.203   3.227   2.951  0.4443 -0.0879 -0.3233
 1102TIP3    H124721   2.224   3.139   2.920 -0.3692 -0.1957 -0.5953
 1102TIP3    H224722   2.240   3.231   3.040  0.1321 -0.8479 -0.1515
 1103TIP3   OH224723   4.139   0.438  16.461  0.8763 -0.1265 -0.2041
 1103TIP3    H124724   4.196   0.513  16.445  2.6365 -1.2487  0.4992
 1103TIP3    H224725   4.144   0.387  16.380 -3.0689  2.0598 -2.1152
 1104TIP3   OH224726   5.307   1.787   3.217  0.1379  0.4527  1.0747
 1104TIP3    H124727   5.287   1.878   3.195  0.4310  0.4144  0.6423
 1104TIP3    H224728   5.232   1.738   3.183 -1.3939  0.7745  3.6867
 1105TIP3   OH224729   0.977   2.532  16.944 -0.3421  0.0172  0.6137
 1105TIP3    H124730   0.896   2.510  16.990 -0.5169 -1.3524 -0.2933
 1105TIP3    H224731   0.965   2.496  16.856  0.4665  1.5344 -0.1554
 1106TIP3   OH224732   1.132   6.651   0.796  0.2123  0.7998  0.4147
 1106TIP3    H124733   1.135   6.740   0.761 -0.7468  0.2086 -1.2439
 1106TIP3    H224734   1.039   6.628   0.796  0.5297 -0.5256 -0.0207
 1107TIP3   OH224735   0.962   5.340  14.642  0.0706  0.1589  0.0541
 1107TIP3    H124736   1.050   5.309  14.662  0.3880 -1.4095 -3.1695
 1107TIP3    H224737   0.971   5.387  14.559 -1.9873  0.9532  0.2107
 1108TIP3   OH224738   4.064   5.263  13.990 -0.3547 -0.0350 -0.5444
 1108TIP3    H124739   4.138   5.271  14.051 -2.6533  0.3246  2.4371
 1108TIP3    H224740   4.006   5.336  14.014 -2.2293 -1.0006 -1.9287
 1109TIP3   OH224741   0.486   5.939  10.652  0.2842  0.4029  0.0971
 1109TIP3    H124742   0.495   5.859  10.600  0.3407  1.3930 -1.4852
 1109TIP3    H224743   0.571   5.982  10.645 -0.4173  1.7007 -1.0184
 1110TIP3   OH224744   1.351   1.026   4.196 -0.3075  0.0266 -0.0703
 1110TIP3    H124745   1.256   1.030   4.190 -0.2500  0.1982 -0.9790
 1110TIP3    H224746   1.381   1.113   4.170  0.0710  0.2352  1.0114
 1111TIP3   OH224747   0.423   2.893  10.600 -0.6228 -0.5954 -0.2320
 1111TIP3    H124748   0.473   2.853  10.672 -1.0057 -1.1647 -0.2757
 1111TIP3    H224749   0.484   2.895  10.527 -0.5550 -0.9952 -0.1914
 1112TIP3   OH224750   4.275   4.167  11.140 -0.3200  0.1131  0.4250
 1112TIP3    H124751   4.367   4.143  11.133  0.0398  1.4438  0.4235
 1112TIP3    H224752   4.228   4.089  11.110  0.7804 -0.7290  0.8160
 1113TIP3   OH224753   1.281   5.440   3.448 -0.4863 -0.6043  0.2772
 1113TIP3    H124754   1.239   5.458   3.532  1.0688 -0.3709  1.0310
 1113TIP3    H224755   1.339   5.515   3.434  1.3509 -1.9531  0.3682
 1114TIP3   OH224756   3.719   0.095  14.922 -0.5262  0.2762 -0.0626
 1114TIP3    H124757   3.730   0.039  14.999  2.2760  0.6384 -0.0797
 1114TIP3    H224758   3.699   0.033  14.851  2.4727 -0.8705 -0.0748
 1115TIP3   OH224759   3.097   5.894  10.377  0.6880 -0.6525  0.0215
 1115TIP3    H124760   3.133   5.816  10.418  0.1373 -0.9032  0.0249
 1115TIP3    H224761   3.030   5.925  10.437 -0.5107 -1.3301 -0.9150
 1116TIP3   OH224762   1.098   6.117  14.187  0.4501 -0.0242 -0.0145
 1116TIP3    H124763   1.038   6.094  14.258  0.1195  0.9650  0.0435
 1116TIP3    H224764   1.087   6.211  14.176  1.0089 -0.0518 -0.9162
 1117TIP3   OH224765   2.257   4.943   2.445 -0.6664  0.2362 -0.3389
 1117TIP3    H124766   2.269   4.870   2.506 -0.5467  1.1970  0.8327
 1117TIP3    H224767   2.344   4.981   2.436 -0.4747 -0.4801 -1.9353
 1118TIP3   OH224768   0.074   3.121  11.260  0.0439  0.6691  0.2642
 1118TIP3    H124769   0.155   3.167  11.238  0.0491  0.2205 -0.7146
 1118TIP3    H224770   0.020   3.129  11.181  0.2108 -1.3342 -0.1039
 1119TIP3   OH224771   5.928   3.296  16.519  0.5270 -0.4424 -0.2485
 1119TIP3    H124772   5.873   3.251  16.454  0.1079  1.1902 -1.0875
 1119TIP3    H224773   5.887   3.382  16.528  1.7955  0.0880  0.6405
 1120TIP3   OH224774   1.536   4.503   1.676 -0.3031  0.4421  0.3531
 1120TIP3    H124775   1.477   4.428   1.680  0.1312  0.0831  0.0595
 1120TIP3    H224776   1.572   4.510   1.764 -0.7919  0.6821  0.5440
 1121TIP3   OH224777   0.281   1.948   3.204 -0.1520  0.3823  0.0696
 1121TIP3    H124778   0.326   1.929   3.286  0.5821 -2.2335 -0.8277
 1121TIP3    H224779   0.316   1.883   3.142 -1.8595  1.2038 -1.8812
 1122TIP3   OH224780   0.634   2.119  11.954 -0.3072  0.0405 -0.5314
 1122TIP3    H124781   0.687   2.042  11.933  0.2652  0.3089 -0.0934
 1122TIP3    H224782   0.654   2.137  12.046 -1.9304 -0.4540 -0.0580
 1123TIP3   OH224783   5.397   0.874  14.446  1.3210 -0.6034 -0.1713
 1123TIP3    H124784   5.366   0.954  14.488 -0.4167 -0.7806 -1.0181
 1123TIP3    H224785   5.409   0.812  14.517  1.5744  0.0704  0.3775
 1124TIP3   OH224786   2.130   5.294   5.716 -0.1139  0.0329 -0.0872
 1124TIP3    H124787   2.160   5.204   5.727 -0.1053  0.2034  1.4370
 1124TIP3    H224788   2.159   5.339   5.795 -3.3601  0.5040  0.9445
 1125TIP3   OH224789   2.115   6.686   5.938  0.6308 -0.4735  0.4339
 1125TIP3    H124790   2.092   6.633   5.861 -1.1354  0.9350 -0.0801
 1125TIP3    H224791   2.166   6.626   5.993 -0.3114 -2.3693 -0.6202
 1126TIP3   OH224792   3.380   4.410   6.161  0.3010 -0.5475 -0.1787
 1126TIP3    H124793   3.440   4.473   6.201 -2.1423  2.2497 -0.5610
 1126TIP3    H224794   3.319   4.388   6.231 -0.2631 -0.6399 -0.6962
 1127TIP3   OH224795   5.686   5.809  11.175 -0.0804 -0.3666  0.2637
 1127TIP3    H124796   5.608   5.765  11.211  0.2370  0.1746  1.6894
 1127TIP3    H224797   5.759   5.770  11.223  0.4437 -0.2138 -0.4075
 1128TIP3   OH224798   5.996   5.376   0.143  0.4454  0.2118 -0.0941
 1128TIP3    H124799   6.063   5.417   0.088  3.0667 -0.2036  2.5868
 1128TIP3    H224800   5.985   5.436   0.217  0.9012 -1.6369  1.5420
 1129TIP3   OH224801   4.077   3.029  11.758  0.1116 -0.4031 -0.7079
 1129TIP3    H124802   4.082   3.047  11.852 -1.9685 -1.2773 -0.3788
 1129TIP3    H224803   4.161   3.061  11.724  0.4315  1.0795  1.2305
 1130TIP3   OH224804   5.535   5.474  13.499  0.6030  0.6011  0.1133
 1130TIP3    H124805   5.592   5.397  13.506  0.3238  0.4015  0.2248
 1130TIP3    H224806   5.529   5.491  13.405  0.1904  0.1233  0.0503
 1131TIP3   OH224807   3.674   4.277   2.074 -0.0935  0.7599 -0.4153
 1131TIP3    H124808   3.598   4.333   2.061 -1.3313 -0.2869  1.7613
 1131TIP3    H224809   3.679   4.264   2.168  1.0774 -1.5168 -0.7103
 1132TIP3   OH224810   6.613   3.417  16.958  0.3833  0.0887  0.2337
 1132TIP3    H124811   6.648   3.328  16.965 -0.9812 -0.3941  1.6878
 1132TIP3    H224812   6.581   3.423  16.868 -0.2927 -1.2389  0.3567
 1133TIP3   OH224813   3.787   2.696  16.304 -0.5840  0.0311 -0.3986
 1133TIP3    H124814   3.786   2.789  16.325 -0.6560 -0.0747  0.0715
 1133TIP3    H224815   3.696   2.676  16.281 -0.8538 -0.2198  0.8352
 1134TIP3   OH224816   3.389   5.090   5.432  0.2485  1.2138  0.3845
 1134TIP3    H124817   3.347   5.174   5.415 -1.1052  0.3304 -0.7976
 1134TIP3    H224818   3.322   5.025   5.415  1.8350 -0.2241 -0.7517
 1135TIP3   OH224819   6.409   0.090  14.686  0.7540 -0.0292  0.3415
 1135TIP3    H124820   6.433   0.178  14.657  0.5339 -0.7537 -2.2666
 1135TIP3    H224821   6.340   0.104  14.751  0.2839  1.7002 -0.4807
 1136TIP3   OH224822   2.487   1.334  15.311  0.0254  0.3439  0.4518
 1136TIP3    H124823   2.428   1.259  15.300 -0.8467  0.9009  1.1741
 1136TIP3    H224824   2.457   1.398  15.246  1.4330 -0.3002 -0.8916
 1137TIP3   OH224825   4.599   1.327  14.844  0.2625  0.5175  0.0125
 1137TIP3    H124826   4.579   1.392  14.777  1.0525  0.7751  0.0172
 1137TIP3    H224827   4.535   1.343  14.913 -1.7374 -0.9137 -1.4051
 1138TIP3   OH224828   3.982   6.251  15.546  0.0447  0.6666 -0.3885
 1138TIP3    H124829   3.978   6.304  15.626 -0.3961  0.5436 -0.3252
 1138TIP3    H224830   4.044   6.182  15.567 -1.5930 -0.5833  0.6154
 1139TIP3   OH224831   6.539   2.220   1.757 -0.2216  0.3602  0.7557
 1139TIP3    H124832   6.583   2.305   1.765  1.6060 -0.4039 -0.4460
 1139TIP3    H224833   6.532   2.188   1.847  0.7689  0.9786  1.0650
 1140TIP3   OH224834   4.994   1.465  15.124  1.1323  0.1971  0.0584
 1140TIP3    H124835   4.978   1.398  15.190  1.3929  0.7112  0.6478
 1140TIP3    H224836   5.073   1.510  15.153  1.4139  0.2461 -0.7538
 1141TIP3   OH224837   2.078   3.926   1.550 -0.0340 -0.5784 -0.2848
 1141TIP3    H124838   2.121   3.884   1.625  1.1606 -0.1892 -0.7304
 1141TIP3    H224839   2.143   3.988   1.517 -1.8130  1.8602  0.5008
 1142TIP3   OH224840   1.976   0.313   3.956  0.4817 -0.4982  0.1720
 1142TIP3    H124841   1.990   0.339   4.047 -0.6774 -0.3916  0.3354
 1142TIP3    H224842   2.014   0.226   3.950 -1.7876 -1.6744  1.5205
 1143TIP3   OH224843   5.248   0.918  11.364  0.0434  0.4536  0.1376
 1143TIP3    H124844   5.216   0.962  11.286 -1.5742 -0.1954  0.4124
 1143TIP3    H224845   5.238   0.824  11.345 -1.2097  0.2943  1.4336
 1144TIP3   OH224846   3.088   0.087  17.090  0.1965 -0.0356  0.3280
 1144TIP3    H124847   3.025   0.143  17.134 -1.1453  0.1546 -1.6935
 1144TIP3    H224848   3.158   0.146  17.062 -0.1515  0.2549  0.0721
 1145TIP3   OH224849   3.923   6.111   1.915  0.1492  0.1356  0.2196
 1145TIP3    H124850   3.937   6.149   1.828  1.0504 -1.0502 -0.2015
 1145TIP3    H224851   4.012   6.103   1.951 -0.0005 -1.2987  0.3555
 1146TIP3   OH224852   2.238   5.246  15.921  0.1536 -0.3776 -0.2810
 1146TIP3    H124853   2.204   5.315  15.978 -0.1181 -1.1400  0.4940
 1146TIP3    H224854   2.333   5.257  15.924  0.3427 -1.9091  2.3364
 1147TIP3   OH224855   0.086   4.034   2.684  1.0207  0.2581 -0.1567
 1147TIP3    H124856   0.107   4.090   2.609  1.6495  0.0191 -0.1578
 1147TIP3    H224857   0.068   3.948   2.646 -0.3870  0.5474 -0.1999
 1148TIP3   OH224858   1.088   5.445  13.211 -0.1857 -0.2035 -0.2091
 1148TIP3    H124859   1.117   5.355  13.225  0.6654 -0.3573 -2.5040
 1148TIP3    H224860   1.009   5.436  13.158 -0.2192  0.3887 -0.2588
 1149TIP3   OH224861   1.523   2.981   3.601 -0.2085  0.6716  1.2584
 1149TIP3    H124862   1.586   2.925   3.646 -1.1665 -0.2599  1.4630
 1149TIP3    H224863   1.531   2.958   3.508  1.2409  2.0712  0.9906
 1150TIP3   OH224864   6.025   5.404   3.477 -0.0049 -0.0651  0.3156
 1150TIP3    H124865   6.005   5.423   3.569  0.5987  0.0765  0.4198
 1150TIP3    H224866   5.954   5.445   3.428  0.2573  0.8147  0.6560
 1151TIP3   OH224867   1.203   2.819  14.196 -0.8359 -0.5156  0.1120
 1151TIP3    H124868   1.251   2.895  14.163  0.2789 -1.1538  0.2263
 1151TIP3    H224869   1.149   2.855  14.267 -1.3434  0.3970 -0.7059
 1152TIP3   OH224870   1.759   0.151  16.603  0.3719  0.2799  0.0374
 1152TIP3    H124871   1.806   0.079  16.562 -0.2427  0.0770 -0.3243
 1152TIP3    H224872   1.707   0.190  16.532 -1.4372 -0.6692  0.7647
 1153TIP3   OH224873   3.553   5.347  12.460  0.0850  0.4283 -0.1838
 1153TIP3    H124874   3.609   5.397  12.400  0.3785 -0.3422 -0.5722
 1153TIP3    H224875   3.477   5.322  12.407  0.0313  0.3051 -0.0496
 1154TIP3   OH224876   1.986   1.434  16.134  0.3665  0.6890  0.4358
 1154TIP3    H124877   2.022   1.505  16.188  0.8268 -0.8257  2.1874
 1154TIP3    H224878   1.897   1.422  16.165  1.3749 -1.8302  2.7347
 1155TIP3   OH224879   3.355   1.995  15.232  0.7087 -0.2374 -0.0325
 1155TIP3    H124880   3.274   2.044  15.250 -1.0658 -2.3841 -1.5298
 1155TIP3    H224881   3.394   2.039  15.157  0.1439 -0.0237 -0.2037
 1156TIP3   OH224882   1.893   4.930  13.934  0.5770 -0.4860  0.3665
 1156TIP3    H124883   1.805   4.896  13.915  0.7652 -0.4923 -0.5190
 1156TIP3    H224884   1.952   4.874  13.884  1.1236 -0.7155  1.2493
 1157TIP3   OH224885   3.533   0.155   4.844 -0.1313  0.3469  0.3830
 1157TIP3    H124886   3.485   0.237   4.838 -2.5038 -1.0338 -0.7662
 1157TIP3    H224887   3.621   0.176   4.811 -1.0820  2.1008 -1.2057
 1158TIP3   OH224888   1.126   3.836   0.825  0.5741 -0.0779  0.0044
 1158TIP3    H124889   1.162   3.901   0.885 -0.0385 -0.1998  0.5206
 1158TIP3    H224890   1.040   3.814   0.862  0.5788 -0.8474 -0.4082
 1159TIP3   OH224891   5.509   1.987   4.916 -0.0029  0.0336 -0.1720
 1159TIP3    H124892   5.435   1.990   4.856 -0.5909  0.7859  0.5752
 1159TIP3    H224893   5.581   1.953   4.863 -1.3308 -2.7217 -0.4232
 1160TIP3   OH224894   5.331   1.472  16.395  0.4617 -0.4372 -0.2120
 1160TIP3    H124895   5.271   1.477  16.469 -0.0019  0.9438 -0.6400
 1160TIP3    H224896   5.350   1.379  16.384 -0.2928 -0.7412  0.9669
 1161TIP3   OH224897   2.207   4.484  12.658 -0.3977 -0.4169  0.2376
 1161TIP3    H124898   2.137   4.548  12.665  0.7406  0.8178  0.9321
 1161TIP3    H224899   2.237   4.490  12.567  1.1870  1.7581  0.8243
 1162TIP3   OH224900   2.479   4.526  14.496 -0.2932 -0.1755 -0.3097
 1162TIP3    H124901   2.527   4.473  14.560  1.1621 -0.2668 -1.4196
 1162TIP3    H224902   2.522   4.611  14.499  0.6435 -0.5426 -2.0134
 1163TIP3   OH224903   2.848   6.467   1.726  0.2789 -0.5649  0.1016
 1163TIP3    H124904   2.846   6.511   1.641  0.8124 -1.7624 -0.5551
 1163TIP3    H224905   2.905   6.392   1.712 -0.2071 -1.1764  1.3316
 1164TIP3   OH224906   4.355   4.540  14.555 -0.0069  0.3281 -0.3310
 1164TIP3    H124907   4.439   4.508  14.589 -0.1442  0.6905  0.3669
 1164TIP3    H224908   4.302   4.460  14.545 -0.1879  0.2534  0.9596
 1165TIP3   OH224909   3.375   0.774   0.345 -0.0156  0.7076  0.3450
 1165TIP3    H124910   3.412   0.863   0.344  0.6978  0.4356  1.4238
 1165TIP3    H224911   3.387   0.743   0.255 -1.1346  2.0272 -0.3144
 1166TIP3   OH224912   5.468   2.824  11.235  0.1787  0.2985 -0.2511
 1166TIP3    H124913   5.380   2.860  11.224  0.7786  2.5516  1.4986
 1166TIP3    H224914   5.476   2.809  11.329  1.0961 -1.5714 -0.5825
 1167TIP3   OH224915   0.053   1.070  12.231 -0.2572 -0.1789  0.3279
 1167TIP3    H124916   0.058   1.067  12.326 -1.7440  1.2127  0.4940
 1167TIP3    H224917   0.012   0.987  12.206  0.7544 -0.8395  0.8313
 1168TIP3   OH224918   4.445   3.710  14.714  0.0565  0.1900  0.3088
 1168TIP3    H124919   4.499   3.754  14.649 -0.7876 -0.1155 -0.6380
 1168TIP3    H224920   4.443   3.770  14.788  1.5528  0.2661  0.3192
 1169TIP3   OH224921   1.063   5.979   5.967  0.0673  0.0683  0.2184
 1169TIP3    H124922   1.028   5.975   6.056 -1.5064 -2.0265 -0.4191
 1169TIP3    H224923   1.108   5.895   5.955  1.9847  1.1048 -0.3630
 1170TIP3   OH224924   2.836   4.531  14.413 -0.7642 -0.0293 -0.3354
 1170TIP3    H124925   2.882   4.458  14.370  0.7425  0.5916  0.1718
 1170TIP3    H224926   2.831   4.598  14.346  1.8861  1.0693  0.4155
 1171TIP3   OH224927   1.159   1.578   4.850  0.5042  1.2947 -0.1208
 1171TIP3    H124928   1.204   1.640   4.907  1.0546 -0.8610  1.9632
 1171TIP3    H224929   1.082   1.551   4.900 -0.8105  1.7008 -1.8233
 1172TIP3   OH224930   4.831   4.916   1.264  0.4241  0.4760  0.4695
 1172TIP3    H124931   4.781   4.986   1.222  0.2008  0.0718  0.0528
 1172TIP3    H224932   4.918   4.922   1.225 -0.0597 -0.5409 -0.8307
 1173TIP3   OH224933   1.524   6.174   2.506  0.1499  0.2683 -0.3996
 1173TIP3    H124934   1.602   6.228   2.490  0.9259 -1.2072 -1.9368
 1173TIP3    H224935   1.536   6.097   2.450 -1.8705 -0.5637  0.2097
 1174TIP3   OH224936   4.574   3.090  14.447 -0.5231 -0.6105  0.6674
 1174TIP3    H124937   4.491   3.114  14.489 -0.9965 -0.3758 -0.3849
 1174TIP3    H224938   4.632   3.069  14.520 -1.2929 -0.0932  1.4445
 1175TIP3   OH224939   0.857   2.156  16.025 -0.1628 -0.2341  0.7473
 1175TIP3    H124940   0.913   2.140  16.101  0.4094 -0.4711  0.2793
 1175TIP3    H224941   0.863   2.076  15.973  0.9378  0.6013 -0.4759
 1176TIP3   OH224942   6.083   1.679   4.370 -0.3623  0.3623  0.0853
 1176TIP3    H124943   6.020   1.726   4.316  0.4565 -0.2646 -1.4795
 1176TIP3    H224944   6.056   1.588   4.365 -1.0658  0.4319  1.8920
 1177TIP3   OH224945   6.648   2.937   4.400  0.3322 -0.0266  0.3456
 1177TIP3    H124946   6.595   2.862   4.377 -1.5071  1.7157 -1.4736
 1177TIP3    H224947   6.697   2.959   4.320  0.7942  0.7360  0.8142
 1178TIP3   OH224948   2.495   3.682   5.933 -0.0188  0.3722  0.1639
 1178TIP3    H124949   2.405   3.686   5.964  0.0946  1.0679  0.4205
 1178TIP3    H224950   2.509   3.767   5.890 -0.1879 -0.5546 -1.8528
 1179TIP3   OH224951   1.640   5.998  17.059  0.1380  0.2232  0.0610
 1179TIP3    H124952   1.730   5.979  17.087 -0.9743 -1.3732  2.8985
 1179TIP3    H224953   1.650   6.028  16.968  3.7485  2.4542  0.9550
 1180TIP3   OH224954   1.287   6.220  14.411  0.3705  0.5318 -0.0601
 1180TIP3    H124955   1.333   6.136  14.409  0.9875  0.8660 -0.0880
 1180TIP3    H224956   1.264   6.237  14.320  2.1038  1.3861 -0.3937
 1181TIP3   OH224957   4.683   1.042  14.417 -0.3391 -0.0279  0.2374
 1181TIP3    H124958   4.698   1.070  14.507  0.4361 -0.5220  0.2758
 1181TIP3    H224959   4.675   1.124  14.368  0.1670  0.2548  0.6128
 1182TIP3   OH224960   5.471   0.469  14.801 -0.0157  0.1037 -0.1624
 1182TIP3    H124961   5.376   0.468  14.796  0.0099 -1.0557 -0.8841
 1182TIP3    H224962   5.493   0.551  14.845 -1.3495  0.2599  0.2240
 1183TIP3   OH224963   5.118   1.022   2.517 -0.5552  0.0144  0.4563
 1183TIP3    H124964   5.170   1.028   2.597  1.2790  0.1614 -0.6942
 1183TIP3    H224965   5.081   1.109   2.506 -0.1381  0.2262  0.7006
 1184TIP3   OH224966   2.394   4.548   3.566  0.2967  0.0661  0.7480
 1184TIP3    H124967   2.429   4.610   3.630  3.4692 -1.2303  0.4720
 1184TIP3    H224968   2.339   4.601   3.508 -1.3887  1.5636  3.4969
 1185TIP3   OH224969   3.306   3.632  14.016  0.1205  0.2659 -0.8049
 1185TIP3    H124970   3.341   3.699  13.957  1.3613  1.8392  1.5553
 1185TIP3    H224971   3.380   3.609  14.073 -1.6367  0.9326  1.9534
 1186TIP3   OH224972   4.505   3.576  16.324  0.0778 -0.1845 -0.2530
 1186TIP3    H124973   4.554   3.638  16.378  1.7933 -0.3402 -1.5369
 1186TIP3    H224974   4.550   3.577  16.240 -0.8752 -1.9440 -0.8421
 1187TIP3   OH224975   3.553   6.311  14.872  0.2207  0.0209 -0.3396
 1187TIP3    H124976   3.483   6.375  14.880  0.0492 -0.2461  0.4134
 1187TIP3    H224977   3.583   6.319  14.782  0.3678  1.3380 -0.2069
 1188TIP3   OH224978   6.122   2.280   5.825  0.6292  0.3284  0.1666
 1188TIP3    H124979   6.123   2.305   5.917 -3.0759  0.1915  0.3647
 1188TIP3    H224980   6.030   2.280   5.800  1.5023  1.6322 -3.9370
 1189TIP3   OH224981   4.591   1.255   5.892  0.0493 -0.3065 -0.2513
 1189TIP3    H124982   4.586   1.334   5.947 -3.2126 -0.5160 -0.0182
 1189TIP3    H224983   4.619   1.186   5.952 -0.2651  0.0945  0.3706
 1190TIP3   OH224984   4.325   1.868  12.994  0.2761  0.0150  0.4071
 1190TIP3    H124985   4.370   1.909  13.068  1.1871 -2.1913  1.1847
 1190TIP3    H224986   4.235   1.897  13.001  0.2701 -0.3625  2.6116
 1191TIP3   OH224987   1.322   1.593  10.668 -0.1597  0.2847  0.0183
 1191TIP3    H124988   1.235   1.620  10.638 -1.6083 -0.3370  3.2703
 1191TIP3    H224989   1.327   1.500  10.645 -0.2373  0.3817 -0.4047
 1192TIP3   OH224990   1.228   0.515   5.384 -0.6928  0.1054 -0.1174
 1192TIP3    H124991   1.291   0.497   5.314  0.3236  1.9269  0.2621
 1192TIP3    H224992   1.142   0.499   5.344 -0.1285  0.8628 -1.7088
 1193TIP3   OH224993   3.730   2.125  15.851 -0.2082  0.0149 -0.2916
 1193TIP3    H124994   3.656   2.074  15.885 -0.2703 -1.1375 -2.0600
 1193TIP3    H224995   3.695   2.214  15.842 -0.9836 -0.2421  0.0712
 1194TIP3   OH224996   5.586   5.697   5.889 -0.0779  0.4596 -0.1544
 1194TIP3    H124997   5.670   5.691   5.843 -0.1976  1.5297 -0.5270
 1194TIP3    H224998   5.610   5.705   5.981  0.1870 -0.4915 -0.1245
 1195TIP3   OH224999   1.888   6.065  13.109  0.4529 -0.2909  0.6206
 1195TIP3    H125000   1.971   6.110  13.123  0.3302  0.4817 -0.9263
 1195TIP3    H225001   1.825   6.116  13.160  0.5111  0.6540 -0.2226
 1196TIP3   OH225002   2.658   5.759   4.287  0.3611 -0.1699  0.6062
 1196TIP3    H125003   2.606   5.821   4.339 -0.5209 -1.6933  1.6090
 1196TIP3    H225004   2.699   5.702   4.352  1.0166 -0.7614 -0.2962
 1197TIP3   OH225005   3.988   5.916  14.959  0.0937 -0.4991  0.2437
 1197TIP3    H125006   3.896   5.943  14.961  0.2455  0.0010  0.9094
 1197TIP3    H225007   4.026   5.967  14.887 -0.1850 -0.8504 -0.1597
 1198TIP3   OH225008   2.979   6.312   2.982  0.0880 -0.6357  0.3050
 1198TIP3    H125009   3.040   6.242   2.956  1.4490  0.2691  0.9301
 1198TIP3    H225010   2.983   6.375   2.910 -2.1172 -1.7347 -0.8663
 1199TIP3   OH225011   5.504   1.460   2.450  0.0143 -0.5506 -0.0045
 1199TIP3    H125012   5.531   1.520   2.520 -0.2966 -0.6856  0.2360
 1199TIP3    H225013   5.558   1.484   2.375 -0.4599  0.3795 -0.0643
 1200TIP3   OH225014   6.090   5.356  11.273  0.2202  0.0426  0.0213
 1200TIP3    H125015   6.099   5.262  11.287 -2.1108  0.2235  5.3730
 1200TIP3    H225016   6.177   5.391  11.291  0.7620 -0.9874 -0.5201
 1201TIP3   OH225017   4.988   5.618   2.352  0.2657  0.9640  0.1749
 1201TIP3    H125018   5.038   5.537   2.353 -0.0295  0.6691 -2.2251
 1201TIP3    H225019   4.896   5.589   2.353  0.1589  1.2662 -0.5285
 1202TIP3   OH225020   1.208   4.931  14.987 -0.0714 -0.1469 -0.9504
 1202TIP3    H125021   1.219   4.986  14.910  1.3851  0.4161 -0.3773
 1202TIP3    H225022   1.127   4.883  14.971  0.0881  0.1041 -2.7281
 1203TIP3   OH225023   0.355   1.174  12.118  0.1537 -0.4087 -0.5234
 1203TIP3    H125024   0.383   1.176  12.209  1.4200  1.9850 -0.8980
 1203TIP3    H225025   0.265   1.206  12.120  0.0754 -0.6447 -0.0933
 1204TIP3   OH225026   4.588   6.490   0.489 -0.9793 -0.3784  0.2718
 1204TIP3    H125027   4.495   6.493   0.465 -0.7085  2.5984 -0.7186
 1204TIP3    H225028   4.603   6.571   0.538  1.2842 -0.3363 -0.3717
 1205TIP3   OH225029   0.933   1.890   2.552  0.1591  0.4019 -0.1461
 1205TIP3    H125030   0.842   1.863   2.562  0.1806 -0.4083 -1.8335
 1205TIP3    H225031   0.968   1.834   2.482  1.9065  0.8153  0.3372
 1206TIP3   OH225032   4.487   3.612   3.691 -0.3151 -0.7040 -0.0376
 1206TIP3    H125033   4.469   3.706   3.683 -1.3763 -0.8757  0.1420
 1206TIP3    H225034   4.437   3.572   3.620 -1.5102 -1.2948  1.0895
 1207TIP3   OH225035   1.163   6.545   5.579  0.2601  0.3542  0.3520
 1207TIP3    H125036   1.194   6.507   5.497 -1.4453 -0.1334 -0.1101
 1207TIP3    H225037   1.112   6.474   5.620 -0.1367  1.0612  1.1032
 1208TIP3   OH225038   3.231   6.406  15.867  0.3034  0.4628 -0.0641
 1208TIP3    H125039   3.164   6.357  15.914  0.3688  0.5396  0.1083
 1208TIP3    H225040   3.235   6.364  15.781  0.5664 -0.0189  0.1802
 1209TIP3   OH225041   4.395   5.416  13.573 -0.1953 -0.2441 -0.3410
 1209TIP3    H125042   4.425   5.367  13.650 -2.1096  1.1265  1.3646
 1209TIP3    H225043   4.343   5.353  13.523  0.4335 -0.9434 -0.1345
 1210TIP3   OH225044   6.268   2.680  16.811 -0.6972  0.3655 -0.3096
 1210TIP3    H125045   6.240   2.635  16.731  0.5517 -0.3716 -0.3556
 1210TIP3    H225046   6.203   2.655  16.876 -0.6746 -0.5907 -0.6303
 1211TIP3   OH225047   2.134   2.028   5.670  0.3155  0.0278  0.0427
 1211TIP3    H125048   2.106   1.979   5.593 -0.1223  0.1375  0.1312
 1211TIP3    H225049   2.054   2.039   5.722  0.8823 -1.4761  1.3077
 1212TIP3   OH225050   5.493   0.154   4.662 -0.3799  0.0550  0.2018
 1212TIP3    H125051   5.487   0.089   4.592  0.2633  0.6242 -0.3959
 1212TIP3    H225052   5.537   0.228   4.622  0.8778  0.0371  1.4734
 1213TIP3   OH225053   5.056   6.784   3.533 -0.4348  0.1996 -0.2257
 1213TIP3    H125054   5.055   6.769   3.439 -0.4089  1.5436 -0.4706
 1213TIP3    H225055   5.146   6.767   3.560 -0.0459  1.3510 -0.7465
 1214TIP3   OH225056   3.408   5.010   3.458 -0.0588 -0.3589  0.4103
 1214TIP3    H125057   3.341   5.030   3.523 -0.3771  0.8175 -0.2380
 1214TIP3    H225058   3.397   4.917   3.439 -1.0680 -0.3281  0.7999
 1215TIP3   OH225059   3.669   0.723  10.870  0.9483  0.0137 -0.1006
 1215TIP3    H125060   3.729   0.794  10.846  0.0727  1.1993  1.0389
 1215TIP3    H225061   3.723   0.645  10.873  2.0956  0.7588 -0.6909
 1216TIP3   OH225062   5.266   4.796  16.777 -0.4036  0.0992  0.3800
 1216TIP3    H125063   5.182   4.768  16.813  0.1973 -0.8536  1.0813
 1216TIP3    H225064   5.312   4.837  16.851 -0.9724  2.3987 -0.4452
 1217TIP3   OH225065   2.331   0.660   3.633 -0.3199  0.2018 -0.7952
 1217TIP3    H125066   2.400   0.726   3.621  0.3920 -0.3195  0.3287
 1217TIP3    H225067   2.288   0.655   3.547  2.1807 -0.7321 -2.1021
 1218TIP3   OH225068   4.572   6.385   0.931  0.1764 -0.1111 -0.3810
 1218TIP3    H125069   4.597   6.446   1.001 -0.0392 -0.6523  0.1769
 1218TIP3    H225070   4.535   6.441   0.862 -1.3846  0.2885  0.7174
 1219TIP3   OH225071   0.122   6.446  14.401 -0.6114 -0.0439  0.2380
 1219TIP3    H125072   0.168   6.456  14.318 -2.1599 -0.7921 -0.7671
 1219TIP3    H225073   0.031   6.469  14.381 -0.7947  0.9679  2.0361
 1220TIP3   OH225074   0.701   4.719   1.504  0.0378  0.0102  0.4378
 1220TIP3    H125075   0.784   4.766   1.510  0.6252 -1.1817  3.6400
 1220TIP3    H225076   0.634   4.786   1.518  0.3384  0.9998 -2.2715
 1221TIP3   OH225077   3.191   0.943   0.798 -0.0038 -0.0536 -0.3678
 1221TIP3    H125078   3.282   0.953   0.828  0.3001  0.8078 -1.5341
 1221TIP3    H225079   3.155   0.874   0.855  1.1381  0.1316  0.6263
 1222TIP3   OH225080   2.507   0.217  12.493 -0.1055  0.2953  0.4712
 1222TIP3    H125081   2.596   0.246  12.515 -0.0034 -0.3830  0.9736
 1222TIP3    H225082   2.488   0.148  12.557 -0.7431 -0.0125 -0.0442
 1223TIP3   OH225083   6.518   0.697  14.997  0.3880 -0.3684 -0.2381
 1223TIP3    H125084   6.608   0.724  14.977  0.8933 -2.0696 -0.3786
 1223TIP3    H225085   6.487   0.657  14.916  0.0707 -1.2463  0.3135
 1224TIP3   OH225086   4.922   2.127  14.059 -0.2810 -0.3850  0.0420
 1224TIP3    H125087   5.005   2.172  14.076 -0.7970  0.0269  1.6304
 1224TIP3    H225088   4.855   2.194  14.075 -0.9756 -1.1683  0.4832
 1225TIP3   OH225089   0.495   5.527   1.282  0.1444 -0.5579  0.1775
 1225TIP3    H125090   0.524   5.500   1.194  0.9808 -2.7725  1.0617
 1225TIP3    H225091   0.564   5.587   1.312  0.6651 -0.9979 -0.1089
 1226TIP3   OH225092   4.737   3.971   2.468  0.5020  0.8619  0.5470
 1226TIP3    H125093   4.787   3.889   2.475 -0.3971  0.4345  2.6277
 1226TIP3    H225094   4.757   4.003   2.380  2.8220 -0.3259  0.5579
 1227TIP3   OH225095   2.051   4.900   5.209  0.3246 -0.2277 -0.0547
 1227TIP3    H125096   2.092   4.845   5.276  0.4817 -1.4454 -1.1275
 1227TIP3    H225097   1.958   4.879   5.215  0.1827  0.4930  0.5050
 1228TIP3   OH225098   6.544   3.719  15.253 -0.0353 -0.0862 -0.0966
 1228TIP3    H125099   6.605   3.752  15.186  1.0807  0.6600  1.2304
 1228TIP3    H225100   6.589   3.642  15.289 -1.1080 -1.1194 -0.8682
 1229TIP3   OH225101   6.761   4.502  12.608 -0.9800  0.1419 -0.1348
 1229TIP3    H125102   6.720   4.475  12.690  0.8123  0.1569  0.8243
 1229TIP3    H225103   6.750   4.426  12.550  1.5559 -1.7520  1.6132
 1230TIP3   OH225104   5.549   2.641  14.746 -0.1498 -0.0388 -0.1288
 1230TIP3    H125105   5.498   2.642  14.827 -0.0504 -0.5307 -0.0568
 1230TIP3    H225106   5.532   2.726  14.706 -0.7696 -0.0769  0.0501
 1231TIP3   OH225107   6.741   2.728  12.345  0.0913  0.0685  0.1811
 1231TIP3    H125108   6.655   2.709  12.305  0.8514 -0.1294 -1.4380
 1231TIP3    H225109   6.723   2.799  12.406 -0.6838  2.4327 -2.6094
 1232TIP3   OH225110   1.036   5.075   0.520  0.3430 -0.2954  0.0471
 1232TIP3    H125111   1.123   5.089   0.482  0.4884 -0.1921  0.4087
 1232TIP3    H225112   1.024   4.980   0.519  1.0949 -0.4383  1.3520
 1233TIP3   OH225113   5.058   1.973  10.842  0.8504  0.2099  0.5246
 1233TIP3    H125114   4.994   1.915  10.801 -1.8427  1.4145  2.6828
 1233TIP3    H225115   5.135   1.917  10.857 -0.0849 -1.6367 -1.0933
 1234TIP3   OH225116   0.985   5.436   0.133 -0.6914 -0.0537  0.1309
 1234TIP3    H125117   0.947   5.361   0.179  0.9752  0.0051  1.7184
 1234TIP3    H225118   1.072   5.406   0.108  0.3065  1.5493  1.4646
 1235TIP3   OH225119   5.016   4.645  15.614 -0.3747 -0.0616 -0.0901
 1235TIP3    H125120   4.950   4.646  15.683 -1.7590  1.7794 -1.3489
 1235TIP3    H225121   4.972   4.680  15.537  1.6179 -0.3191 -1.4347
 1236TIP3   OH225122   3.925   0.627  11.986 -0.2351  0.6300 -0.4168
 1236TIP3    H125123   3.965   0.540  11.980  0.1037  0.8240 -1.0601
 1236TIP3    H225124   3.841   0.612  12.029  0.1031  0.0784  0.0761
 1237TIP3   OH225125   0.784   3.727   5.963 -0.1358 -0.4045 -0.6432
 1237TIP3    H125126   0.715   3.680   5.917  0.5291 -2.0209 -0.0646
 1237TIP3    H225127   0.737   3.789   6.019 -1.0601 -0.5841 -1.1978
 1238TIP3   OH225128   0.464   0.193  12.569 -0.2793  0.2402 -0.3830
 1238TIP3    H125129   0.411   0.163  12.496  0.0932 -0.4880 -0.3640
 1238TIP3    H225130   0.533   0.246  12.529 -1.8909  2.5428 -0.2857
 1239TIP3   OH225131   3.721   1.665  13.465  0.5022  0.0701 -0.2480
 1239TIP3    H125132   3.804   1.708  13.486  0.4530  0.6688 -1.2294
 1239TIP3    H225133   3.688   1.635  13.550  1.8799 -0.4932  0.1194
 1240TIP3   OH225134   2.918   5.111   0.234 -0.1827  0.4088 -0.2012
 1240TIP3    H125135   2.869   5.148   0.308 -0.1024  1.0667 -0.4693
 1240TIP3    H225136   2.975   5.046   0.275 -1.8512 -0.9875  0.0095
 1241TIP3   OH225137   2.423   5.204   4.231 -0.2187  0.5159  0.4571
 1241TIP3    H125138   2.422   5.293   4.266 -0.5959  0.9634 -0.6411
 1241TIP3    H225139   2.335   5.191   4.195  0.1438  0.0930 -0.3107
 1242TIP3   OH225140   6.516   1.277   1.018 -0.0755 -0.1053 -0.2010
 1242TIP3    H125141   6.531   1.368   1.044 -0.3739  0.0194 -0.4589
 1242TIP3    H225142   6.571   1.266   0.940 -0.8492  0.1762 -0.7986
 1243TIP3   OH225143   4.273   4.336  15.259 -0.4648  1.0332 -0.0238
 1243TIP3    H125144   4.242   4.254  15.218  0.8023  0.5571 -0.0618
 1243TIP3    H225145   4.200   4.397  15.248 -0.7989  0.4125 -1.5101
 1244TIP3   OH225146   6.447   6.484   5.692 -0.3231  0.2096  0.4531
 1244TIP3    H125147   6.513   6.515   5.754  0.0475  1.2603 -0.4405
 1244TIP3    H225148   6.412   6.564   5.652 -0.5450 -0.4416 -0.6919
 1245TIP3   OH225149   5.830   4.873  15.206  0.1480  0.1192  0.2862
 1245TIP3    H125150   5.904   4.932  15.222 -0.0814  0.2932  0.7442
 1245TIP3    H225151   5.793   4.858  15.293 -0.2939 -0.0425  0.0735
 1246TIP3   OH225152   0.408   1.374   0.590 -0.5136 -0.1290  0.6386
 1246TIP3    H125153   0.404   1.279   0.584 -1.7853  0.0028 -1.7947
 1246TIP3    H225154   0.499   1.393   0.612 -0.1990 -1.8683  0.9843
 1247TIP3   OH225155   3.660   5.457  15.366 -0.2832 -0.0487 -0.1524
 1247TIP3    H125156   3.630   5.381  15.416  0.6369  0.1111  0.6657
 1247TIP3    H225157   3.686   5.520  15.432 -1.2958  1.1172 -0.8121
 1248TIP3   OH225158   1.064   1.428  12.371  0.3629 -0.1895 -0.3964
 1248TIP3    H125159   1.004   1.490  12.414  0.4316 -2.4897  3.3706
 1248TIP3    H225160   1.018   1.344  12.375  3.6730 -2.0856  2.7535
 1249TIP3   OH225161   1.559   5.916   2.362  0.0796 -0.3561 -0.0367
 1249TIP3    H125162   1.606   5.834   2.360 -0.3397 -0.6229  0.6241
 1249TIP3    H225163   1.470   5.894   2.335 -0.3334 -0.3488  1.2287
 1250TIP3   OH225164   5.836   0.348  11.554  0.0023  0.3126 -0.6480
 1250TIP3    H125165   5.760   0.293  11.533 -1.5816  2.1924 -0.1778
 1250TIP3    H225166   5.872   0.310  11.634 -1.5129  0.3231  0.0879
 1251TIP3   OH225167   1.065   0.279  14.735 -0.2472 -0.2129 -0.0763
 1251TIP3    H125168   0.987   0.333  14.718 -0.0130  0.3823  0.6534
 1251TIP3    H225169   1.139   0.339  14.721  0.0001 -0.1648  1.2503
 1252TIP3   OH225170   6.626   5.301   0.932 -0.0823  0.3594  0.1365
 1252TIP3    H125171   6.558   5.367   0.941  0.0322  0.5926 -0.5705
 1252TIP3    H225172   6.579   5.220   0.912 -0.2378  0.1598  1.2518
 1253TIP3   OH225173   1.384   1.872  10.660  0.3271  0.3093 -0.1489
 1253TIP3    H125174   1.332   1.794  10.639 -0.8411  1.6019 -2.4915
 1253TIP3    H225175   1.329   1.922  10.720 -0.8169  1.2081 -1.8602
 1254TIP3   OH225176   2.930   1.857  11.499  0.1008 -0.0173  0.4540
 1254TIP3    H125177   2.956   1.779  11.449 -1.2277 -0.0261 -0.2688
 1254TIP3    H225178   2.863   1.826  11.559 -0.5272  0.5741  0.0761
 1255TIP3   OH225179   2.727   3.608   3.969  0.1163  0.0283 -0.1076
 1255TIP3    H125180   2.732   3.512   3.973  1.3193 -0.0263 -1.8240
 1255TIP3    H225181   2.692   3.627   3.882  0.7089  1.1576 -0.1219
 1256TIP3   OH225182   3.527   4.238   1.125 -0.3345  0.1341  0.2854
 1256TIP3    H125183   3.498   4.148   1.141 -1.0821  0.4450  0.7403
 1256TIP3    H225184   3.616   4.230   1.091 -0.3367 -0.7651  0.4912
 1257TIP3   OH225185   3.681   4.501  16.669 -0.4276 -0.4909 -0.6141
 1257TIP3    H125186   3.776   4.498  16.670 -0.4050 -0.4011 -1.6836
 1257TIP3    H225187   3.658   4.525  16.580 -1.4254  0.5832 -0.1057
 1258TIP3   OH225188   0.473   6.775   1.066  0.0133  0.7613  0.0980
 1258TIP3    H125189   0.466   6.850   1.124 -2.2921 -0.1031  1.0578
 1258TIP3    H225190   0.420   6.707   1.107 -2.3425  0.2807 -3.2777
 1259TIP3   OH225191   1.761   6.414  11.073 -0.0585 -0.4041 -0.5694
 1259TIP3    H125192   1.799   6.416  11.161 -1.7124  0.1049  0.1580
 1259TIP3    H225193   1.837   6.405  11.015  1.1951  0.7468  0.8150
 1260TIP3   OH225194   2.981   0.455  12.742  0.1646 -0.6991  0.0182
 1260TIP3    H125195   2.947   0.502  12.666 -0.0171 -1.1211 -0.1694
 1260TIP3    H225196   3.054   0.403  12.706 -0.0230 -1.0214  0.1003
 1261TIP3   OH225197   3.646   6.639  15.027  0.2895  0.6977 -0.1528
 1261TIP3    H125198   3.654   6.615  14.935  1.3680  1.2944 -0.2237
 1261TIP3    H225199   3.703   6.578  15.073 -2.7708 -1.9018  0.5857
 1262TIP3   OH225200   4.963   1.018   5.673 -0.1786  0.2694  0.1244
 1262TIP3    H125201   4.922   0.945   5.719 -0.9777  0.4513 -0.2798
 1262TIP3    H225202   4.893   1.083   5.663 -0.1757  0.0597 -1.7097
 1263TIP3   OH225203   2.026   3.688  11.205 -0.0350  0.5616 -0.0339
 1263TIP3    H125204   2.003   3.626  11.135 -2.4681  1.6732 -0.3258
 1263TIP3    H225205   1.992   3.647  11.284 -1.7864  1.5216 -0.2478
 1264TIP3   OH225206   2.600   0.862   2.143  0.5849  0.0637 -0.3762
 1264TIP3    H125207   2.660   0.914   2.089  3.1055  0.0006  2.0996
 1264TIP3    H225208   2.623   0.771   2.124 -1.0456 -0.0879 -1.7755
 1265TIP3   OH225209   6.556   2.271  13.506  0.0737 -0.1373  0.5295
 1265TIP3    H125210   6.596   2.293  13.590  0.9059 -0.8360  0.3443
 1265TIP3    H225211   6.493   2.341  13.489  0.4323  0.4049  1.3788
 1266TIP3   OH225212   3.512   5.749  12.040  0.1360  0.1998 -0.0758
 1266TIP3    H125213   3.438   5.778  11.987  0.5272  2.0491  0.3170
 1266TIP3    H225214   3.480   5.747  12.129  0.7612  1.9389  0.2243
 1267TIP3   OH225215   3.283   6.624  13.697 -0.0714 -0.3804 -1.2232
 1267TIP3    H125216   3.272   6.631  13.792  1.5108  2.8440 -1.1353
 1267TIP3    H225217   3.196   6.643  13.661 -0.3351 -0.0035 -0.4108
 1268TIP3   OH225218   2.072   0.563  13.706 -0.4309  0.0896 -0.2890
 1268TIP3    H125219   2.161   0.545  13.735 -0.9134  0.0411  1.2766
 1268TIP3    H225220   2.082   0.618  13.628  0.9537  0.5251  0.1746
 1269TIP3   OH225221   2.152   1.435   1.295  0.5733  0.8169 -0.2825
 1269TIP3    H125222   2.180   1.480   1.375  1.2393 -0.1471  0.0469
 1269TIP3    H225223   2.182   1.492   1.224 -0.0498  1.6936  0.1447
 1270TIP3   OH225224   4.791   3.458  14.493 -0.1505  0.0987 -0.5220
 1270TIP3    H125225   4.714   3.401  14.483 -1.5705  1.9654 -0.8838
 1270TIP3    H225226   4.852   3.407  14.546 -1.6014 -1.4860 -0.2738
 1271TIP3   OH225227   0.361   6.066  14.121 -0.3294  0.3672 -0.1129
 1271TIP3    H125228   0.319   5.980  14.123 -0.6382  0.5204  0.4458
 1271TIP3    H225229   0.291   6.126  14.148  0.4816  0.5164  1.8681
 1272TIP3   OH225230   4.117   6.735  13.943 -0.3935  0.2679  0.2551
 1272TIP3    H125231   4.024   6.751  13.959 -0.3023  2.6758 -1.1119
 1272TIP3    H225232   4.154   6.723  14.030 -1.7985  0.4625  0.9193
 1273TIP3   OH225233   5.527   1.121   0.495  0.3423 -0.1523  0.3805
 1273TIP3    H125234   5.519   1.212   0.466  2.8095 -0.0550 -0.1941
 1273TIP3    H225235   5.466   1.114   0.568 -0.8379  1.5790 -0.3555
 1274TIP3   OH225236   5.515   4.852   1.379 -0.5617 -0.3959 -0.3447
 1274TIP3    H125237   5.484   4.789   1.444 -2.8269 -1.1429 -1.9922
 1274TIP3    H225238   5.443   4.915   1.370  0.6791  1.0632 -0.4575
 1275TIP3   OH225239   5.616   1.429   4.647 -0.0283 -1.2077  0.1469
 1275TIP3    H125240   5.710   1.435   4.665 -0.2503 -0.3484  1.1089
 1275TIP3    H225241   5.597   1.335   4.652  0.4308 -1.2526  1.9657
 1276TIP3   OH225242   3.249   1.239  14.482  0.0161 -0.1314  0.7162
 1276TIP3    H125243   3.305   1.210  14.410 -1.0586 -1.2626  0.2946
 1276TIP3    H225244   3.172   1.277  14.439 -0.1286  0.2301  1.2794
 1277TIP3   OH225245   0.153   5.972  16.694  0.7818 -0.4211 -0.0893
 1277TIP3    H125246   0.154   5.959  16.789  0.6415  0.0741 -0.0163
 1277TIP3    H225247   0.228   5.923  16.662  0.5707 -0.9619  0.2281
 1278TIP3   OH225248   2.405   6.105  11.705  0.1132 -0.0755 -0.3726
 1278TIP3    H125249   2.339   6.041  11.679 -1.1512  0.6102  1.0143
 1278TIP3    H225250   2.486   6.054  11.714 -0.7663 -1.4012  0.2674
 1279TIP3   OH225251   2.441   0.791   3.075 -0.0215 -0.1307 -0.7020
 1279TIP3    H125252   2.359   0.839   3.087  0.6144  0.9406 -0.5764
 1279TIP3    H225253   2.418   0.700   3.097 -0.7688  0.4254  1.0424
 1280TIP3   OH225254   4.521   2.993   4.155  0.6111 -0.3703  0.6076
 1280TIP3    H125255   4.555   3.052   4.088  0.3963  0.3570  1.1294
 1280TIP3    H225256   4.599   2.961   4.200  0.8306 -1.6842 -0.6431
 1281TIP3   OH225257   5.613   3.631   1.067  0.3985  0.0162  0.0421
 1281TIP3    H125258   5.669   3.558   1.093 -1.4542 -0.8558  1.9459
 1281TIP3    H225259   5.533   3.620   1.120 -1.3876  1.4347 -2.1647
 1282TIP3   OH225260   6.668   0.996   5.332 -0.0301  0.0341  0.7679
 1282TIP3    H125261   6.746   1.025   5.379  0.1172 -1.0465  1.2115
 1282TIP3    H225262   6.645   0.913   5.373 -1.3823  0.3036  0.5991
 1283TIP3   OH225263   4.366   5.037   1.695  0.1434 -0.4232 -0.1029
 1283TIP3    H125264   4.277   5.043   1.730  0.5197  0.9405  0.6814
 1283TIP3    H225265   4.372   5.109   1.632  1.1622  0.4583  0.9728
 1284TIP3   OH225266   0.402   6.305  11.814 -0.3950  0.1608  0.2318
 1284TIP3    H125267   0.329   6.244  11.810 -0.3228  0.0042  1.0558
 1284TIP3    H225268   0.372   6.383  11.768 -0.6333 -0.3517 -0.4831
 1285TIP3   OH225269   6.060   3.088  17.182  0.3517 -0.0423  0.0679
 1285TIP3    H125270   6.009   3.088  17.263 -0.1799  1.7620 -0.2158
 1285TIP3    H225271   5.994   3.094  17.112  0.8827  1.3054 -0.3462
 1286TIP3   OH225272   3.081   3.980  13.128  0.5911 -0.1301 -0.0516
 1286TIP3    H125273   3.173   3.957  13.145  0.1288 -1.6497  0.5606
 1286TIP3    H225274   3.068   4.062  13.174  0.7507 -1.6283  2.8677
 1287TIP3   OH225275   1.626   1.800  14.563  0.1014  0.4195  0.2847
 1287TIP3    H125276   1.685   1.756  14.502 -2.6843  0.4729 -2.6764
 1287TIP3    H225277   1.615   1.888  14.528 -1.5465  0.4766  0.8343
 1288TIP3   OH225278   1.595   4.201   2.933  0.3184  0.6355 -0.0481
 1288TIP3    H125279   1.573   4.271   2.871 -0.5785  1.0997  0.7710
 1288TIP3    H225280   1.517   4.192   2.988  0.7064 -0.4945  0.3420
 1289TIP3   OH225281   1.950   5.244  15.004 -0.3682  0.2854 -0.1158
 1289TIP3    H125282   1.995   5.222  15.085  1.0390  0.1362 -0.9070
 1289TIP3    H225283   1.924   5.160  14.967 -1.2292  0.3652  0.2771
 1290TIP3   OH225284   4.636   0.349   1.713  0.1867 -0.1905 -0.4480
 1290TIP3    H125285   4.568   0.321   1.652 -0.4690  0.2910  0.0593
 1290TIP3    H225286   4.676   0.267   1.743 -0.6105 -0.5090 -0.2412
 1291TIP3   OH225287   3.147   2.286   1.760  0.2029 -0.3293  0.3025
 1291TIP3    H125288   3.223   2.232   1.741  0.6200  0.0567  0.8168
 1291TIP3    H225289   3.135   2.278   1.855  2.4493  3.1370  1.1018
 1292TIP3   OH225290   3.815   3.911  15.796  0.4268 -0.3301 -0.1575
 1292TIP3    H125291   3.786   3.957  15.717  0.4637  1.0839  0.6130
 1292TIP3    H225292   3.805   3.975  15.866  1.5954 -1.1248  0.7863
 1293TIP3   OH225293   4.839   1.797   2.982  0.1773 -0.4598  0.2101
 1293TIP3    H125294   4.828   1.858   2.909 -0.3211  0.0870  0.7327
 1293TIP3    H225295   4.750   1.772   3.007  0.3444 -0.6526  0.6229
 1294TIP3   OH225296   4.163   2.683   2.419  0.1979 -0.3205  0.2688
 1294TIP3    H125297   4.239   2.708   2.366 -0.0120 -1.1621 -0.4608
 1294TIP3    H225298   4.106   2.760   2.416  1.0576  0.3552  0.9103
 1295TIP3   OH225299   4.394   6.199   6.208  0.0263  0.9107  0.1304
 1295TIP3    H125300   4.406   6.110   6.238  0.7114  1.0091  0.1528
 1295TIP3    H225301   4.309   6.226   6.245 -0.1784  0.2772  0.1200
 1296TIP3   OH225302   0.752   2.451  17.117  0.2327  0.1660  0.1743
 1296TIP3    H125303   0.693   2.379  17.136  0.7866 -0.3217  0.0713
 1296TIP3    H225304   0.703   2.530  17.142 -0.3619 -0.2437  0.3097
 1297TIP3   OH225305   0.062   6.509  15.635 -0.2080 -0.2634 -0.8325
 1297TIP3    H125306   0.005   6.504  15.558 -0.1075  0.1896 -0.9354
 1297TIP3    H225307   0.071   6.418  15.664 -0.7772 -0.3643 -0.9673
 1298TIP3   OH225308   6.288   4.760  16.531 -0.0844 -0.2029  0.8921
 1298TIP3    H125309   6.264   4.786  16.620 -1.6636  2.2788 -0.1432
 1298TIP3    H225310   6.382   4.776  16.525 -0.0279 -0.0631  2.0097
 1299TIP3   OH225311   6.668   4.100   1.698 -0.0055  0.2354  0.6810
 1299TIP3    H125312   6.606   4.149   1.752  0.0238  0.5768  0.4092
 1299TIP3    H225313   6.745   4.156   1.692 -0.1651  0.3882 -0.0569
 1300TIP3   OH225314   6.217   4.758  17.084 -0.3177 -0.0356 -0.1130
 1300TIP3    H125315   6.209   4.824  17.153 -1.2142 -1.7080  1.4701
 1300TIP3    H225316   6.288   4.791  17.028  1.4412  0.7622  2.3607
 1301TIP3   OH225317   5.780   6.720  11.830 -0.0632 -0.0117 -0.2196
 1301TIP3    H125318   5.808   6.723  11.922  0.0453 -0.6576 -0.2256
 1301TIP3    H225319   5.857   6.690  11.782 -0.4911 -0.9662 -0.3467
 1302TIP3   OH225320   1.464   0.161   4.954 -0.1611  0.3140  0.2082
 1302TIP3    H125321   1.500   0.157   5.042 -0.0935 -0.4352  0.1540
 1302TIP3    H225322   1.381   0.114   4.959  0.0786 -0.1706 -0.2369
 1303TIP3   OH225323   6.566   2.803   6.140 -0.0278  0.0626  0.1965
 1303TIP3    H125324   6.564   2.775   6.232  0.3429 -2.8687 -0.5784
 1303TIP3    H225325   6.659   2.815   6.121  0.3603 -3.5541 -0.8097
 1304TIP3   OH225326   5.754   1.735   1.247  0.3656  0.0884 -0.2523
 1304TIP3    H125327   5.837   1.773   1.219  0.7015  1.5527  2.3232
 1304TIP3    H225328   5.688   1.800   1.222  0.2313 -0.1694 -0.5790
 1305TIP3   OH225329   3.194   4.069   3.179  0.1553  0.2414  0.0135
 1305TIP3    H125330   3.137   4.019   3.238  0.1004  0.4314  0.1245
 1305TIP3    H225331   3.229   4.139   3.234  1.5159 -0.6234  0.2898
 1306TIP3   OH225332   3.899   4.451   3.139  0.0010  0.2978 -0.5713
 1306TIP3    H125333   3.828   4.459   3.075  0.1342  0.2653 -0.7250
 1306TIP3    H225334   3.916   4.357   3.144 -1.6002  0.0640  1.2755
 1307TIP3   OH225335   6.574   5.455  12.536 -0.2500  0.1880  0.0007
 1307TIP3    H125336   6.618   5.478  12.455  1.0295  0.0467  0.6404
 1307TIP3    H225337   6.643   5.425  12.595 -1.2045 -0.1675  0.9960
 1308TIP3   OH225338   5.397   3.981   0.639 -0.5769  0.1132 -0.1997
 1308TIP3    H125339   5.376   3.928   0.715  0.0208  0.2460  0.0660
 1308TIP3    H225340   5.477   3.943   0.603 -0.5226  0.4135 -0.4101
 1309TIP3   OH225341   5.370   1.078  15.939 -0.0959  0.1791  0.4327
 1309TIP3    H125342   5.351   1.070  15.845  1.2148 -1.5710  0.2721
 1309TIP3    H225343   5.300   1.027  15.981 -1.3478  1.8999  0.5264
 1310TIP3   OH225344   1.949   4.857   4.294 -0.3625 -0.0866  0.1557
 1310TIP3    H125345   1.964   4.950   4.280  0.2037 -0.2412 -0.2988
 1310TIP3    H225346   1.914   4.825   4.211 -0.6987 -0.2515  0.3584
 1311TIP3   OH225347   4.732   3.356  14.842  0.1263  0.3048 -0.0420
 1311TIP3    H125348   4.779   3.439  14.834 -0.2055  0.7032  1.7850
 1311TIP3    H225349   4.657   3.365  14.785  0.3713  1.0599 -0.2598
 1312TIP3   OH225350   0.516   1.072   4.862  0.1664 -0.0295  0.1875
 1312TIP3    H125351   0.475   1.156   4.842 -1.2389 -0.5889  0.5993
 1312TIP3    H225352   0.599   1.095   4.904 -0.8784  1.1775  1.6866
 1313TIP3   OH225353   5.794   0.529  13.790  0.1106  0.4901  0.2223
 1313TIP3    H125354   5.771   0.583  13.865 -0.9625 -0.2570  0.4512
 1313TIP3    H225355   5.770   0.440  13.816  1.1645 -0.0036 -0.4204
 1314TIP3   OH225356   4.883   4.002   4.027  0.2929  0.6181 -0.6501
 1314TIP3    H125357   4.883   3.919   4.075 -0.0846  1.9247  1.7903
 1314TIP3    H225358   4.805   4.047   4.059  0.3218  1.8074 -2.1650
 1315TIP3   OH225359   4.845   1.755   6.115 -0.2288  0.6194 -0.3870
 1315TIP3    H125360   4.776   1.745   6.180  1.7555 -1.5756  1.5927
 1315TIP3    H225361   4.817   1.702   6.041  0.0088 -1.7306  1.1025
 1316TIP3   OH225362   4.023   1.069  14.803  0.7033  0.5988  0.2948
 1316TIP3    H125363   4.034   1.135  14.871  0.9009  1.9980 -1.0302
 1316TIP3    H225364   3.944   1.021  14.828  1.2177  0.5336  1.9078
 1317TIP3   OH225365   1.549   1.789   3.654 -0.3097  0.3518 -0.2926
 1317TIP3    H125366   1.591   1.866   3.692  2.5540 -0.1173 -2.1571
 1317TIP3    H225367   1.509   1.821   3.573 -0.7439  0.1850 -0.1501
 1318TIP3   OH225368   2.888   6.097  14.715  0.3883 -0.1621  0.3037
 1318TIP3    H125369   2.951   6.032  14.685  0.0189 -1.0695  1.4327
 1318TIP3    H225370   2.805   6.069  14.677  0.5622  0.8218 -0.8748
 1319TIP3   OH225371   6.312   2.898   5.276  0.0942  0.0844  0.8767
 1319TIP3    H125372   6.277   2.970   5.329  0.6257 -0.0013  1.3599
 1319TIP3    H225373   6.353   2.840   5.340 -1.0758 -1.0963  0.5854
 1320TIP3   OH225374   0.742   6.435  11.194  0.8614 -0.3661  0.1006
 1320TIP3    H125375   0.697   6.513  11.162  2.5536  0.1060 -1.2752
 1320TIP3    H225376   0.706   6.420  11.281 -0.8078  0.8679 -0.3389
 1321TIP3   OH225377   4.627   0.709  14.626 -0.3243 -0.2117 -0.2061
 1321TIP3    H125378   4.661   0.625  14.656 -1.3132 -0.2160  0.9941
 1321TIP3    H225379   4.705   0.764  14.616  0.2896 -1.1235 -0.5828
 1322TIP3   OH225380   1.883   5.705  16.554  0.2242 -0.6358  0.2789
 1322TIP3    H125381   1.856   5.744  16.636  2.9391 -1.2607  1.5900
 1322TIP3    H225382   1.893   5.611  16.573 -0.2212 -0.9854 -1.0887
 1323TIP3   OH225383   2.407   0.091   3.380 -0.1003  0.1803 -0.1145
 1323TIP3    H125384   2.375   0.068   3.468 -0.5577  1.1573 -0.0070
 1323TIP3    H225385   2.468   0.164   3.395 -0.8059  0.9020 -0.6710
 1324TIP3   OH225386   1.189   1.752   2.689  0.4350  0.0774  0.2081
 1324TIP3    H125387   1.124   1.727   2.755 -0.0355  1.1655  0.1721
 1324TIP3    H225388   1.138   1.793   2.620  1.2190  1.7120  0.5587
 1325TIP3   OH225389   3.330   1.364  13.621  0.1669  0.0368 -0.2838
 1325TIP3    H125390   3.338   1.459  13.615  1.5261 -0.0095  0.3593
 1325TIP3    H225391   3.312   1.347  13.713 -1.0988 -0.2822 -0.5830
 1326TIP3   OH225392   4.595   1.039  11.008  0.2279  0.1321  0.1321
 1326TIP3    H125393   4.510   1.026  10.966  0.5458  2.8374 -1.6056
 1326TIP3    H225394   4.654   0.980  10.959 -0.0532  0.7385 -0.9768
 1327TIP3   OH225395   6.134   4.503   1.121  0.4776 -0.4885  0.5049
 1327TIP3    H125396   6.141   4.456   1.038  0.3403 -0.0451  0.2417
 1327TIP3    H225397   6.083   4.444   1.177 -1.4170  0.1619 -0.4548
 1328TIP3   OH225398   2.021   4.943   3.285  0.0925 -0.4992  0.3707
 1328TIP3    H125399   2.055   4.869   3.235  0.6804 -0.0630  0.1198
 1328TIP3    H225400   1.962   4.903   3.349  1.0278 -1.2730  0.7760
 1329TIP3   OH225401   2.052   0.237  10.983 -0.1145 -0.2621  0.6839
 1329TIP3    H125402   2.001   0.227  10.903  0.0539  0.9268  0.4186
 1329TIP3    H225403   2.047   0.330  11.004 -0.2712 -0.5769  2.1432
 1330TIP3   OH225404   6.305   0.448   0.576  0.0736 -0.3788  0.0219
 1330TIP3    H125405   6.253   0.507   0.631 -0.8178  0.0103 -1.1999
 1330TIP3    H225406   6.280   0.361   0.604  0.4072 -0.1878  0.9359
 1331TIP3   OH225407   5.811   3.443  16.905  0.3797  0.2855  0.3662
 1331TIP3    H125408   5.828   3.496  16.827 -0.8673 -0.7436 -0.6371
 1331TIP3    H225409   5.853   3.359  16.887 -1.5347 -0.6211 -0.0745
 1332TIP3   OH225410   2.844   6.762  13.995  0.1308 -0.2210 -0.4806
 1332TIP3    H125411   2.889   6.805  14.067 -0.4034  0.4747 -0.5464
 1332TIP3    H225412   2.830   6.832  13.930 -1.4034 -0.2906 -0.2780
 1333TIP3   OH225413   4.462   0.619  11.883 -0.3366 -0.3567 -0.0102
 1333TIP3    H125414   4.539   0.588  11.835 -0.2212 -1.3493  0.7735
 1333TIP3    H225415   4.497   0.670  11.955 -0.4466 -0.2338 -0.0426
 1334TIP3   OH225416   6.747   3.794  13.811 -0.1445  0.5713  0.0773
 1334TIP3    H125417   6.698   3.720  13.775 -0.7756  1.9434 -2.0719
 1334TIP3    H225418   6.681   3.848  13.855  0.4092 -0.3703  2.2002
 1335TIP3   OH225419   2.403   0.063   0.187 -0.4559  0.3928  0.8050
 1335TIP3    H125420   2.434   0.147   0.221  0.2585  0.4114  0.1380
 1335TIP3    H225421   2.479   0.026   0.142 -1.3712  0.4153 -0.8363
 1336TIP3   OH225422   0.523   1.900   5.659  0.1200  0.5394 -0.8079
 1336TIP3    H125423   0.524   1.904   5.755 -2.0122  1.4071 -0.7541
 1336TIP3    H225424   0.611   1.871   5.635  0.6865  0.2229  1.4054
 1337TIP3   OH225425   0.966   6.458   4.192 -0.3376 -0.2952 -0.1020
 1337TIP3    H125426   1.015   6.384   4.157 -0.8014 -1.0656  0.8301
 1337TIP3    H225427   0.945   6.433   4.281 -0.3278  1.0612  0.3081
 1338TIP3   OH225428   1.964   3.625   2.451 -0.0526  0.0501 -0.4744
 1338TIP3    H125429   1.885   3.576   2.477  0.2951 -0.8985 -1.1428
 1338TIP3    H225430   1.943   3.661   2.365 -0.3341  1.1852  0.0472
 1339TIP3   OH225431   6.639   4.116   3.320 -0.3331 -0.0526  0.4772
 1339TIP3    H125432   6.572   4.125   3.388 -1.3815 -0.6462 -0.4331
 1339TIP3    H225433   6.599   4.151   3.241  1.5015  2.2644  0.4772
 1340TIP3   OH225434   4.713   1.497  14.159 -0.0372 -0.3960  0.0091
 1340TIP3    H125435   4.779   1.501  14.090  1.1242 -1.3395  1.0240
 1340TIP3    H225436   4.718   1.582  14.202 -0.3215 -0.0403 -0.6407
 1341TIP3   OH225437   5.952   1.817   0.133  0.1526  0.0723 -0.0869
 1341TIP3    H125438   5.927   1.897   0.179  0.1294  0.1770 -0.2819
 1341TIP3    H225439   6.038   1.836   0.096  0.9496 -0.5856  1.3297
 1342TIP3   OH225440   2.978   1.072  15.615  0.1454 -0.6178  0.1517
 1342TIP3    H125441   2.953   0.997  15.560  1.0169 -0.3621 -0.6125
 1342TIP3    H225442   3.054   1.041  15.664  0.3828 -0.3057 -0.0158
 1343TIP3   OH225443   3.805   2.819  16.032  0.0923 -0.4931 -0.5394
 1343TIP3    H125444   3.721   2.781  16.056  0.1363  0.5461  1.4279
 1343TIP3    H225445   3.870   2.755  16.061  0.0915  0.1964  1.0411
 1344TIP3   OH225446   3.312   2.664  11.094 -0.0262  0.1829  0.2631
 1344TIP3    H125447   3.248   2.666  11.165 -0.5817 -0.6871 -0.1967
 1344TIP3    H225448   3.287   2.588  11.041  1.1688  0.0381 -0.1266
 1345TIP3   OH225449   3.977   3.084  16.102 -0.6349  0.3919 -0.0903
 1345TIP3    H125450   3.935   3.002  16.074  3.4305 -2.2298  0.5602
 1345TIP3    H225451   3.969   3.143  16.028 -3.9819 -0.3753 -0.4877
 1346TIP3   OH225452   6.298   0.181   2.088  0.5137 -0.1359 -0.9510
 1346TIP3    H125453   6.252   0.255   2.050 -2.7653 -1.0827  0.7236
 1346TIP3    H225454   6.334   0.215   2.170  0.6218  0.0243 -1.0641
 1347TIP3   OH225455   3.539   1.085   5.852 -0.2603 -0.3758  0.5892
 1347TIP3    H125456   3.558   1.176   5.832 -1.1982 -0.4362 -0.7072
 1347TIP3    H225457   3.473   1.088   5.921 -0.9478 -0.0227 -0.0592
 1348TIP3   OH225458   2.131   2.054  11.399 -0.4711 -0.6768  0.6068
 1348TIP3    H125459   2.223   2.039  11.421 -1.1539 -0.3763  4.3117
 1348TIP3    H225460   2.098   1.968  11.373  0.9534 -0.6229 -1.6807
 1349TIP3   OH225461   1.996   5.171  13.690 -0.2142 -0.4992 -0.4026
 1349TIP3    H125462   2.062   5.105  13.667 -0.2086 -0.0909 -1.6032
 1349TIP3    H225463   1.954   5.135  13.768  0.6563 -1.3113 -0.2747
 1350TIP3   OH225464   6.404   1.917  15.981  0.2970  0.0012 -0.2622
 1350TIP3    H125465   6.337   1.854  16.009 -0.9776  1.3383 -0.2051
 1350TIP3    H225466   6.427   1.890  15.892 -1.4052  0.3662 -0.8419
 1351TIP3   OH225467   0.946   4.449   3.553  0.3124 -0.2016  0.0436
 1351TIP3    H125468   0.983   4.418   3.470 -0.1622  1.0547 -0.6561
 1351TIP3    H225469   0.853   4.428   3.547  0.4314 -0.9325  0.6603
 1352TIP3   OH225470   0.366   3.729  16.860  0.4487  0.4861 -0.3240
 1352TIP3    H125471   0.356   3.663  16.791 -0.6026 -0.2219  0.4683
 1352TIP3    H225472   0.297   3.793  16.841 -1.8884 -1.2357  1.6684
 1353TIP3   OH225473   0.819   2.007   3.821  0.0261  0.6185 -0.1509
 1353TIP3    H125474   0.854   2.007   3.911 -0.5248 -0.7840  0.0768
 1353TIP3    H225475   0.742   1.951   3.825  1.4932 -1.7209 -2.0552
 1354TIP3   OH225476   0.631   1.190   5.429  0.2060  0.1581 -0.4912
 1354TIP3    H125477   0.567   1.147   5.372 -1.8716 -0.5457  2.1829
 1354TIP3    H225478   0.585   1.268   5.461  0.9832  0.0666  0.8858
 1355TIP3   OH225479   2.736   4.660  14.184 -0.0554 -0.5918 -0.0653
 1355TIP3    H125480   2.790   4.706  14.121 -0.3667 -0.8554 -0.5302
 1355TIP3    H225481   2.664   4.624  14.133  0.1604 -1.5623  0.2823
 1356TIP3   OH225482   3.996   5.110  15.974  0.2341 -0.1421  0.0419
 1356TIP3    H125483   3.903   5.110  15.953  0.2189  0.2106  0.1001
 1356TIP3    H225484   4.000   5.111  16.070  0.3015 -3.1142  0.1606
 1357TIP3   OH225485   3.766   2.341  16.722 -0.0976  0.1436  0.6691
 1357TIP3    H125486   3.703   2.270  16.711 -1.0447  1.3448 -2.7545
 1357TIP3    H225487   3.833   2.325  16.656  0.7600  1.3817  1.1979
 1358TIP3   OH225488   4.685   4.527   5.740 -0.0839 -0.1256  0.1946
 1358TIP3    H125489   4.645   4.441   5.729  0.7820 -0.3883 -0.9914
 1358TIP3    H225490   4.650   4.579   5.668  0.4368  0.1180  0.1121
 1359TIP3   OH225491   0.478   3.885   5.771  0.2723 -0.3613  0.2576
 1359TIP3    H125492   0.487   3.911   5.679 -0.5709 -1.1235 -0.0547
 1359TIP3    H225493   0.392   3.918   5.797  0.2640 -0.6468  0.5990
 1360TIP3   OH225494   1.545   0.192   6.142 -0.5841  0.2887  0.1947
 1360TIP3    H125495   1.455   0.211   6.116 -0.0934  0.8076 -1.2125
 1360TIP3    H225496   1.563   0.105   6.104  0.3758  1.3630 -1.9800
 1361TIP3   OH225497   3.851   3.247   1.953 -0.0951  0.0326 -0.3186
 1361TIP3    H125498   3.857   3.151   1.956  0.3564  0.0412 -0.9101
 1361TIP3    H225499   3.900   3.276   2.030 -3.3761 -0.3007  2.1285
 1362TIP3   OH225500   3.927   5.585   1.070  0.3468  0.5139 -0.3451
 1362TIP3    H125501   3.924   5.490   1.061  0.2620  0.6176 -1.5700
 1362TIP3    H225502   4.016   5.609   1.044  0.2716  0.7993 -0.3506
 1363TIP3   OH225503   6.455   1.933   2.500 -0.0551 -0.0324 -0.5898
 1363TIP3    H125504   6.381   1.881   2.530  0.6016  0.0172  1.2929
 1363TIP3    H225505   6.498   1.879   2.434  0.3101 -1.7090  0.9289
 1364TIP3   OH225506   0.977   4.719  11.416 -0.4043 -0.3202  0.1570
 1364TIP3    H125507   0.931   4.641  11.387 -1.1856  0.1216  0.1811
 1364TIP3    H225508   1.031   4.689  11.489  0.6258 -1.1789 -0.9215
 1365TIP3   OH225509   3.585   5.626  15.135 -0.3742  0.1135  0.5104
 1365TIP3    H125510   3.536   5.566  15.080 -0.5668  1.2214 -0.5742
 1365TIP3    H225511   3.585   5.585  15.221 -2.1916 -0.4724  0.2706
 1366TIP3   OH225512   6.468   5.740   5.151  0.6832  0.0286  0.0123
 1366TIP3    H125513   6.527   5.667   5.131  0.4735  0.1698 -1.2309
 1366TIP3    H225514   6.487   5.805   5.084 -2.2491 -0.7510 -1.7722
 1367TIP3   OH225515   3.704   2.973   2.223 -0.5425 -0.1266 -0.3116
 1367TIP3    H125516   3.756   2.909   2.174  0.0910 -0.3054  0.5652
 1367TIP3    H225517   3.624   2.926   2.246  0.4865 -1.0952  1.4903
 1368TIP3   OH225518   6.508   1.003   0.137  0.5848  0.3432  0.1367
 1368TIP3    H125519   6.432   0.947   0.153  1.1596 -0.7129 -0.6047
 1368TIP3    H225520   6.563   0.992   0.215 -1.0613  3.0341  1.8162
 1369TIP3   OH225521   4.074   6.742  14.491 -0.2334 -0.4329  0.0669
 1369TIP3    H125522   4.047   6.688  14.565 -0.5441 -1.1013 -0.5242
 1369TIP3    H225523   4.004   6.807  14.482 -1.1189 -1.4376 -0.7229
 1370TIP3   OH225524   6.510   4.296   0.980 -0.4761  0.5411  0.2814
 1370TIP3    H125525   6.484   4.388   0.982 -2.8331 -0.0583  2.0776
 1370TIP3    H225526   6.428   4.248   0.967  0.4774 -1.3498  0.8287
 1371TIP3   OH225527   1.793   3.827   5.162  0.3079  0.0557  0.0880
 1371TIP3    H125528   1.823   3.835   5.252 -0.3918  0.8593  0.2661
 1371TIP3    H225529   1.799   3.733   5.142  0.4940 -0.1219  0.9566
 1372TIP3   OH225530   1.087   1.257   5.460 -0.4512 -0.3214  0.2409
 1372TIP3    H125531   1.015   1.287   5.405  0.0126 -1.2002 -0.8894
 1372TIP3    H225532   1.046   1.197   5.523 -0.7032 -0.9979 -0.5418
 1373TIP3   OH225533   4.945   2.566   2.171 -0.1372  0.4121  0.1485
 1373TIP3    H125534   4.895   2.646   2.153 -0.9018 -0.0148  0.3255
 1373TIP3    H225535   4.886   2.495   2.145  0.7948 -0.0905 -0.6750
 1374TIP3   OH225536   6.582   3.795  17.058 -0.0261  0.5282 -0.0727
 1374TIP3    H125537   6.508   3.819  17.113 -0.0668  0.4329 -0.0853
 1374TIP3    H225538   6.609   3.708  17.090  0.5506  0.8833  0.4189
 1375TIP3   OH225539   0.729   0.137   2.926  0.2639 -0.2822 -0.9658
 1375TIP3    H125540   0.781   0.061   2.899  0.0317 -0.1468 -1.8284
 1375TIP3    H225541   0.724   0.191   2.847  1.8497  1.4637  0.0589
 1376TIP3   OH225542   4.324   1.170  13.674  0.5303  0.3186  0.3464
 1376TIP3    H125543   4.376   1.097  13.641  1.3961  1.4706 -0.9362
 1376TIP3    H225544   4.235   1.136  13.679  0.5364 -0.2534 -2.2478
 1377TIP3   OH225545   5.407   6.521   1.796  0.0752  0.3363 -0.2157
 1377TIP3    H125546   5.435   6.603   1.754  0.9308  0.5551  0.7109
 1377TIP3    H225547   5.424   6.453   1.731  1.4807  0.6481 -0.2117
 1378TIP3   OH225548   4.638   2.205  11.750 -0.4019 -0.8066  0.2578
 1378TIP3    H125549   4.571   2.239  11.808 -0.3361 -0.0376 -0.1013
 1378TIP3    H225550   4.598   2.127  11.710 -2.0297  0.9039 -1.7144
 1379TIP3   OH225551   2.616   5.603   2.304 -0.3296 -0.0202  0.3249
 1379TIP3    H125552   2.708   5.588   2.283  0.0495 -0.5600  2.1538
 1379TIP3    H225553   2.611   5.588   2.398 -2.4955 -0.9249  0.1092
 1380TIP3   OH225554   5.809   2.910   0.357 -0.4207  0.4529  0.3738
 1380TIP3    H125555   5.824   2.937   0.448 -2.0512 -0.2482  0.8933
 1380TIP3    H225556   5.829   2.817   0.356 -0.7519  0.3846  0.0952
 1381TIP3   OH225557   6.364   3.636  14.705  0.0062 -0.3795 -0.3224
 1381TIP3    H125558   6.351   3.725  14.738  0.4227 -0.1350 -0.8096
 1381TIP3    H225559   6.284   3.589  14.730 -0.7410  0.4433 -1.0888
 1382TIP3   OH225560   1.174   4.518   5.061  0.1399  0.3888 -0.5439
 1382TIP3    H125561   1.252   4.481   5.020 -1.4093 -1.5949 -1.8945
 1382TIP3    H225562   1.102   4.494   5.002 -1.5989  1.5570  0.9817
 1383TIP3   OH225563   4.213   4.463  13.534 -0.4241 -0.3275  0.0015
 1383TIP3    H125564   4.223   4.368  13.544 -0.2658 -0.3238 -0.1256
 1383TIP3    H225565   4.121   4.475  13.513 -0.0823 -0.6036 -1.7925
 1384TIP3   OH225566   3.460   4.686   1.999 -0.1917 -0.6603  0.1198
 1384TIP3    H125567   3.396   4.677   2.070 -1.5054  1.0780 -0.7461
 1384TIP3    H225568   3.544   4.694   2.043 -0.6436 -2.1131  1.3487
 1385TIP3   OH225569   3.172   4.409  14.833  0.0807  0.4003 -0.1026
 1385TIP3    H125570   3.107   4.480  14.837 -0.2796  0.0328  2.4925
 1385TIP3    H225571   3.146   4.349  14.902  1.1208 -1.6692 -1.4192
 1386TIP3   OH225572   3.131   0.603  16.586 -0.0741  0.0466 -0.3636
 1386TIP3    H125573   3.152   0.641  16.671 -1.3572  0.5242 -0.2420
 1386TIP3    H225574   3.127   0.677  16.527 -0.2346 -0.1672 -0.6209
 1387TIP3   OH225575   5.049   6.455   3.819  0.1321 -0.2221  0.7881
 1387TIP3    H125576   4.970   6.401   3.814 -1.0238  1.4886 -1.3550
 1387TIP3    H225577   5.119   6.398   3.788 -0.7123 -1.0781  0.4060
 1388TIP3   OH225578   3.849   3.471   0.462 -0.1959  0.1257 -0.6272
 1388TIP3    H125579   3.819   3.425   0.540 -0.2577  0.1495 -0.6367
 1388TIP3    H225580   3.852   3.563   0.488  0.7013  0.0311 -0.3634
 1389TIP3   OH225581   1.010   3.342  15.046  0.5923  0.0169  0.1268
 1389TIP3    H125582   0.948   3.395  14.994  0.4493  0.1109  0.3913
 1389TIP3    H225583   1.044   3.403  15.111  1.4461  0.1321 -0.4161
 1390TIP3   OH225584   3.675   3.235  16.798 -0.0584  0.5468 -0.1237
 1390TIP3    H125585   3.608   3.218  16.732  0.5866  0.0824 -0.6688
 1390TIP3    H225586   3.706   3.148  16.824  0.8566  0.7704 -0.4292
 1391TIP3   OH225587   3.442   0.905  12.131  0.0939 -0.2534 -0.9901
 1391TIP3    H125588   3.384   0.953  12.073 -2.2338  0.1908  1.5311
 1391TIP3    H225589   3.408   0.815  12.131 -0.8832  0.0628  0.6840
 1392TIP3   OH225590   4.388   5.562  15.269 -0.6389 -0.0375  0.4400
 1392TIP3    H125591   4.462   5.564  15.330  1.1175  0.4518 -1.6104
 1392TIP3    H225592   4.412   5.623  15.199 -2.5316 -0.6362 -0.8108
 1393TIP3   OH225593   1.958   0.160   0.227  0.6641 -0.4169 -0.3018
 1393TIP3    H125594   1.960   0.176   0.321 -1.5156  1.5375 -0.4801
 1393TIP3    H225595   1.924   0.071   0.218 -0.2598 -0.1971  0.7876
 1394TIP3   OH225596   4.946   5.107   5.845  0.1169  0.3819 -0.8550
 1394TIP3    H125597   4.877   5.135   5.905  0.8881 -0.3326  0.4238
 1394TIP3    H225598   4.913   5.128   5.758 -2.4049 -1.3104 -0.4189
 1395TIP3   OH225599   5.194   6.075  13.638 -0.0887 -0.3137 -0.3838
 1395TIP3    H125600   5.213   5.984  13.614 -0.2481 -0.0712 -1.5191
 1395TIP3    H225601   5.155   6.113  13.559  0.2457  0.8244 -0.0289
 1396TIP3   OH225602   5.459   2.891  14.361 -0.1667  0.0158 -0.2577
 1396TIP3    H125603   5.498   2.810  14.327 -1.2539 -0.9997  0.7932
 1396TIP3    H225604   5.465   2.882  14.456 -1.8070  0.3733 -0.0885
 1397TIP3   OH225605   5.167   3.028   5.085  0.0002 -0.0449  0.0810
 1397TIP3    H125606   5.213   3.017   5.168 -0.8607 -0.0277  0.5678
 1397TIP3    H225607   5.086   3.073   5.108 -0.0813  0.2925 -0.8214
 1398TIP3   OH225608   5.433   0.949   4.492  0.5249 -0.1635  0.4146
 1398TIP3    H125609   5.340   0.925   4.495  0.1799  0.9638 -0.4998
 1398TIP3    H225610   5.444   0.990   4.406  2.3378 -2.0625 -0.3431
 1399TIP3   OH225611   6.391   5.323   1.866  0.5305  0.6432  0.2993
 1399TIP3    H125612   6.321   5.384   1.887 -0.6510  0.8674 -3.4720
 1399TIP3    H225613   6.456   5.376   1.820  0.9395 -0.3923 -0.3488
 1400TIP3   OH225614   0.632   2.433   0.461 -0.5109  0.2204 -0.4282
 1400TIP3    H125615   0.570   2.499   0.430  0.1505  0.3707 -1.5004
 1400TIP3    H225616   0.666   2.393   0.381  0.8426  0.2042  0.1239
 1401TIP3   OH225617   1.815   5.656   5.372  0.0719  0.0660 -0.5324
 1401TIP3    H125618   1.874   5.652   5.447 -0.8333  0.3086  0.2130
 1401TIP3    H225619   1.830   5.742   5.334  1.3530 -0.4885 -1.3337
 1402TIP3   OH225620   5.905   6.375   3.056 -0.2195 -0.1229 -0.4353
 1402TIP3    H125621   6.000   6.373   3.047 -0.2229 -0.7764 -0.3106
 1402TIP3    H225622   5.873   6.390   2.966  0.0635  2.7039 -0.1760
 1403TIP3   OH225623   6.124   1.394  14.478 -0.4307 -0.4694  0.1735
 1403TIP3    H125624   6.035   1.374  14.448 -0.4027  0.4743 -0.5802
 1403TIP3    H225625   6.151   1.468  14.424  1.1383 -1.2804 -0.2043
 1404TIP3   OH225626   3.518   5.347  14.006  0.0989  0.1596  0.2085
 1404TIP3    H125627   3.599   5.382  13.968 -1.1633  0.5420 -2.3673
 1404TIP3    H225628   3.482   5.419  14.057  1.4889 -0.1267  1.6811
 1405TIP3   OH225629   0.104   2.033  15.295  0.4804 -0.3279 -0.3179
 1405TIP3    H125630   0.066   2.047  15.381 -0.0293 -2.1490 -0.1933
 1405TIP3    H225631   0.128   2.120  15.264 -2.8355  0.8493  0.0384
 1406TIP3   OH225632   5.849   4.755   0.879  0.7548  0.0239 -0.5727
 1406TIP3    H125633   5.934   4.797   0.866  0.8846 -0.0356  0.0873
 1406TIP3    H225634   5.853   4.718   0.967 -0.3266  0.9052 -0.1180
 1407TIP3   OH225635   5.608   4.476  12.164  0.3575 -0.1553 -0.4070
 1407TIP3    H125636   5.566   4.522  12.090 -0.6582 -0.0251  0.2297
 1407TIP3    H225637   5.592   4.384  12.145  0.9449 -0.1719 -0.8396
 1408TIP3   OH225638   2.297   4.041   1.448 -0.2304  0.7600 -0.4179
 1408TIP3    H125639   2.351   4.057   1.371 -0.4480 -0.2994 -0.8129
 1408TIP3    H225640   2.333   4.099   1.515  1.4653  0.0331 -0.6378
 1409TIP3   OH225641   1.975   0.555   2.602 -0.3405 -0.1153 -0.0746
 1409TIP3    H125642   2.018   0.494   2.541 -1.7804 -0.2654 -0.9706
 1409TIP3    H225643   1.923   0.612   2.547  0.3488  1.4576  0.8296
 1410TIP3   OH225644   1.201   6.652   5.852  0.2228 -0.3993  0.4472
 1410TIP3    H125645   1.281   6.703   5.844 -1.4256  2.3215  0.0385
 1410TIP3    H225646   1.170   6.643   5.762 -1.0389  0.5933  0.7441
 1411TIP3   OH225647   2.536   4.409  13.676 -0.3028 -0.3147 -0.0319
 1411TIP3    H125648   2.564   4.498  13.655  0.7146 -0.6490 -0.1492
 1411TIP3    H225649   2.529   4.366  13.591  1.4032 -0.9631  0.1077
 1412TIP3   OH225650   2.049   5.456   2.657  0.0539 -0.0828 -0.5319
 1412TIP3    H125651   2.101   5.392   2.609  1.4259  0.3775  0.2578
 1412TIP3    H225652   2.056   5.536   2.606  1.7864  0.4961  0.5041
 1413TIP3   OH225653   3.466   1.468  16.433 -0.1014 -0.8340  0.5408
 1413TIP3    H125654   3.460   1.445  16.526 -1.4326  1.3047  1.0564
 1413TIP3    H225655   3.429   1.392  16.387  0.9910 -2.1095  1.6898
 1414TIP3   OH225656   4.081   4.376   0.698 -0.1936 -0.1544  0.2144
 1414TIP3    H125657   4.135   4.361   0.775  0.4401  0.1951 -0.1479
 1414TIP3    H225658   4.054   4.468   0.704 -2.6895 -0.8763  1.5750
 1415TIP3   OH225659   6.204   5.947   1.247  0.0579 -0.1473 -0.0968
 1415TIP3    H125660   6.261   5.872   1.264 -0.0268 -0.2055 -0.0673
 1415TIP3    H225661   6.116   5.912   1.253  0.0126 -0.5631 -2.3699
 1416TIP3   OH225662   4.796   1.733   1.311 -0.4371 -0.3020 -0.2762
 1416TIP3    H125663   4.820   1.801   1.374 -0.1605 -0.7964  0.1629
 1416TIP3    H225664   4.738   1.776   1.249  1.4423  0.9232 -1.2688
 1417TIP3   OH225665   6.301   1.806   3.594 -0.8079  0.7136  0.0241
 1417TIP3    H125666   6.341   1.887   3.627 -1.3125  0.4767  1.2749
 1417TIP3    H225667   6.209   1.813   3.619 -0.9332 -0.0880 -0.1762
 1418TIP3   OH225668   2.695   4.334   5.306 -0.1750 -0.1002  0.3306
 1418TIP3    H125669   2.790   4.347   5.307 -0.0472 -0.9647  0.7054
 1418TIP3    H225670   2.676   4.303   5.217 -0.1523  0.3545  0.1644
 1419TIP3   OH225671   6.176   1.279   3.959  0.7013 -0.4241  0.1768
 1419TIP3    H125672   6.082   1.267   3.973  0.8381 -0.1381  1.4431
 1419TIP3    H225673   6.186   1.276   3.864 -0.6618  0.0937 -0.0141
 1420TIP3   OH225674   2.494   3.989  11.326  0.1337 -0.1316  0.2502
 1420TIP3    H125675   2.534   3.903  11.311  1.7846  0.2524  2.0873
 1420TIP3    H225676   2.421   3.992  11.264  0.8462 -2.2964 -0.8096
 1421TIP3   OH225677   1.545   2.509   3.400  0.3616  0.1400  0.4392
 1421TIP3    H125678   1.451   2.512   3.381  0.6507 -0.4680 -1.2160
 1421TIP3    H225679   1.583   2.465   3.325  1.9407 -0.0020  1.2877
 1422TIP3   OH225680   3.427   5.630  16.812 -0.8078  0.4651 -0.0781
 1422TIP3    H125681   3.433   5.722  16.837 -1.1941  0.6981 -0.8048
 1422TIP3    H225682   3.517   5.598  16.814 -0.7906  0.5116  1.3963
 1423TIP3   OH225683   6.192   5.037   6.976  0.2940 -0.6531 -0.2789
 1423TIP3    H125684   6.193   4.968   6.910 -2.2915 -0.6566 -0.3846
 1423TIP3    H225685   6.168   5.116   6.927 -0.4810 -0.4256  0.4603
 1424TIP3   OH225686   0.010   5.120   5.340  0.0960  0.1922 -0.6365
 1424TIP3    H125687  -0.033   5.204   5.360  0.4281  0.1744  0.1908
 1424TIP3    H225688  -0.010   5.065   5.416  0.5591 -0.2191 -0.8112
 1425TIP3   OH225689   5.829   3.581  16.660 -0.7854 -0.0987 -0.0197
 1425TIP3    H125690   5.751   3.553  16.613 -1.3708  1.8872 -0.3165
 1425TIP3    H225691   5.801   3.658  16.710  0.3097 -0.9453  2.0401
 1426TIP3   OH225692   0.758   4.048  11.517  0.2808  0.3825  0.3663
 1426TIP3    H125693   0.762   4.142  11.533  1.0295  0.8102 -2.0356
 1426TIP3    H225694   0.678   4.035  11.466  0.0185 -0.3514  0.9339
 1427TIP3   OH225695   1.975   6.681   1.921  0.8654 -0.2544  0.4565
 1427TIP3    H125696   1.912   6.611   1.904 -0.6735  1.3881 -1.1050
 1427TIP3    H225697   1.997   6.672   2.013 -1.2250 -1.2672  0.9218
 1428TIP3   OH225698   4.082   1.390  13.493 -0.0599 -0.3165  0.4276
 1428TIP3    H125699   4.085   1.366  13.401  0.2394  0.8696  0.1092
 1428TIP3    H225700   4.139   1.467  13.500  0.5146 -0.8287  1.7437
 1429TIP3   OH225701   5.744   5.346  16.761 -0.0728  0.2209 -0.2064
 1429TIP3    H125702   5.789   5.314  16.840 -0.7318  0.3190  0.2193
 1429TIP3    H225703   5.684   5.275  16.738  0.9651 -0.3385 -1.3589
 1430TIP3   OH225704   3.801   2.124   0.950  0.3515  0.5906  0.0841
 1430TIP3    H125705   3.723   2.068   0.951  1.0968 -0.4725  0.3985
 1430TIP3    H225706   3.778   2.196   0.891  0.0063 -0.9873 -1.8289
 1431TIP3   OH225707   4.863   0.534   0.764 -0.0008  0.0277 -0.3439
 1431TIP3    H125708   4.928   0.497   0.824  0.2888 -0.8979 -1.1913
 1431TIP3    H225709   4.796   0.572   0.820  1.2008  0.8820  0.5602
 1432TIP3   OH225710   1.558   3.226   5.494 -0.0189 -0.2065  0.1138
 1432TIP3    H125711   1.576   3.294   5.559 -2.2523 -0.5060  1.1332
 1432TIP3    H225712   1.472   3.250   5.458  0.6916 -0.6230 -2.0175
 1433TIP3   OH225713   4.592   1.495  13.201 -0.2699 -0.0952 -0.0554
 1433TIP3    H125714   4.652   1.441  13.149 -0.8332 -0.2523 -0.5594
 1433TIP3    H225715   4.632   1.582  13.201  0.4036 -0.3956  0.3653
 1434TIP3   OH225716   4.797   2.743  13.347  0.2984 -0.1837  0.3546
 1434TIP3    H125717   4.761   2.662  13.312 -0.5369  0.4451 -0.2955
 1434TIP3    H225718   4.775   2.741  13.440 -0.1236 -0.4904  0.2503
 1435TIP3   OH225719   3.607   5.879  14.094 -0.0823 -0.0249  0.3201
 1435TIP3    H125720   3.528   5.926  14.068 -0.1180  0.6313  1.5399
 1435TIP3    H225721   3.665   5.946  14.129  1.0459 -0.4963 -0.5743
 1436TIP3   OH225722   4.049   0.800   4.052 -0.4889  0.0206 -0.1032
 1436TIP3    H125723   4.029   0.715   4.012  1.0231  0.2033 -1.3276
 1436TIP3    H225724   4.110   0.780   4.123  1.4878  0.2015 -1.6613
 1437TIP3   OH225725   3.144   4.768  13.519  0.5012 -0.2870  0.7099
 1437TIP3    H125726   3.187   4.799  13.439  0.9078  0.1214  1.0816
 1437TIP3    H225727   3.066   4.824  13.528  0.0600 -0.8058  0.2190
 1438TIP3   OH225728   2.844   4.376   6.158  0.1675 -0.6257 -0.0476
 1438TIP3    H125729   2.764   4.326   6.173 -0.5819  0.6352  0.2667
 1438TIP3    H225730   2.813   4.463   6.132  1.4421 -0.2533 -0.3721
 1439TIP3   OH225731   0.468   4.672  15.274 -0.1179 -0.2989 -0.1821
 1439TIP3    H125732   0.553   4.649  15.237  0.9473  2.4456  0.3348
 1439TIP3    H225733   0.441   4.750  15.226 -1.8872 -0.5334  0.3512
 1440TIP3   OH225734   2.087   5.091  15.446  0.2767  0.4923 -0.1645
 1440TIP3    H125735   2.141   5.153  15.397  0.2718  0.4990 -0.1613
 1440TIP3    H225736   2.122   5.005  15.423  0.2559  0.4937 -0.2015
 1441TIP3   OH225737   4.835   5.886  14.838  0.3449 -0.6493 -0.2418
 1441TIP3    H125738   4.814   5.979  14.853  1.8270  0.0484 -2.0447
 1441TIP3    H225739   4.786   5.839  14.905  0.5234  1.5285  1.5284
 1442TIP3   OH225740   3.644   4.608  11.094  0.1456  0.2984 -0.1980
 1442TIP3    H125741   3.706   4.574  11.030 -1.4215 -0.7579 -1.2305
 1442TIP3    H225742   3.558   4.595  11.054 -0.7497  2.1432  0.9694
 1443TIP3   OH225743   0.999   2.532   5.595 -0.5553 -0.2633 -0.3792
 1443TIP3    H125744   1.032   2.520   5.505 -0.4684  0.5284 -0.4622
 1443TIP3    H225745   0.923   2.475   5.600 -0.5239 -0.3633 -0.9372
 1444TIP3   OH225746   5.391   2.872  17.134 -0.6439 -0.2629  0.0674
 1444TIP3    H125747   5.411   2.786  17.096 -0.3932  0.2636 -1.0381
 1444TIP3    H225748   5.475   2.906  17.162 -0.1436  1.0822 -2.7179
 1445TIP3   OH225749   4.544   3.825  12.502  0.0140  0.4269  0.4395
 1445TIP3    H125750   4.634   3.818  12.533  0.5512 -1.9169 -1.3118
 1445TIP3    H225751   4.543   3.777  12.419 -2.8168  0.4802  0.3182
 1446TIP3   OH225752   4.366   5.936   6.259  0.0423  0.0206 -0.4693
 1446TIP3    H125753   4.416   5.856   6.275 -0.7195 -0.2054  0.9503
 1446TIP3    H225754   4.301   5.938   6.330 -0.1685  1.7197 -0.6818
 1447TIP3   OH225755   5.833   2.424  11.520 -0.2105 -0.1849 -0.1274
 1447TIP3    H125756   5.778   2.374  11.580 -0.6075  0.0227 -0.3230
 1447TIP3    H225757   5.891   2.358  11.481 -0.4111 -0.4219 -0.0284
 1448TIP3   OH225758   2.007   0.228  12.900  1.0075 -0.2305 -0.1034
 1448TIP3    H125759   1.961   0.311  12.887 -0.4970 -0.1020  4.3623
 1448TIP3    H225760   1.945   0.161  12.871  1.7918  0.0118 -2.6416
 1449TIP3   OH225761   1.532   5.787  15.866 -0.5531 -0.3931  0.2721
 1449TIP3    H125762   1.602   5.761  15.806 -1.8814 -0.0857 -1.4720
 1449TIP3    H225763   1.465   5.827  15.810 -1.1041  1.5246  2.1650
 1450TIP3   OH225764   5.772   5.785  16.468  0.3331  0.1721  0.3511
 1450TIP3    H125765   5.706   5.772  16.536 -0.0289 -0.2785 -0.0766
 1450TIP3    H225766   5.835   5.846  16.506 -0.7488  1.2349  0.4828
 1451TIP3   OH225767   2.840   5.284  13.315 -0.1520 -0.2146 -0.0427
 1451TIP3    H125768   2.790   5.230  13.254 -0.3217 -0.4415  0.2906
 1451TIP3    H225769   2.925   5.241  13.323 -0.5208 -0.8227  0.7428
 1452TIP3   OH225770   3.155   0.822   1.382 -0.0928  0.4036  0.1604
 1452TIP3    H125771   3.134   0.916   1.381 -1.2734  0.1943  1.5009
 1452TIP3    H225772   3.093   0.784   1.319 -0.3916  0.3835  0.4664
 1453TIP3   OH225773   3.552   3.732  15.348 -0.1429 -0.4362 -0.4329
 1453TIP3    H125774   3.535   3.826  15.359  2.9834  0.3019 -0.9803
 1453TIP3    H225775   3.508   3.709  15.265  0.3299  0.9276 -1.0885
 1454TIP3   OH225776   5.936   4.965   0.168 -0.5305  0.0204 -0.3291
 1454TIP3    H125777   5.893   4.911   0.233 -0.4164  0.8178  0.4308
 1454TIP3    H225778   5.982   5.033   0.219  2.0020 -1.0215 -1.0338
 1455TIP3   OH225779   0.573   0.236   4.274  0.2227  0.3105  0.3500
 1455TIP3    H125780   0.646   0.267   4.329  0.3651  1.1015 -0.2620
 1455TIP3    H225781   0.601   0.150   4.243  0.7799  0.4910  0.3365
 1456TIP3   OH225782   3.959   5.300   0.998  0.3736 -0.6680  0.1728
 1456TIP3    H125783   3.920   5.352   0.928 -0.5041  0.8722  1.7326
 1456TIP3    H225784   3.950   5.209   0.968 -0.5715 -0.0914 -1.3977
 1457TIP3   OH225785   5.754   4.874  14.207 -0.1253  0.4736 -0.0595
 1457TIP3    H125786   5.734   4.782  14.223  0.7948 -0.0946 -1.9354
 1457TIP3    H225787   5.719   4.920  14.284  0.1815 -1.5165  1.3420
 1458TIP3   OH225788   2.803   0.357  14.551 -0.0586 -0.1140  0.1160
 1458TIP3    H125789   2.778   0.421  14.618 -1.2463 -0.4367 -0.0056
 1458TIP3    H225790   2.737   0.288  14.557 -1.5357  0.8795 -2.8538
 1459TIP3   OH225791   6.760   5.687   3.592  0.0822  0.4720 -0.3107
 1459TIP3    H125792   6.771   5.696   3.498 -1.7331 -1.5374 -0.8015
 1459TIP3    H225793   6.704   5.760   3.617 -0.6504  0.1940 -1.0832
 1460TIP3   OH225794   4.155   5.902   3.873 -0.2984  0.2512  0.4370
 1460TIP3    H125795   4.100   5.979   3.862 -0.3189  0.2777  0.7221
 1460TIP3    H225796   4.109   5.848   3.937  0.7669  1.0018  1.9118
 1461TIP3   OH225797   4.000   5.061  14.230 -0.0408 -0.3804  0.3508
 1461TIP3    H125798   4.014   5.154  14.247 -1.4091 -0.0614 -0.1252
 1461TIP3    H225799   4.043   5.045  14.145  0.1246 -0.1739  0.3948
 1462TIP3   OH225800   1.589   3.457   4.384  0.1064  0.0300  0.1154
 1462TIP3    H125801   1.600   3.551   4.393 -1.7723  0.1153  2.1120
 1462TIP3    H225802   1.562   3.445   4.292 -1.3146  1.6388  0.2751
 1463TIP3   OH225803   5.135   5.927  14.480  0.0203 -0.1375 -0.2359
 1463TIP3    H125804   5.089   5.952  14.560 -1.8821 -2.2526 -0.5677
 1463TIP3    H225805   5.227   5.927  14.504 -0.0748  3.3741  0.7372
 1464TIP3   OH225806   1.910   6.647  12.533 -0.0272  0.6300  0.0631
 1464TIP3    H125807   1.997   6.635  12.571  0.7189 -0.1164 -1.7955
 1464TIP3    H225808   1.856   6.579  12.574  1.0306 -0.8691 -0.9452
 1465TIP3   OH225809   0.561   1.219  15.072  0.1202 -0.2185 -0.1583
 1465TIP3    H125810   0.653   1.227  15.048  0.3005 -1.7497 -0.0290
 1465TIP3    H225811   0.518   1.194  14.990 -0.2037  0.4801 -0.2152
 1466TIP3   OH225812   0.322   2.159   1.766 -0.5246  0.3443  0.7055
 1466TIP3    H125813   0.345   2.188   1.678  0.2590  3.1640  1.7063
 1466TIP3    H225814   0.245   2.211   1.789 -2.0204 -1.8537  1.0210
 1467TIP3   OH225815   3.230   3.933  11.985  0.0365  0.8367 -0.3380
 1467TIP3    H125816   3.231   3.867  11.915  0.6660  0.2350  0.2213
 1467TIP3    H225817   3.142   3.928  12.022  0.6408 -1.1598  1.0215
 1468TIP3   OH225818   1.905   1.446  10.805 -0.3351 -0.5124 -0.2477
 1468TIP3    H125819   1.972   1.406  10.750 -0.2020  0.0731 -0.5133
 1468TIP3    H225820   1.823   1.432  10.757 -0.2965 -0.5102 -0.3138
 1469TIP3   OH225821   1.836   4.505   1.253 -0.2953 -0.0446  0.5182
 1469TIP3    H125822   1.801   4.591   1.231  1.5927  0.6278 -0.0922
 1469TIP3    H225823   1.814   4.493   1.346 -1.4310  0.6371  0.3499
 1470TIP3   OH225824   3.172   5.664  17.104 -0.4679 -0.6784  0.3498
 1470TIP3    H125825   3.096   5.637  17.156 -2.0565  2.9102  0.2534
 1470TIP3    H225826   3.134   5.694  17.022  1.3417 -0.7471 -0.5435
 1471TIP3   OH225827   2.306   3.003   6.748  0.3220  0.5133 -0.6938
 1471TIP3    H125828   2.303   2.981   6.841 -0.8788 -1.3741 -1.1499
 1471TIP3    H225829   2.215   3.003   6.719  0.7821 -2.1506 -2.5364
 1472TIP3   OH225830   6.771   2.472  12.076 -0.6957  0.3394 -0.1718
 1472TIP3    H125831   6.710   2.420  12.129 -2.8418  2.4181 -0.4172
 1472TIP3    H225832   6.730   2.558  12.070  1.8300  1.5748 -1.2537
 1473TIP3   OH225833   1.191   3.979  13.627  0.0170 -0.5569 -0.6591
 1473TIP3    H125834   1.264   4.032  13.660  0.0974 -0.1513 -1.4704
 1473TIP3    H225835   1.232   3.896  13.603 -0.1642 -1.1552  0.9347
 1474TIP3   OH225836   6.367   4.786   3.513 -0.0235 -0.0814 -0.2603
 1474TIP3    H125837   6.403   4.772   3.425 -1.3312 -0.1621 -0.8109
 1474TIP3    H225838   6.335   4.700   3.541 -1.9626  0.3872 -0.8350
 1475TIP3   OH225839   0.825   0.511   0.451  0.0159 -0.0149  0.3410
 1475TIP3    H125840   0.892   0.445   0.431  2.5198  2.2919  0.5100
 1475TIP3    H225841   0.810   0.502   0.545 -0.2949 -0.8475  0.2236
 1476TIP3   OH225842   4.523   2.362  11.957  0.2667 -0.5147 -0.1481
 1476TIP3    H125843   4.489   2.425  12.021  2.6854  0.8308 -0.1098
 1476TIP3    H225844   4.541   2.284  12.010 -2.9063 -1.4665 -0.2254
 1477TIP3   OH225845   6.530   4.225   6.574 -0.2754 -0.1140  0.2429
 1477TIP3    H125846   6.560   4.134   6.584 -1.3340 -0.2880  2.2386
 1477TIP3    H225847   6.437   4.217   6.552 -0.1713  0.4981 -0.4550
 1478TIP3   OH225848   5.358   4.118   1.262 -0.2043 -0.4526  0.1929
 1478TIP3    H125849   5.323   4.153   1.344  1.4578  1.0264  0.3212
 1478TIP3    H225850   5.392   4.032   1.286 -0.6894 -0.4786  0.8140
 1479TIP3   OH225851   1.065   6.360  12.745  0.4462 -0.2334  0.5235
 1479TIP3    H125852   1.147   6.322  12.777  1.0787 -0.6980 -1.5323
 1479TIP3    H225853   1.082   6.454  12.740  0.7676 -0.3037  0.3228
 1480TIP3   OH225854   1.453   6.646  12.620 -0.5306  0.2133 -0.3612
 1480TIP3    H125855   1.470   6.607  12.705 -0.9689  0.4454 -0.1631
 1480TIP3    H225856   1.380   6.706  12.635  0.6718  1.7797 -0.4594
 1481TIP3   OH225857   6.511   0.031  11.939  0.0974  0.1566  0.3318
 1481TIP3    H125858   6.530   0.122  11.964  3.5744  0.0627 -1.4304
 1481TIP3    H225859   6.495   0.036  11.845  1.9331 -1.1734 -0.0969
 1482TIP3   OH225860   6.207   6.522   2.106 -0.3411  0.0765 -0.4955
 1482TIP3    H125861   6.136   6.571   2.064  0.7702  2.0384 -0.2236
 1482TIP3    H225862   6.287   6.570   2.082  0.7596 -1.2192  0.3943
 1483TIP3   OH225863   5.884   0.653  10.985  0.1592  0.4572 -0.2965
 1483TIP3    H125864   5.979   0.651  10.969  0.5924 -0.1767  1.9735
 1483TIP3    H225865   5.848   0.584  10.930  1.3070 -0.5845  0.2132
 1484TIP3   OH225866   6.412   2.823   0.449 -0.0882  0.5098 -0.3917
 1484TIP3    H125867   6.450   2.736   0.462  0.6579  1.0750  1.5306
 1484TIP3    H225868   6.434   2.846   0.359  1.9564 -0.2239 -0.1218
 1485TIP3   OH225869   4.020   1.905   1.214  1.2773 -0.4019  0.3805
 1485TIP3    H125870   4.040   1.946   1.298 -0.6379  0.6806  0.3505
 1485TIP3    H225871   4.034   1.974   1.149 -0.3679 -0.2472  0.1558
 1486TIP3   OH225872   6.256   3.873   0.493 -0.5226 -0.5034 -0.3247
 1486TIP3    H125873   6.171   3.828   0.491  0.4017 -2.3742 -0.2249
 1486TIP3    H225874   6.277   3.880   0.586 -0.5217 -0.1483 -0.3527
 1487TIP3   OH225875   3.877   4.365   4.788  0.3044 -0.2152 -0.0600
 1487TIP3    H125876   3.809   4.372   4.721  0.1394  1.0387  0.2212
 1487TIP3    H225877   3.941   4.431   4.764  1.1204 -0.9501  0.0457
 1488TIP3   OH225878   6.774   2.568   6.261  0.3257 -0.3844  0.2831
 1488TIP3    H125879   6.730   2.637   6.312  2.0037  1.5219 -0.6798
 1488TIP3    H225880   6.838   2.531   6.321  0.7450  0.2777  0.2572
 1489TIP3   OH225881   1.527   4.973   4.628 -0.3355  0.1810 -0.1909
 1489TIP3    H125882   1.542   5.066   4.614  1.3660 -0.1427 -0.7226
 1489TIP3    H225883   1.507   4.965   4.722 -0.8088  1.0948 -0.2046
 1490TIP3   OH225884   5.673   4.188   0.544 -0.1271 -0.1338 -0.1867
 1490TIP3    H125885   5.732   4.179   0.470  1.9154 -1.9098  1.5109
 1490TIP3    H225886   5.714   4.254   0.600 -0.2069 -0.7158  0.5795
 1491TIP3   OH225887   1.395   6.465  12.277 -0.0707  0.3334 -0.1265
 1491TIP3    H125888   1.375   6.372  12.287  0.3795  0.4447  2.3922
 1491TIP3    H225889   1.332   6.496  12.212  0.8701 -2.0131 -2.3819
 1492TIP3   OH225890   5.784   5.793   1.831  0.0015  0.8652  0.2984
 1492TIP3    H125891   5.817   5.854   1.765 -0.8752 -0.2838 -1.2989
 1492TIP3    H225892   5.690   5.814   1.838 -0.3641 -0.3869 -0.4534
 1493TIP3   OH225893   5.818   5.530  13.248 -0.1341 -0.3161 -0.0937
 1493TIP3    H125894   5.865   5.539  13.166 -0.7319 -1.7867 -0.6362
 1493TIP3    H225895   5.864   5.460  13.295 -0.6490 -0.4773  0.1799
 1494TIP3   OH225896   0.367   1.923  15.484  0.1299 -0.2370 -0.6647
 1494TIP3    H125897   0.382   2.014  15.456  0.7785 -0.9031 -2.6638
 1494TIP3    H225898   0.390   1.923  15.577 -2.1101  2.1245  0.0072
 1495TIP3   OH225899   6.433   6.795   3.189 -0.3316  0.0742 -0.2826
 1495TIP3    H125900   6.427   6.760   3.278  0.5332 -0.1207 -0.2945
 1495TIP3    H225901   6.353   6.846   3.179 -0.5022 -0.0006  0.5621
 1496TIP3   OH225902   2.191   3.942   2.756  0.6929 -0.5594  0.5551
 1496TIP3    H125903   2.282   3.935   2.729  0.8864 -1.1605  1.3458
 1496TIP3    H225904   2.183   4.031   2.790  1.1599 -0.7381  1.1276
 1497TIP3   OH225905   6.629   6.690   5.277 -0.2025  0.2748 -0.2263
 1497TIP3    H125906   6.557   6.627   5.272  0.8310 -1.0866  1.0722
 1497TIP3    H225907   6.682   6.661   5.351  0.3609  2.6761  0.4049
 1498TIP3   OH225908   1.515   0.918  15.110  0.2249 -0.0329  0.2369
 1498TIP3    H125909   1.601   0.918  15.068  0.8532 -3.2188  1.2014
 1498TIP3    H225910   1.503   1.008  15.142  3.2741  0.4894  0.1977
 1499TIP3   OH225911   5.021   6.612   0.397  0.2302  0.3882 -0.0139
 1499TIP3    H125912   5.044   6.623   0.305 -0.9160  1.3954 -0.1968
 1499TIP3    H225913   5.011   6.701   0.431  2.1663  0.0968  1.5187
 1500TIP3   OH225914   6.279   3.136   1.126  0.2903  0.0368 -0.3904
 1500TIP3    H125915   6.289   3.230   1.146  1.2109 -0.1002 -0.1724
 1500TIP3    H225916   6.213   3.106   1.189  2.1584 -0.0867  1.6400
 1501TIP3   OH225917   3.840   2.340   1.750  0.3278 -0.1306  0.0106
 1501TIP3    H125918   3.887   2.402   1.694 -0.7550 -1.2113 -2.2248
 1501TIP3    H225919   3.895   2.261   1.749 -0.7483 -0.9179 -1.4618
 1502TIP3   OH225920   0.015   6.756  15.408  0.0111  0.0790  0.3552
 1502TIP3    H125921  -0.074   6.754  15.443  0.2261 -0.6667  0.8728
 1502TIP3    H225922   0.004   6.743  15.313 -0.4393  0.1558  0.3952
 1503TIP3   OH225923   1.700   4.380  13.796  0.4678 -0.1575 -0.0105
 1503TIP3    H125924   1.647   4.454  13.767  0.5946  0.2838  0.8689
 1503TIP3    H225925   1.639   4.306  13.797  0.2045  0.0526 -0.3219
 1504TIP3   OH225926   2.470   2.530  10.789 -0.2644 -0.4078  0.1902
 1504TIP3    H125927   2.496   2.508  10.878 -1.0405 -1.5311  0.1665
 1504TIP3    H225928   2.377   2.551  10.796 -0.0286  0.8126 -0.1512
 1505TIP3   OH225929   3.681   0.529   6.342 -0.2460 -0.4311 -0.4317
 1505TIP3    H125930   3.692   0.458   6.406  0.1083  0.7436  0.8523
 1505TIP3    H225931   3.639   0.599   6.391  2.3068  1.4704 -0.7139
 1506TIP3   OH225932   2.753   1.689   0.409 -0.7577  0.3934  0.6118
 1506TIP3    H125933   2.674   1.735   0.379 -1.8640 -1.8974 -0.2637
 1506TIP3    H225934   2.720   1.612   0.456  0.9660 -0.2162  0.9071
 1507TIP3   OH225935   4.697   3.403   2.947  0.5538  0.2617 -0.4376
 1507TIP3    H125936   4.756   3.355   3.006 -0.1615 -1.9499 -1.4021
 1507TIP3    H225937   4.639   3.451   3.005  0.3330 -1.2824  0.6887
 1508TIP3   OH225938   0.932   4.844   1.559  0.5172  0.2191 -0.2343
 1508TIP3    H125939   1.014   4.893   1.568  1.9221 -2.2914  2.5821
 1508TIP3    H225940   0.949   4.761   1.603 -3.7342 -0.2879  0.9010
 1509TIP3   OH225941   2.183   4.890  12.708  0.5093 -0.5434  0.1353
 1509TIP3    H125942   2.113   4.923  12.651  0.8555  0.5654  0.3358
 1509TIP3    H225943   2.254   4.868  12.648  0.8979  0.6872  0.1142
 1510TIP3   OH225944   4.263   0.814   4.721 -0.3599  0.2917  0.3845
 1510TIP3    H125945   4.213   0.736   4.744 -0.4982 -0.1730 -1.3584
 1510TIP3    H225946   4.344   0.806   4.771 -0.3194 -1.0471  0.1342
 1511TIP3   OH225947   4.109   1.987   0.991  0.3649  0.1026 -0.0634
 1511TIP3    H125948   4.068   2.058   0.941 -1.5791 -0.7035  0.2974
 1511TIP3    H225949   4.134   1.923   0.924 -1.5503 -0.6378 -0.1295
 1512TIP3   OH225950   3.144   6.285   2.322 -0.1491  0.0976 -0.1293
 1512TIP3    H125951   3.200   6.360   2.343 -1.5293  1.6499 -1.7179
 1512TIP3    H225952   3.119   6.298   2.231 -1.8321 -1.3822  0.0701
 1513TIP3   OH225953   4.985   4.973  12.578 -0.3040 -0.5894  0.0506
 1513TIP3    H125954   4.960   5.052  12.626  1.1229  0.6797 -1.1974
 1513TIP3    H225955   4.970   4.995  12.486 -1.2962 -2.3383 -0.2423
 1514TIP3   OH225956   1.133   4.990  10.805  0.4429 -0.2688 -0.5012
 1514TIP3    H125957   1.057   5.034  10.844  1.2678 -0.1571  1.0915
 1514TIP3    H225958   1.178   5.058  10.756  0.8190  0.2985  0.5939
 1515TIP3   OH225959   2.101   4.037  11.839  0.1353 -0.0900 -0.7895
 1515TIP3    H125960   2.117   4.119  11.885 -2.0520  0.6610 -1.2264
 1515TIP3    H225961   2.180   4.022  11.787  1.6062  0.3517  1.2299
 1516TIP3   OH225962   1.403   0.131  13.641 -0.4783  0.3276  0.2132
 1516TIP3    H125963   1.313   0.125  13.674 -1.0790  0.0557 -1.4061
 1516TIP3    H225964   1.404   0.077  13.562  0.9864  0.7332 -0.0870
 1517TIP3   OH225965   0.230   5.376  16.528 -0.1156  0.1826  0.2435
 1517TIP3    H125966   0.138   5.381  16.500  0.0419  0.8821 -0.1733
 1517TIP3    H225967   0.242   5.285  16.553 -1.4506  0.4628  2.1316
 1518TIP3   OH225968   3.844   2.104  10.981 -0.2480 -0.7454  0.0979
 1518TIP3    H125969   3.751   2.084  10.969  0.0579 -1.4119 -1.4529
 1518TIP3    H225970   3.884   2.020  11.001 -0.0828 -0.3156  1.6871
 1519TIP3   OH225971   5.003   0.566  13.058 -0.4386 -0.2425  0.0895
 1519TIP3    H125972   4.912   0.552  13.085 -0.7744  1.6746  0.0911
 1519TIP3    H225973   5.055   0.542  13.134 -0.7777 -2.7889 -0.3753
 1520TIP3   OH225974   3.666   2.130  14.182 -0.0146 -0.2044  0.7692
 1520TIP3    H125975   3.675   2.127  14.277  4.1222 -0.6615  0.5132
 1520TIP3    H225976   3.691   2.219  14.158  0.3810 -0.5217 -0.0033
 1521TIP3   OH225977   1.965   5.820  11.025 -0.1040  0.1400  0.5354
 1521TIP3    H125978   1.970   5.726  11.039  1.8243 -0.0081 -0.6842
 1521TIP3    H225979   1.937   5.830  10.934  2.6097  0.5582 -0.3779
 1522TIP3   OH225980   2.272   0.558   1.378  0.0458 -0.4852  0.2122
 1522TIP3    H125981   2.196   0.517   1.336 -0.6648  0.3650  0.6264
 1522TIP3    H225982   2.249   0.651   1.382  1.5734 -0.0467 -0.6300
 1523TIP3   OH225983   4.359   1.764   5.254 -0.2696 -0.1458 -0.5634
 1523TIP3    H125984   4.411   1.788   5.178 -0.6505 -2.1997 -1.5616
 1523TIP3    H225985   4.289   1.708   5.219 -1.1251 -0.2461  1.1612
 1524TIP3   OH225986   0.411   1.679  12.889  0.0297  0.1067 -0.4610
 1524TIP3    H125987   0.327   1.695  12.847  0.3101 -0.2495 -1.1724
 1524TIP3    H225988   0.410   1.735  12.967 -0.4804  0.8249 -0.9674
 1525TIP3   OH225989   2.637   3.581  15.627  0.4828 -0.1012  0.5693
 1525TIP3    H125990   2.683   3.498  15.617  0.8894  0.1687  0.1401
 1525TIP3    H225991   2.548   3.564  15.594  0.9849  0.0144 -0.9221
 1526TIP3   OH225992   0.203   2.857   3.590 -0.2581 -0.1806 -0.9050
 1526TIP3    H125993   0.248   2.788   3.639 -1.3821  1.0287  2.0940
 1526TIP3    H225994   0.126   2.814   3.552  0.4313 -1.0805 -1.3214
 1527TIP3   OH225995   6.719   0.581  11.586  0.6446  0.2612 -0.7604
 1527TIP3    H125996   6.803   0.619  11.610  0.4313  0.5455 -0.4457
 1527TIP3    H225997   6.717   0.496  11.629  0.3577  0.6741  0.0511
 1528TIP3   OH225998   5.577   2.943  14.972 -0.3060 -0.3137 -0.3940
 1528TIP3    H125999   5.562   3.010  15.039 -0.3305  0.2855 -0.9852
 1528TIP3    H226000   5.493   2.934  14.928 -0.4864 -1.2392  0.1264
 1529TIP3   OH226001   6.315   3.997   1.680  0.0378 -0.0339  0.1309
 1529TIP3    H126002   6.349   3.965   1.764 -0.1332 -1.2575 -0.2510
 1529TIP3    H226003   6.384   4.055   1.648  0.9287 -0.9761  0.2762
 1530TIP3   OH226004   4.373   1.358   6.200 -0.0758  0.0838  0.0294
 1530TIP3    H126005   4.466   1.373   6.179  0.1364  0.6599  1.2751
 1530TIP3    H226006   4.369   1.366   6.295 -1.4044  0.0055 -0.0081
 1531TIP3   OH226007   2.300   5.097  15.021  0.2589  0.0878 -0.3857
 1531TIP3    H126008   2.233   5.162  15.042  0.4554  0.1069  0.2057
 1531TIP3    H226009   2.374   5.148  14.990  0.6158  0.2052  0.6069
 1532TIP3   OH226010   4.662   2.869  10.349  0.0106 -0.6006  0.5184
 1532TIP3    H126011   4.758   2.864  10.346 -0.0401 -2.9025  0.4197
 1532TIP3    H226012   4.641   2.863  10.442 -0.0359  1.4904  0.6761
 1533TIP3   OH226013   1.424   3.859   5.876 -0.4261  0.2201  0.7464
 1533TIP3    H126014   1.422   3.787   5.939  1.8286 -0.1949  0.4431
 1533TIP3    H226015   1.452   3.935   5.927 -2.8563  0.9705  1.0778
 1534TIP3   OH226016   0.078   3.344   5.125 -0.4471  0.3374 -0.0220
 1534TIP3    H126017   0.034   3.325   5.042 -0.8313 -0.3942  0.3489
 1534TIP3    H226018   0.066   3.439   5.137  1.4475  0.8865 -1.8534
 1535TIP3   OH226019   6.215   4.279  13.764  0.2270 -0.6079 -0.0053
 1535TIP3    H126020   6.153   4.309  13.698  0.9418 -1.1241 -0.9387
 1535TIP3    H226021   6.283   4.347  13.767 -0.8849  0.5092  1.8048
 1536TIP3   OH226022   6.722   2.234  11.519  0.2172 -0.0310  0.0709
 1536TIP3    H126023   6.716   2.159  11.460 -2.3849 -0.6021  0.9293
 1536TIP3    H226024   6.759   2.197  11.600  2.9277  0.5680 -0.7990
 1537TIP3   OH226025   1.996   6.250  17.155 -0.1423  0.4214 -0.6959
 1537TIP3    H126026   1.982   6.340  17.127 -0.2086  0.9963  1.0939
 1537TIP3    H226027   2.087   6.248  17.185 -0.7642  0.4967  1.3116
 1538TIP3   OH226028   2.000   2.974   0.170  0.3429  0.5822  0.5596
 1538TIP3    H126029   2.000   3.067   0.193 -2.2057  0.7070  0.3453
 1538TIP3    H226030   2.093   2.952   0.160  0.9995  3.2416 -0.0178
 1539TIP3   OH226031   4.169   4.763  11.667 -0.3298  0.5065  0.2611
 1539TIP3    H126032   4.148   4.740  11.758  0.9897  1.1984  0.7575
 1539TIP3    H226033   4.185   4.679  11.625 -1.2060  0.1570  0.5820
 1540TIP3   OH226034   5.608   4.020  10.763 -0.0493 -0.3284  0.1991
 1540TIP3    H126035   5.536   3.959  10.747 -0.6576  0.4905 -0.3368
 1540TIP3    H226036   5.623   4.061  10.678 -1.2619  1.9445  0.9976
 1541TIP3   OH226037   2.005   4.939  16.941 -0.0701  0.6618  0.2626
 1541TIP3    H126038   2.063   4.960  16.868 -1.0365 -1.9464 -1.3917
 1541TIP3    H226039   2.056   4.880  16.996 -0.2352  0.5077  0.2515
 1542TIP3   OH226040   4.993   3.924  13.407  0.2970 -0.7543 -0.5427
 1542TIP3    H126041   4.950   3.949  13.325 -1.1385  1.2402  0.7441
 1542TIP3    H226042   4.934   3.858  13.445  0.0806 -0.4235 -0.3077
 1543TIP3   OH226043   1.388   1.181   2.087 -0.3697 -0.1228 -0.6924
 1543TIP3    H126044   1.315   1.130   2.051  0.2470 -0.9974 -0.7270
 1543TIP3    H226045   1.459   1.118   2.096  1.1571  1.1489 -2.8404
 1544TIP3   OH226046   5.970   1.850  17.040 -0.0466 -0.4705  0.3987
 1544TIP3    H126047   5.956   1.942  17.060  1.7373 -0.0182 -0.2517
 1544TIP3    H226048   6.035   1.821  17.104  0.9529 -0.6879 -0.6688
 1545TIP3   OH226049   5.855   0.942   0.786  0.4199  0.3327  0.2986
 1545TIP3    H126050   5.764   0.926   0.811  0.1268  0.6090 -0.5355
 1545TIP3    H226051   5.907   0.894   0.850 -0.2135  2.3109  2.4177
 1546TIP3   OH226052   4.678   4.915  12.255  0.1316  0.1603 -0.5359
 1546TIP3    H126053   4.703   4.934  12.346  1.1010 -0.1913 -0.7194
 1546TIP3    H226054   4.739   4.966  12.202  0.6867 -0.9378 -0.9945
 1547TIP3   OH226055   3.418   2.412  11.718 -0.3461  0.2891 -0.1455
 1547TIP3    H126056   3.420   2.491  11.664 -2.5733  0.1770 -0.4745
 1547TIP3    H226057   3.335   2.369  11.696  1.8288 -3.5743 -1.9469
 1548TIP3   OH226058   6.469   5.687  11.418  0.4898 -0.1043  0.2218
 1548TIP3    H126059   6.561   5.661  11.411  0.9890  1.9040 -1.6232
 1548TIP3    H226060   6.463   5.729  11.504  1.0076 -1.1877  0.8080
 1549TIP3   OH226061   5.767   2.776  15.093 -0.1937 -0.2034 -0.1624
 1549TIP3    H126062   5.738   2.685  15.087  2.6916 -1.1919 -0.6929
 1549TIP3    H226063   5.709   2.823  15.033  0.6681 -2.4594 -3.0487
 1550TIP3   OH226064   3.036   0.406   2.961 -0.1798 -0.0797 -0.1144
 1550TIP3    H126065   2.950   0.371   2.985  0.0835  1.9141  4.8743
 1550TIP3    H226066   3.018   0.494   2.930 -0.0113  0.2544  0.7092
 1551TIP3   OH226067   5.430   4.099   4.629 -0.1519  0.4588 -0.3921
 1551TIP3    H126068   5.411   4.008   4.649 -0.4923  0.6685  0.2429
 1551TIP3    H226069   5.526   4.104   4.628 -0.1281  0.0047 -0.8715
 1552TIP3   OH226070   6.047   1.490  13.790 -0.0432  0.4217 -0.4353
 1552TIP3    H126071   6.010   1.409  13.755 -2.3698  0.4679  1.6013
 1552TIP3    H226072   6.090   1.464  13.871 -1.5149  1.2265  0.6720
 1553TIP3   OH226073   5.220   6.776  13.324 -0.2786  0.3143 -0.2666
 1553TIP3    H126074   5.150   6.771  13.259 -0.7906  0.7479  0.2352
 1553TIP3    H226075   5.197   6.852  13.377 -0.0095 -0.1871  0.5830
 1554TIP3   OH226076   1.781   3.464   2.592 -0.3139 -0.1173  0.3664
 1554TIP3    H126077   1.771   3.389   2.650  0.3723 -0.7268 -0.2883
 1554TIP3    H226078   1.726   3.443   2.516  0.7558 -0.5017 -0.3274
 1555TIP3   OH226079   0.729   1.242  11.917 -0.2728  0.4876  0.5036
 1555TIP3    H126080   0.657   1.274  11.971 -0.9663 -1.2124  0.6281
 1555TIP3    H226081   0.736   1.149  11.938 -0.4371 -0.1958 -2.1380
 1556TIP3   OH226082   5.126   4.644  12.309  0.2491  0.0105 -0.1967
 1556TIP3    H126083   5.154   4.620  12.220 -1.0766 -1.7062 -0.2022
 1556TIP3    H226084   5.191   4.708  12.338  0.5454  0.8571 -2.5051
 1557TIP3   OH226085   2.392   4.589  12.061 -0.5460  0.1411 -0.2158
 1557TIP3    H126086   2.480   4.579  12.096 -0.0950  0.5088 -1.1904
 1557TIP3    H226087   2.334   4.567  12.133  0.3450  0.2935  0.5618
 1558TIP3   OH226088   1.766   3.405  10.796  0.1024 -0.3985 -0.2726
 1558TIP3    H126089   1.689   3.447  10.834 -0.4560 -1.0523 -0.6438
 1558TIP3    H226090   1.736   3.317  10.772  1.1528 -0.9157  0.2136
 1559TIP3   OH226091   6.767   5.071  13.936 -1.5586 -0.1864 -0.0752
 1559TIP3    H126092   6.809   5.019  14.004  0.3008  0.4623 -0.6588
 1559TIP3    H226093   6.801   5.159  13.948 -1.3080 -0.0195 -1.7185
 1560TIP3   OH226094   6.172   5.816   1.583  0.8069 -0.2659 -0.5368
 1560TIP3    H126095   6.168   5.827   1.678 -1.4337 -0.5062 -0.5318
 1560TIP3    H226096   6.181   5.904   1.548  2.3695 -0.2371 -0.1101
 1561TIP3   OH226097   4.754   4.565   4.357  0.6132 -0.0438 -0.3410
 1561TIP3    H126098   4.681   4.514   4.393  0.9276 -0.4703 -0.2913
 1561TIP3    H226099   4.713   4.637   4.311  0.1153 -0.8689 -1.2244
 1562TIP3   OH226100   0.824   0.682   3.525  1.0428  0.1361 -0.1155
 1562TIP3    H126101   0.798   0.661   3.435 -0.1123 -1.7577  0.6238
 1562TIP3    H226102   0.864   0.601   3.558 -0.2768  0.1550  1.6759
 1563TIP3   OH226103   3.981   6.121   3.812 -0.2423  0.0059  0.2533
 1563TIP3    H126104   3.909   6.166   3.856 -1.0631  0.1559 -1.1783
 1563TIP3    H226105   3.989   6.164   3.727  1.3572 -0.2071  0.2507
 1564TIP3   OH226106   3.933   0.768  15.952  0.4742  0.9838 -0.4017
 1564TIP3    H126107   3.934   0.801  16.042  0.0522  0.4050 -0.1769
 1564TIP3    H226108   3.912   0.675  15.961  1.7762  0.6112 -1.0171
 1565TIP3   OH226109   5.286   6.285   3.752 -0.0152  0.0456  0.0545
 1565TIP3    H126110   5.256   6.272   3.662 -1.4263  2.9235 -0.0020
 1565TIP3    H226111   5.283   6.197   3.790  0.9745 -1.3463 -2.7328
 1566TIP3   OH226112   3.458   1.153   3.930 -0.1270  0.0103  0.2336
 1566TIP3    H126113   3.538   1.104   3.948  0.3551  0.7774  0.2033
 1566TIP3    H226114   3.431   1.187   4.015 -0.1230  0.2120  0.1536
 1567TIP3   OH226115   3.878   5.337   3.129  0.4049 -0.0862 -0.5572
 1567TIP3    H126116   3.805   5.282   3.158  0.7824 -0.9721 -1.2354
 1567TIP3    H226117   3.916   5.370   3.210 -1.2436  1.0845 -0.1980
 1568TIP3   OH226118   0.507   3.414  15.494 -0.1861  0.0509  0.0189
 1568TIP3    H126119   0.533   3.322  15.492 -2.0644 -0.5814 -3.3361
 1568TIP3    H226120   0.414   3.412  15.519 -0.2003  1.0654  0.0844
 1569TIP3   OH226121   3.929   5.665   2.926 -0.1522 -0.7056 -0.1475
 1569TIP3    H126122   3.898   5.575   2.914 -0.8236 -0.1788 -2.8020
 1569TIP3    H226123   3.883   5.716   2.860  1.8760  1.1989 -0.2010
 1570TIP3   OH226124   2.618   2.213  16.503  0.6266 -0.8881 -0.5093
 1570TIP3    H126125   2.623   2.296  16.551  0.8354 -0.1830 -1.7060
 1570TIP3    H226126   2.556   2.231  16.432  0.2625 -1.9361 -0.4716
 1571TIP3   OH226127   0.086   4.925  11.160 -0.4273 -0.1991  0.0332
 1571TIP3    H126128   0.151   4.861  11.131  0.6266  0.7494  0.2349
 1571TIP3    H226129   0.026   4.875  11.215 -1.2659 -1.5875 -2.0158
 1572TIP3   OH226130   4.227   1.435  15.173  0.2182 -0.3913 -0.5280
 1572TIP3    H126131   4.185   1.521  15.181  0.7932  0.0430 -1.8240
 1572TIP3    H226132   4.173   1.376  15.226 -0.2127  0.7532  0.3554
 1573TIP3   OH226133   5.111   3.757  14.386  0.1043 -0.0801  0.2577
 1573TIP3    H126134   5.057   3.680  14.367 -0.7222  0.0374  1.9860
 1573TIP3    H226135   5.134   3.748  14.478  1.8690  0.6217 -0.0792
 1574TIP3   OH226136   2.758   4.198   0.742  0.3176  0.2423  0.1378
 1574TIP3    H126137   2.741   4.104   0.739  1.1533  0.1066 -1.0842
 1574TIP3    H226138   2.790   4.214   0.831  0.1212 -0.6249  0.3689
 1575TIP3   OH226139   4.563   1.136  15.549 -0.1527  0.3877  0.0317
 1575TIP3    H126140   4.557   1.122  15.455  0.9880  0.6674 -0.1086
 1575TIP3    H226141   4.509   1.067  15.588  1.4904 -1.4616 -0.7614
 1576TIP3   OH226142   4.364   3.328  13.727  0.3767 -0.8030  0.1418
 1576TIP3    H126143   4.343   3.308  13.636  1.7718 -3.2116  0.2793
 1576TIP3    H226144   4.457   3.351  13.726 -0.0725  1.3407  0.7250
 1577TIP3   OH226145   5.558   2.324  14.262  0.2172 -0.0906  0.2771
 1577TIP3    H126146   5.506   2.245  14.245  1.0351 -0.5918  0.0274
 1577TIP3    H226147   5.632   2.292  14.314  2.2193 -0.0975 -2.3519
 1578TIP3   OH226148   2.060   4.072   4.174 -0.1661  0.0606 -0.2383
 1578TIP3    H126149   1.976   4.052   4.215  0.4756 -0.0782  1.0797
 1578TIP3    H226150   2.057   4.166   4.158 -0.0844  0.3133  1.0559
 1579TIP3   OH226151   1.266   2.525   3.353 -0.3509  0.3064 -0.5802
 1579TIP3    H126152   1.225   2.600   3.395  3.1145  0.6619  2.6700
 1579TIP3    H226153   1.249   2.452   3.412 -0.6764 -0.7497 -1.9138
 1580TIP3   OH226154   0.412   0.971   2.181 -0.5646 -0.9920  0.0363
 1580TIP3    H126155   0.498   1.009   2.160 -0.3901 -0.5026  1.5078
 1580TIP3    H226156   0.376   1.030   2.248 -2.2540 -0.9391 -0.8798
 1581TIP3   OH226157   6.733   6.376  12.704 -0.4194 -0.2254 -0.3822
 1581TIP3    H126158   6.828   6.387  12.706 -0.1688 -2.1216  0.6847
 1581TIP3    H226159   6.698   6.462  12.729  1.0820 -0.0572  1.3028
 1582TIP3   OH226160   2.903   5.640   2.269 -0.4512  0.5269  0.4708
 1582TIP3    H126161   2.916   5.545   2.264 -1.1732  0.3984  0.9837
 1582TIP3    H226162   2.899   5.658   2.363 -3.1072  0.6624  0.3948
 1583TIP3   OH226163   0.210   4.646  15.373  0.1329  0.5351  0.1814
 1583TIP3    H126164   0.225   4.644  15.468 -0.8545  0.5558  0.3454
 1583TIP3    H226165   0.297   4.660  15.336  0.8637 -1.5816  0.9832
 1584TIP3   OH226166   6.472   3.280   0.107 -0.4503  0.6872 -0.3208
 1584TIP3    H126167   6.402   3.316   0.053 -0.4714 -0.1970 -0.9124
 1584TIP3    H226168   6.428   3.247   0.185 -0.6590  0.4308 -0.5433
 1585TIP3   OH226169   0.213   5.525   1.537  0.4204 -0.3334 -0.6309
 1585TIP3    H126170   0.202   5.546   1.444  1.1550  1.6165 -0.3151
 1585TIP3    H226171   0.291   5.469   1.539  2.1632  1.9675 -0.9628
 1586TIP3   OH226172   0.097   4.819  11.802  0.1607  0.0565 -0.3610
 1586TIP3    H126173   0.055   4.802  11.718  2.3971 -0.5377 -1.4356
 1586TIP3    H226174   0.121   4.732  11.835 -3.3995 -0.0504  2.5059
 1587TIP3   OH226175   3.968   6.663   5.773  0.0519  0.0322  0.1107
 1587TIP3    H126176   4.034   6.710   5.824  1.1098 -1.3361  0.0691
 1587TIP3    H226177   3.985   6.570   5.792 -1.3541 -0.3810 -0.5346
 1588TIP3   OH226178   4.062   2.656  15.711 -0.4627  0.0484  0.6179
 1588TIP3    H126179   4.067   2.649  15.616 -0.8449 -2.2842  0.7049
 1588TIP3    H226180   4.077   2.748  15.730  0.1446  0.4607 -1.6603
 1589TIP3   OH226181   3.917   4.540  13.413  0.1247  0.7130 -0.0362
 1589TIP3    H126182   3.901   4.447  13.397  2.3604  0.5044 -1.4716
 1589TIP3    H226183   3.837   4.571  13.456 -1.1821 -1.5744 -0.6500
 1590TIP3   OH226184   1.051   3.655  11.250  0.3413 -0.0716 -0.5839
 1590TIP3    H126185   1.038   3.662  11.155  0.1522 -0.7118 -0.6119
 1590TIP3    H226186   0.983   3.710  11.288  1.0737  1.0434 -0.8310
 1591TIP3   OH226187   0.106   5.414  10.686 -0.4443 -0.2759  0.1369
 1591TIP3    H126188   0.041   5.358  10.729  0.2561 -0.6649  0.7226
 1591TIP3    H226189   0.063   5.445  10.607 -0.5653 -2.3351 -0.6503
 1592TIP3   OH226190   3.217   3.768   4.158 -0.7959 -0.3518 -0.0639
 1592TIP3    H126191   3.153   3.766   4.087 -1.2844  0.6138  0.3375
 1592TIP3    H226192   3.249   3.858   4.160 -1.0418 -0.2714  1.1474
 1593TIP3   OH226193   3.107   5.783   0.406 -0.0569 -0.7503 -0.6517
 1593TIP3    H126194   3.044   5.710   0.411  0.0900 -0.9114 -1.1537
 1593TIP3    H226195   3.148   5.784   0.493 -2.1589  0.6284  0.4120
 1594TIP3   OH226196   2.490   5.591   1.295  0.8081  0.1101  0.4500
 1594TIP3    H126197   2.431   5.517   1.307  0.3793  0.0405 -1.6383
 1594TIP3    H226198   2.493   5.604   1.200  1.3587  2.3883  0.7180
 1595TIP3   OH226199   0.651   5.705  10.553  0.0095 -0.4495 -0.4105
 1595TIP3    H126200   0.675   5.796  10.534 -0.8274 -0.3999 -1.2906
 1595TIP3    H226201   0.646   5.701  10.648  0.6619  0.2653 -0.3360
 1596TIP3   OH226202   6.758   0.916   2.767 -0.0566 -0.3899 -0.4687
 1596TIP3    H126203   6.817   0.862   2.820  0.6879 -0.4100 -1.3021
 1596TIP3    H226204   6.691   0.854   2.736 -1.6420 -0.0420  1.9725
 1597TIP3   OH226205   3.267   4.613  12.194  0.6850 -0.4084  0.3881
 1597TIP3    H126206   3.263   4.534  12.247  2.0342 -1.5922 -1.1779
 1597TIP3    H226207   3.361   4.632  12.186  0.4021  1.3187  0.6606
 1598TIP3   OH226208   4.418   3.358  14.387  0.0616  1.0806 -0.0702
 1598TIP3    H126209   4.508   3.384  14.367  0.4272  0.3253  0.5623
 1598TIP3    H226210   4.367   3.389  14.311  0.9823  0.7657 -0.8434
 1599TIP3   OH226211   3.620   1.861  14.390  0.0500  0.7210  0.4139
 1599TIP3    H126212   3.713   1.851  14.368  0.1687 -0.9205  1.4555
 1599TIP3    H226213   3.574   1.809  14.325 -0.0630  0.7381  0.4789
 1600TIP3   OH226214   4.667   2.279  15.976 -0.5075 -0.2045  0.0527
 1600TIP3    H126215   4.574   2.302  15.973 -0.8599 -1.4960 -2.7306
 1600TIP3    H226216   4.711   2.362  15.993 -2.1327  0.3690  1.8421
 1601TIP3   OH226217   6.200   3.654   4.976 -0.2014  0.0299  0.0861
 1601TIP3    H126218   6.258   3.580   4.960  0.6145  0.8428 -0.8303
 1601TIP3    H226219   6.251   3.715   5.028 -0.1348  0.8386 -0.8932
 1602TIP3   OH226220   4.491   4.016   3.567 -0.8700  0.1797  0.8891
 1602TIP3    H126221   4.559   3.957   3.599 -0.7165  0.4632  1.0915
 1602TIP3    H226222   4.431   3.960   3.518 -0.3687 -0.0382  0.5125
 1603TIP3   OH226223   5.162   6.494  12.618 -0.3775  0.2131  0.7785
 1603TIP3    H126224   5.114   6.471  12.697  1.1457  0.2949  1.7449
 1603TIP3    H226225   5.228   6.557  12.646 -0.5527  1.1504 -0.7661
 1604TIP3   OH226226   5.709   2.376  15.551  0.5754 -0.7778  0.9176
 1604TIP3    H126227   5.716   2.361  15.457  0.2549  0.9132  0.5872
 1604TIP3    H226228   5.796   2.354  15.586  0.4651 -2.1755  0.3685
 1605TIP3   OH226229   3.807   3.346  14.199 -0.6866 -0.0574 -0.1397
 1605TIP3    H126230   3.788   3.255  14.220 -1.1388  0.2837  1.0085
 1605TIP3    H226231   3.850   3.380  14.278 -3.3961  1.5663  0.7694
 1606TIP3   OH226232   1.042   1.344  13.356  0.2102 -0.1216  0.0433
 1606TIP3    H126233   1.032   1.406  13.283  0.9884  0.6010  0.5267
 1606TIP3    H226234   1.036   1.398  13.434 -0.0305 -0.8067  0.5072
 1607TIP3   OH226235   3.531   1.657  16.869  0.0803  0.4288  0.1564
 1607TIP3    H126236   3.477   1.585  16.837  0.7903  0.5998 -1.5189
 1607TIP3    H226237   3.480   1.696  16.940 -1.3420 -0.2964 -0.4360
 1608TIP3   OH226238   2.470   1.087  13.019  0.1868 -0.6418  0.4207
 1608TIP3    H126239   2.502   1.005  12.981  1.2901 -0.7581  1.5461
 1608TIP3    H226240   2.485   1.078  13.113 -0.4363  0.5261  0.6558
 1609TIP3   OH226241   4.159   4.677  15.057 -0.9821  0.3659 -0.0475
 1609TIP3    H126242   4.137   4.724  14.977  0.3071  0.0603 -0.6061
 1609TIP3    H226243   4.110   4.595  15.052 -2.0388  0.9637  0.1980
 1610TIP3   OH226244   1.426   6.291  15.470 -0.1117  0.8112  0.1187
 1610TIP3    H126245   1.367   6.356  15.433  0.4076  2.2768  1.7276
 1610TIP3    H226246   1.499   6.287  15.408  0.0751  2.1687  0.2156
 1611TIP3   OH226247   1.417   1.252  14.631 -0.3057  0.1774 -0.6341
 1611TIP3    H126248   1.481   1.200  14.679 -0.5102  0.2072 -0.3294
 1611TIP3    H226249   1.465   1.332  14.607  0.0537 -0.2073 -1.2333
 1612TIP3   OH226250   2.786   2.189  12.819  0.3241 -0.2515 -0.6527
 1612TIP3    H126251   2.777   2.109  12.766  1.1313 -0.4689 -0.4802
 1612TIP3    H226252   2.703   2.235  12.808  0.4122 -0.3858 -1.9571
 1613TIP3   OH226253   0.725   2.536   6.855 -0.1276  0.3569  0.0754
 1613TIP3    H126254   0.653   2.597   6.837 -0.3133 -0.0842 -0.7103
 1613TIP3    H226255   0.692   2.451   6.827  0.3451 -0.0157  0.6333
 1614TIP3   OH226256   1.891   3.796  15.240  0.4513  0.1662 -0.0699
 1614TIP3    H126257   1.931   3.828  15.322  0.5699  0.2007 -0.1409
 1614TIP3    H226258   1.826   3.732  15.268 -0.2325  0.9285  0.1131
 1615TIP3   OH226259   2.359   4.904  12.480  0.0663  0.1349 -0.7577
 1615TIP3    H126260   2.446   4.931  12.509 -0.2022  0.0042  0.2063
 1615TIP3    H226261   2.369   4.888  12.386  1.6387 -2.0745 -0.2773
 1616TIP3   OH226262   2.775   4.031   3.350  0.2805 -0.3873  0.1153
 1616TIP3    H126263   2.707   4.033   3.417 -0.0811  2.2385 -0.2198
 1616TIP3    H226264   2.858   4.038   3.398 -0.0492  4.5807  0.4131
 1617TIP3   OH226265   4.917   5.903  13.173  0.4106  1.0342 -1.0315
 1617TIP3    H126266   4.925   5.894  13.268 -0.2450 -0.2565 -1.0843
 1617TIP3    H226267   4.935   5.996  13.157 -0.3169  1.4638  0.4364
 1618TIP3   OH226268   5.181   0.410   4.441 -0.6244  0.1577 -0.0686
 1618TIP3    H126269   5.248   0.352   4.478 -0.1782  1.2422  0.8838
 1618TIP3    H226270   5.099   0.375   4.475 -0.2983  0.5391  1.1645
 1619TIP3   OH226271   1.816   3.074  12.543  0.2246 -0.1915  0.1519
 1619TIP3    H126272   1.834   3.165  12.566  1.9506 -0.1342 -1.2726
 1619TIP3    H226273   1.796   3.076  12.449 -0.5142 -1.1997  0.2639
 1620TIP3   OH226274   1.993   2.057  16.911 -0.1639  0.1313 -0.2205
 1620TIP3    H126275   2.004   2.144  16.949 -0.8571 -0.8396  2.4488
 1620TIP3    H226276   2.052   2.001  16.961 -1.1064 -1.2434 -0.5658
 1621TIP3   OH226277   5.101   1.229  16.135 -0.3864  0.5191  0.0302
 1621TIP3    H126278   5.063   1.186  16.212 -2.2611  1.1301 -0.5045
 1621TIP3    H226279   5.139   1.158  16.084 -1.9211 -0.3114 -0.0098
 1622TIP3   OH226280   0.006   4.477   2.063 -0.3940 -0.3809  0.4341
 1622TIP3    H126281   0.080   4.423   2.092  1.0377  0.2811 -1.7263
 1622TIP3    H226282   0.025   4.564   2.099 -0.0604 -0.1908 -0.1927
 1623TIP3   OH226283   3.113   3.091   4.109  0.0382  0.3220  0.3683
 1623TIP3    H126284   3.209   3.089   4.113  0.1063 -0.7736 -0.9734
 1623TIP3    H226285   3.085   3.040   4.185  0.6608 -2.4845 -1.1472
 1624TIP3   OH226286   5.920   4.609  14.847 -0.1401 -0.4805 -0.6355
 1624TIP3    H126287   5.940   4.682  14.905  0.0737  0.1375 -1.4621
 1624TIP3    H226288   5.974   4.537  14.879 -0.4160 -0.3077  0.2401
 1625TIP3   OH226289   3.292   2.129  16.418  0.3409  0.0024  0.3071
 1625TIP3    H126290   3.290   2.068  16.344  0.2612 -1.3925  1.4361
 1625TIP3    H226291   3.383   2.160  16.421  0.6203 -0.8085  0.3208
 1626TIP3   OH226292   3.362   4.176   0.866 -0.3917 -0.1049  0.0769
 1626TIP3    H126293   3.354   4.117   0.941 -2.8864  1.1551  0.9185
 1626TIP3    H226294   3.415   4.249   0.897  0.8154 -0.8164 -0.2627
 1627TIP3   OH226295   3.961   5.575   1.503 -0.3693  0.1347 -0.8827
 1627TIP3    H126296   4.020   5.638   1.462  1.7835 -0.5661  1.0001
 1627TIP3    H226297   4.013   5.533   1.571 -2.8705 -0.9919  0.4617
 1628TIP3   OH226298   2.784   3.919   2.706  0.3915 -0.1292  0.1695
 1628TIP3    H126299   2.768   3.854   2.774 -0.9745 -2.2605 -2.0379
 1628TIP3    H226300   2.704   3.921   2.654  0.9052  2.3533 -0.6999
 1629TIP3   OH226301   0.368   2.610  16.071 -0.1321 -0.4859  0.3836
 1629TIP3    H126302   0.323   2.641  15.992 -0.5433 -2.7977 -0.3794
 1629TIP3    H226303   0.407   2.688  16.109 -0.3331  0.7850 -1.8427
 1630TIP3   OH226304   6.140   0.948  15.373  0.0272 -0.0421 -0.5740
 1630TIP3    H126305   6.199   0.902  15.314  0.1317  0.9174 -1.2453
 1630TIP3    H226306   6.053   0.912  15.353  0.3682 -1.5827  0.5398
 1631TIP3   OH226307   5.098   4.784   1.602 -0.1779  0.3640  0.1366
 1631TIP3    H126308   5.038   4.855   1.578 -0.1030 -0.1198 -1.6573
 1631TIP3    H226309   5.050   4.704   1.582  0.6779 -0.0436 -0.3629
 1632TIP3   OH226310   6.632   5.382  12.940  0.5605 -0.2731  0.4125
 1632TIP3    H126311   6.606   5.468  12.906 -0.2937 -0.6295  0.1369
 1632TIP3    H226312   6.555   5.327  12.927  0.2369 -0.4886  2.7655
 1633TIP3   OH226313   2.812   4.185   0.009  0.1541 -0.3766  0.1125
 1633TIP3    H126314   2.837   4.160   0.098  1.9999 -1.3341 -0.6164
 1633TIP3    H226315   2.770   4.107  -0.027  0.2847 -0.3147 -0.1764
 1634TIP3   OH226316   2.867   4.109  11.545  0.8347  0.2718  0.1767
 1634TIP3    H126317   2.954   4.109  11.507 -0.1453 -0.8002 -2.2802
 1634TIP3    H226318   2.822   4.183  11.502  0.4504  0.7287  1.3056
 1635TIP3   OH226319   1.084   5.982   5.699 -0.3153  0.0102  0.1230
 1635TIP3    H126320   1.073   5.988   5.794  0.1756  2.4395  0.1037
 1635TIP3    H226321   1.118   6.068   5.673 -0.0764 -0.7028 -2.2203
 1636TIP3   OH226322   3.054   5.384   2.470 -0.3217  0.1758 -0.2333
 1636TIP3    H126323   3.073   5.478   2.473  0.3765  0.1095 -1.6315
 1636TIP3    H226324   3.001   5.367   2.547 -2.3591  2.1517 -1.1144
 1637TIP3   OH226325   3.291   5.875  11.284 -0.2886 -0.2842  0.2971
 1637TIP3    H126326   3.229   5.930  11.332 -0.0831 -0.0406  0.2847
 1637TIP3    H226327   3.250   5.861  11.199 -1.4885 -2.1824  1.1247
 1638TIP3   OH226328   5.334   2.664   2.520 -0.0974  0.3525 -0.6726
 1638TIP3    H126329   5.348   2.578   2.561  1.4685  0.7143 -0.3803
 1638TIP3    H226330   5.245   2.660   2.487 -0.5032 -0.9303  0.4543
 1639TIP3   OH226331   4.195   6.567   5.486  0.5020  0.3088 -0.7239
 1639TIP3    H126332   4.164   6.498   5.545  0.0372  0.4171 -0.8349
 1639TIP3    H226333   4.142   6.556   5.406 -1.4654  2.3757  0.1731
 1640TIP3   OH226334   3.993   2.265   5.784  0.2463 -0.0021  0.3383
 1640TIP3    H126335   3.922   2.279   5.847 -0.4183 -0.4792 -0.2914
 1640TIP3    H226336   4.001   2.348   5.738  0.4391  0.2087  0.7439
 1641TIP3   OH226337   4.145   5.707   0.985  0.5004  0.0540 -0.3072
 1641TIP3    H126338   4.183   5.694   0.898  0.7678  1.8042 -0.4883
 1641TIP3    H226339   4.202   5.772   1.026 -0.5775  0.4893  0.5412
 1642TIP3   OH226340   6.666   4.656   1.438 -0.1282  0.0450  0.4634
 1642TIP3    H126341   6.718   4.576   1.444 -2.5177 -1.5778  0.8226
 1642TIP3    H226342   6.612   4.644   1.360 -0.0053  1.6563  0.1012
 1643TIP3   OH226343   6.558   2.840  13.204 -0.5151 -0.2237 -0.2814
 1643TIP3    H126344   6.630   2.835  13.140 -0.0112 -2.7575  0.3709
 1643TIP3    H226345   6.511   2.757  13.193 -1.3812 -0.0052  1.5073
 1644TIP3   OH226346   1.356   2.265  16.826  0.2083 -0.0407 -0.1536
 1644TIP3    H126347   1.431   2.306  16.784 -0.9380  1.3591 -0.9241
 1644TIP3    H226348   1.319   2.335  16.881 -0.0969 -0.9331  0.7988
 1645TIP3   OH226349   4.571   4.030  11.904  0.1634 -0.2227 -0.1591
 1645TIP3    H126350   4.521   4.039  11.822 -0.1337 -0.4117 -0.0015
 1645TIP3    H226351   4.564   4.115  11.946 -1.1165 -0.6133  0.4705
 1646TIP3   OH226352   4.634   1.179  16.528  0.2788  0.0737 -1.1865
 1646TIP3    H126353   4.542   1.201  16.511 -0.3599  1.6238  3.0349
 1646TIP3    H226354   4.663   1.246  16.590  3.1155 -2.4488  0.4562
 1647TIP3   OH226355   5.572   1.696   3.483  0.1843  0.5978 -0.0931
 1647TIP3    H126356   5.477   1.690   3.491  0.1610 -0.2543 -0.8180
 1647TIP3    H226357   5.605   1.614   3.519  0.5997  0.5456 -0.5824
 1648TIP3   OH226358   4.667   3.882   6.161  0.2533 -0.9814 -0.3033
 1648TIP3    H126359   4.716   3.955   6.124 -1.9655  0.5661 -0.4153
 1648TIP3    H226360   4.729   3.838   6.219  1.3301  1.7785  0.7842
 1649TIP3   OH226361   2.831   0.102   5.269 -0.0224 -0.3982  0.1666
 1649TIP3    H126362   2.895   0.173   5.281 -2.1722  1.3794  2.1406
 1649TIP3    H226363   2.875   0.040   5.212  2.8396  1.4738  0.1100
 1650TIP3   OH226364   2.838   0.367  11.726  0.3370  0.0136  0.7895
 1650TIP3    H126365   2.846   0.444  11.669 -2.0189  0.0522  0.3883
 1650TIP3    H226366   2.773   0.312  11.682 -0.4320 -0.6736  2.6998
 1651TIP3   OH226367   1.622   4.868   6.621 -0.1319  0.5318  0.0305
 1651TIP3    H126368   1.592   4.959   6.625  0.3097  0.6211  2.3463
 1651TIP3    H226369   1.543   4.816   6.634 -0.3362  0.5467 -1.0037
 1652TIP3   OH226370   4.696   3.345   5.691  0.6224  0.6870  0.6687
 1652TIP3    H126371   4.788   3.370   5.685  1.4393 -1.8271  1.5453
 1652TIP3    H226372   4.655   3.387   5.615  2.8362  0.5108 -0.7154
 1653TIP3   OH226373   5.994   3.798   0.439 -0.7330  0.5058  0.0602
 1653TIP3    H126374   5.920   3.739   0.450 -0.1643 -0.1226  0.5757
 1653TIP3    H226375   6.047   3.757   0.371 -0.8288  0.9294 -0.2727
 1654TIP3   OH226376   5.886   0.762  14.713 -0.3687 -0.3836  0.3049
 1654TIP3    H126377   5.979   0.782  14.729 -0.3043  1.0402 -1.4855
 1654TIP3    H226378   5.840   0.843  14.736 -1.0749 -0.7838  0.3243
 1655TIP3   OH226379   0.044   3.118   0.736  0.1990  0.1448 -0.4235
 1655TIP3    H126380   0.058   3.180   0.664 -1.2960  0.1648 -0.7286
 1655TIP3    H226381   0.124   3.067   0.739  1.6938  2.3998  0.1555
 1656TIP3   OH226382   6.162   3.423  12.837 -0.1305  0.0239  0.7061
 1656TIP3    H126383   6.191   3.356  12.899 -1.0177  0.2717  1.4068
 1656TIP3    H226384   6.181   3.506  12.881 -0.1216  0.2139  0.3452
 1657TIP3   OH226385   0.464   2.043  12.717  0.0745 -0.1030  0.0995
 1657TIP3    H126386   0.467   2.090  12.800  1.3689 -2.9069  1.7798
 1657TIP3    H226387   0.376   2.058  12.684 -0.1030  2.0325  1.3461
 1658TIP3   OH226388   0.582   0.914   2.456  0.7136 -0.4190 -0.2430
 1658TIP3    H126389   0.503   0.969   2.451 -0.1696 -1.6049  0.0960
 1658TIP3    H226390   0.654   0.976   2.467 -0.4094  0.6018  1.8809
 1659TIP3   OH226391   3.413   2.644   2.916  0.4371 -0.4770 -0.4261
 1659TIP3    H126392   3.422   2.587   2.993  0.2432 -0.2490 -0.2370
 1659TIP3    H226393   3.492   2.698   2.918  0.0457  0.0922  0.0743
 1660TIP3   OH226394   2.929   3.403  11.714 -0.0562  0.0187 -0.4224
 1660TIP3    H126395   2.894   3.355  11.638  0.9444 -1.6698  0.1335
 1660TIP3    H226396   2.988   3.341  11.756  1.3270  1.7680  0.3477
 1661TIP3   OH226397   2.903   2.207   3.076 -0.2211  0.8427 -0.2853
 1661TIP3    H126398   2.985   2.178   3.117 -1.5575  0.7438  2.6135
 1661TIP3    H226399   2.852   2.126   3.066 -0.9642  1.1911  0.5252
 1662TIP3   OH226400   2.512   4.731  14.785 -0.3788  0.6249 -0.5338
 1662TIP3    H126401   2.518   4.643  14.749 -2.3460 -0.2299  1.0072
 1662TIP3    H226402   2.453   4.722  14.860  1.4937  2.7427  1.3382
 1663TIP3   OH226403   3.689   4.366   0.550  0.0419 -0.1521 -0.4803
 1663TIP3    H126404   3.616   4.376   0.489 -0.2628  1.2492  0.0623
 1663TIP3    H226405   3.692   4.272   0.569 -0.9853 -0.3637 -1.2727
 1664TIP3   OH226406   2.834   1.790   6.235  0.2408  0.0975 -0.0310
 1664TIP3    H126407   2.755   1.808   6.286 -1.3085 -0.9749 -1.9433
 1664TIP3    H226408   2.878   1.720   6.283 -1.4431 -1.2387 -0.3347
 1665TIP3   OH226409   1.677   4.627   5.401 -0.4252  0.4417  0.1418
 1665TIP3    H126410   1.643   4.546   5.361 -0.1837  0.0516  0.7176
 1665TIP3    H226411   1.629   4.634   5.483  2.4778 -1.4232  2.1998
 1666TIP3   OH226412   6.636   3.428  11.338  0.1800  0.2998 -0.1372
 1666TIP3    H126413   6.605   3.498  11.395 -0.2073 -0.4579  0.6011
 1666TIP3    H226414   6.618   3.459  11.249 -0.7074  0.7974  0.2095
 1667TIP3   OH226415   4.078   1.375  10.615 -0.1315 -0.3696 -0.1157
 1667TIP3    H126416   4.163   1.332  10.620  0.4404  0.6804 -0.4404
 1667TIP3    H226417   4.050   1.364  10.525 -0.5848 -1.1522  0.1156
 1668TIP3   OH226418   1.940   0.601   5.728  0.0839  0.5014 -0.7543
 1668TIP3    H126419   1.887   0.521   5.723  0.3325  0.3855 -2.3535
 1668TIP3    H226420   2.028   0.570   5.748  0.2199  0.3193 -1.5653
 1669TIP3   OH226421   6.694   5.056  14.333  0.1479  0.5547 -0.7143
 1669TIP3    H126422   6.633   5.032  14.263  0.3986 -1.8569 -0.2141
 1669TIP3    H226423   6.766   4.994  14.324  1.6595  2.1484 -0.1443
 1670TIP3   OH226424   0.530   5.258  16.962  0.1734 -0.1120  0.0137
 1670TIP3    H126425   0.496   5.303  16.885 -0.3510 -1.4289 -0.5421
 1670TIP3    H226426   0.455   5.211  16.998  1.0548 -1.9546 -0.4381
 1671TIP3   OH226427   3.235   6.365   4.995 -0.3944 -0.1363  0.0856
 1671TIP3    H126428   3.262   6.455   4.976 -0.7585 -0.0613 -0.0709
 1671TIP3    H226429   3.314   6.313   4.979  0.5591  0.4175  2.4913
 1672TIP3   OH226430   2.463   5.044  11.314  0.2583  0.5614 -0.3248
 1672TIP3    H126431   2.421   4.990  11.381  1.2751  0.4364  0.2309
 1672TIP3    H226432   2.442   5.134  11.338  0.7005  0.5202  0.2284
 1673TIP3   OH226433   2.909   1.807   3.420 -0.2688 -0.1787 -0.5165
 1673TIP3    H126434   2.877   1.789   3.331 -1.0396  0.1475 -0.3072
 1673TIP3    H226435   2.968   1.733   3.438  1.2443  0.6125 -1.9335
 1674TIP3   OH226436   0.440   5.207  11.638  0.2612  0.3014  0.5149
 1674TIP3    H126437   0.532   5.194  11.660  0.4579 -0.0617 -0.4803
 1674TIP3    H226438   0.420   5.139  11.575 -0.4599  0.9076  0.0672
 1675TIP3   OH226439   4.725   3.876   4.780  0.7549  0.3878  0.5037
 1675TIP3    H126440   4.676   3.803   4.740 -0.2493  0.9540  0.6733
 1675TIP3    H226441   4.659   3.944   4.794  1.2109  0.4653  2.4999
 1676TIP3   OH226442   4.751   3.535   4.478 -0.2057  0.0124  0.1618
 1676TIP3    H126443   4.788   3.614   4.436 -0.5417 -0.6307 -1.4140
 1676TIP3    H226444   4.659   3.557   4.492 -0.3540 -0.1613 -0.4895
 1677TIP3   OH226445   3.566   0.190   1.715 -0.1053  0.9512  0.0244
 1677TIP3    H126446   3.607   0.103   1.714  2.6461  2.1377  0.6961
 1677TIP3    H226447   3.489   0.180   1.658  0.0599 -1.9010  0.1196
 1678TIP3   OH226448   2.085   5.277   3.952 -0.4373  0.2032  0.1527
 1678TIP3    H126449   2.006   5.330   3.961 -0.1061  0.6902  0.2720
 1678TIP3    H226450   2.151   5.339   3.919 -0.1715 -0.2519 -0.1779
 1679TIP3   OH226451   3.438   2.575  16.905  0.1110  0.1414 -0.8187
 1679TIP3    H126452   3.417   2.552  16.996 -0.7185 -0.1948 -1.0869
 1679TIP3    H226453   3.454   2.491  16.862  0.1768  0.2768 -1.0589
 1680TIP3   OH226454   4.691   1.412  11.390 -0.0469  0.9215 -0.0823
 1680TIP3    H126455   4.752   1.420  11.463 -1.4623  1.2898  1.1087
 1680TIP3    H226456   4.690   1.499  11.350 -1.6253  1.7147  1.4867
 1681TIP3   OH226457   0.946   2.133  13.538  0.4802  0.4405  0.0369
 1681TIP3    H126458   1.011   2.137  13.468 -0.9582  0.3171 -1.3601
 1681TIP3    H226459   0.931   2.224  13.563  1.2920  0.4587  0.4835
 1682TIP3   OH226460   4.857   1.082  13.492 -0.0420 -0.2878  0.3194
 1682TIP3    H126461   4.951   1.104  13.488 -0.3819  1.0343 -1.8681
 1682TIP3    H226462   4.814   1.165  13.513 -0.9599  0.1002 -2.6487
 1683TIP3   OH226463   2.969   0.167   1.383  0.4475  0.2719  0.0116
 1683TIP3    H126464   2.885   0.126   1.364  1.1980 -1.8833  0.9137
 1683TIP3    H226465   3.029   0.129   1.319  1.0530  0.4008  0.4907
 1684TIP3   OH226466   1.165   3.743   3.983 -0.5501  0.2751  0.3543
 1684TIP3    H126467   1.168   3.731   4.078  2.2497 -1.6853  0.1500
 1684TIP3    H226468   1.131   3.832   3.971  0.4690  1.1686  3.2337
 1685TIP3   OH226469   3.542   6.646   5.443  0.0630 -0.1370 -0.2636
 1685TIP3    H126470   3.635   6.655   5.421 -0.4998  2.2760 -2.1035
 1685TIP3    H226471   3.502   6.610   5.364 -0.8196  0.7363 -0.2351
 1686TIP3   OH226472   1.086   4.456   5.532  0.0025  0.3563  0.8205
 1686TIP3    H126473   1.008   4.430   5.583 -1.9276  0.2650 -1.9387
 1686TIP3    H226474   1.057   4.452   5.441  3.7901 -1.4224 -0.5159
 1687TIP3   OH226475   0.387   5.324  12.621  0.2231  0.6419 -0.1755
 1687TIP3    H126476   0.465   5.273  12.602  1.8592  2.0047  2.3873
 1687TIP3    H226477   0.332   5.314  12.543  2.3869 -1.3545 -1.5490
 1688TIP3   OH226478   0.927   6.677  11.109  0.2768 -0.2331  0.1266
 1688TIP3    H126479   0.986   6.612  11.146  0.0118 -0.9196 -0.6316
 1688TIP3    H226480   0.981   6.723  11.044 -0.3394 -1.7838 -1.5768
 1689TIP3   OH226481   2.987   6.395   5.641 -0.5525 -0.1100  0.3916
 1689TIP3    H126482   2.930   6.401   5.718 -1.0124  0.5972  0.0038
 1689TIP3    H226483   3.049   6.467   5.651  0.0498 -0.6503  0.6216
 1690TIP3   OH226484   1.005   1.181   4.913  0.2959  0.6804  0.1340
 1690TIP3    H126485   1.092   1.145   4.931  0.0477 -0.1297 -0.2507
 1690TIP3    H226486   1.007   1.206   4.821 -0.1488 -0.1732 -0.1245
 1691TIP3   OH226487   6.577   5.118  15.131  0.2838 -0.0158 -0.8098
 1691TIP3    H126488   6.589   5.158  15.044 -1.2513  0.8572 -0.6577
 1691TIP3    H226489   6.513   5.049  15.117 -0.0346  0.1854 -0.3557
 1692TIP3   OH226490   4.453   3.766  15.275  0.4645 -0.8268 -0.1562
 1692TIP3    H126491   4.448   3.671  15.269  0.6837 -1.0408  2.3376
 1692TIP3    H226492   4.544   3.784  15.299  0.0631 -0.0958  0.8701
 1693TIP3   OH226493   6.291   2.379  12.028 -0.2705 -0.0958  0.1842
 1693TIP3    H126494   6.355   2.309  12.040 -0.6444 -0.4079  0.3857
 1693TIP3    H226495   6.219   2.355  12.086 -0.4619  0.3844  0.1471
 1694TIP3   OH226496   3.759   5.381   5.365 -1.0733  0.3571  0.0280
 1694TIP3    H126497   3.811   5.386   5.444 -0.8456  1.0974 -0.1620
 1694TIP3    H226498   3.711   5.298   5.373 -0.2726 -0.0783  0.4436
 1695TIP3   OH226499   3.597   3.911   4.877 -0.4303  0.0197  0.3386
 1695TIP3    H126500   3.663   3.887   4.942 -1.3785  2.0999  2.2095
 1695TIP3    H226501   3.523   3.853   4.895 -0.7149  0.6334  1.2035
 1696TIP3   OH226502   6.781   2.717   5.041 -0.0190 -0.4044 -0.9293
 1696TIP3    H126503   6.868   2.698   5.006  0.3919  0.9634 -0.6964
 1696TIP3    H226504   6.740   2.774   4.976 -0.5906 -0.6905 -0.8328
 1697TIP3   OH226505   1.641   2.232  12.709  0.4432 -0.2070 -0.3901
 1697TIP3    H126506   1.610   2.146  12.681  1.8374 -0.2341 -1.9924
 1697TIP3    H226507   1.581   2.294  12.669  0.4318 -0.3773 -0.6385
 1698TIP3   OH226508   3.990   4.768   0.224 -0.5425 -0.0696 -0.5889
 1698TIP3    H126509   3.932   4.700   0.189 -0.3846  0.8207 -2.7204
 1698TIP3    H226510   4.056   4.720   0.273 -1.3358 -1.3271 -0.6907
 1699TIP3   OH226511   1.394   2.226   0.059 -0.4446  0.4822 -0.1725
 1699TIP3    H126512   1.395   2.319   0.034 -1.4837  0.6820  0.4398
 1699TIP3    H226513   1.352   2.182  -0.014 -0.3060  0.5560 -0.2962
 1700TIP3   OH226514   3.732   1.287   3.341  0.2923 -0.0072  0.4722
 1700TIP3    H126515   3.755   1.203   3.302  1.1309 -0.0435  1.0215
 1700TIP3    H226516   3.786   1.293   3.419 -1.1477  0.2017  1.4900
 1701TIP3   OH226517   3.585   6.328  13.158  0.0615  0.3656  0.1814
 1701TIP3    H126518   3.663   6.274  13.152  0.5355  1.1096 -0.5515
 1701TIP3    H226519   3.586   6.381  13.078 -0.8265  0.8649  0.4878
 1702TIP3   OH226520   2.527   6.544   5.451  0.3841 -0.4945 -0.3373
 1702TIP3    H126521   2.464   6.521   5.520 -1.2062  2.7721 -0.4891
 1702TIP3    H226522   2.584   6.468   5.443 -1.3329 -2.2096  2.3703
 1703TIP3   OH226523   1.846   1.193   4.803  0.1291  0.0192  0.2240
 1703TIP3    H126524   1.814   1.105   4.822  1.1610 -1.0822 -2.6541
 1703TIP3    H226525   1.928   1.199   4.852  0.1452 -0.6796  0.2946
 1704TIP3   OH226526   2.205   0.210   5.131  0.1365  0.0184  0.0642
 1704TIP3    H126527   2.298   0.221   5.152 -0.3213  1.1956  1.6838
 1704TIP3    H226528   2.191   0.265   5.055  0.7861 -0.2934 -0.2920
 1705TIP3   OH226529   6.427   4.044  17.172  0.2761  0.4225  0.0496
 1705TIP3    H126530   6.355   4.070  17.231  0.0391  3.3225 -1.3389
 1705TIP3    H226531   6.505   4.048  17.227 -0.1973  0.8413  0.7081
 1706TIP3   OH226532   0.123   0.260   4.336  0.3360 -0.3790 -0.4487
 1706TIP3    H126533   0.158   0.247   4.424 -1.1188 -0.6058  0.1252
 1706TIP3    H226534   0.197   0.242   4.278  1.3563 -0.0933  0.7247
 1707TIP3   OH226535   3.205   5.290   2.276  0.1071 -0.0987 -0.2671
 1707TIP3    H126536   3.135   5.269   2.215 -0.0162 -2.0951  0.4928
 1707TIP3    H226537   3.163   5.289   2.362  0.7885  0.1012  0.0786
 1708TIP3   OH226538   0.615   0.282   0.542 -0.3549  0.0068  0.0541
 1708TIP3    H126539   0.623   0.267   0.636 -0.6456  1.7526  0.3772
 1708TIP3    H226540   0.545   0.347   0.534 -1.5317 -1.3353 -1.4948
 1709TIP3   OH226541   1.756   2.739   6.039 -0.5640 -0.1761 -0.0736
 1709TIP3    H126542   1.669   2.730   6.000 -0.8597 -1.7812  0.8740
 1709TIP3    H226543   1.741   2.740   6.133  0.4903 -2.0200  0.1886
 1710TIP3   OH226544   1.885   3.166  12.832 -0.0309  0.6297  0.6906
 1710TIP3    H126545   1.920   3.199  12.914 -0.6297  2.2447  0.3291
 1710TIP3    H226546   1.923   3.222  12.765 -0.5364  0.1503 -0.0091
 1711TIP3   OH226547   6.210   5.820  16.265 -0.2230 -0.7284  0.2353
 1711TIP3    H126548   6.265   5.880  16.314  1.1562 -1.0781 -0.8369
 1711TIP3    H226549   6.260   5.798  16.186 -2.5906  0.3405 -1.7326
 1712TIP3   OH226550   3.849   1.922   0.678 -0.4142  0.3380 -0.1338
 1712TIP3    H126551   3.858   1.964   0.593  0.7363 -1.1225 -0.7702
 1712TIP3    H226552   3.770   1.961   0.716 -0.9701  0.9758 -1.8756
 1713TIP3   OH226553   2.361   2.341   4.103 -0.0012 -0.0091 -0.3024
 1713TIP3    H126554   2.358   2.257   4.057 -0.3561  0.3706 -0.9865
 1713TIP3    H226555   2.360   2.407   4.033 -4.1793  0.7275  0.2039
 1714TIP3   OH226556   3.446   1.842   2.357  0.3104 -0.4909 -0.5184
 1714TIP3    H126557   3.354   1.825   2.339  0.0563  0.7433 -0.4695
 1714TIP3    H226558   3.492   1.763   2.328 -0.7657 -1.1493 -0.4552
 1715TIP3   OH226559   6.593   0.234   1.173  0.2425  0.5615  0.1249
 1715TIP3    H126560   6.642   0.304   1.129 -0.1517  0.2977 -0.7497
 1715TIP3    H226561   6.502   0.251   1.152  0.0070  0.6191  1.1337
 1716TIP3   OH226562   2.829   5.826  12.963 -0.0905 -0.6206  0.2014
 1716TIP3    H126563   2.786   5.769  12.900 -1.5501 -1.0178  1.4969
 1716TIP3    H226564   2.846   5.770  13.038 -1.3481  0.5611  1.4227
 1717TIP3   OH226565   4.572   2.499  11.315  0.1316 -0.1401  0.0411
 1717TIP3    H126566   4.536   2.519  11.229 -3.3015  0.6009  1.4803
 1717TIP3    H226567   4.505   2.443  11.356  0.7648  0.9976  2.8319
 1718TIP3   OH226568   6.691   5.274   0.107 -0.7246  0.0565  0.0215
 1718TIP3    H126569   6.662   5.361   0.078  2.3957  1.6705  1.2398
 1718TIP3    H226570   6.650   5.263   0.193 -1.3988  0.1717 -0.2806
 1719TIP3   OH226571   5.046   0.657   6.573 -0.4049  0.6821  0.3782
 1719TIP3    H126572   5.135   0.653   6.607 -0.6484 -1.6803  0.9069
 1719TIP3    H226573   4.991   0.626   6.645 -1.3966 -0.1336 -0.6962
 1720TIP3   OH226574   5.148   6.092  16.832  0.4497  0.4500  0.3800
 1720TIP3    H126575   5.157   6.033  16.908  0.7356  0.7285  0.5670
 1720TIP3    H226576   5.055   6.114  16.829 -0.0244 -1.5061 -0.8350
 1721TIP3   OH226577   1.847   1.441   1.353 -0.3625  0.4448 -0.2403
 1721TIP3    H126578   1.783   1.505   1.385  1.4003  1.6282  1.0650
 1721TIP3    H226579   1.888   1.483   1.278  0.5037  0.7129  0.3634
 1722TIP3   OH226580   4.744   5.924   3.922  0.1334 -0.6359  0.1402
 1722TIP3    H126581   4.771   5.874   3.846  1.8433 -0.8656  0.8678
 1722TIP3    H226582   4.814   5.912   3.986  0.1937  1.9079  0.6866
 1723TIP3   OH226583   6.004   0.561   0.236 -0.1038 -0.3063  0.4809
 1723TIP3    H126584   5.992   0.651   0.204  0.1943 -1.0702 -2.0082
 1723TIP3    H226585   6.057   0.519   0.169 -1.0877 -2.6307  1.0639
 1724TIP3   OH226586   0.149   4.633  15.096  0.7256 -0.1095  0.1147
 1724TIP3    H126587   0.151   4.587  15.180 -0.7171 -0.4230  0.0174
 1724TIP3    H226588   0.130   4.724  15.119  1.7938  0.0930  0.2064
 1725TIP3   OH226589   2.819   0.024   0.577  0.1643  0.8087 -0.3996
 1725TIP3    H126590   2.743   0.015   0.633  0.6353 -0.3915  0.0949
 1725TIP3    H226591   2.892   0.041   0.637  0.2795  2.0302 -0.8710
 1726TIP3   OH226592   3.458   1.634  14.541  0.8298 -0.1611 -0.5144
 1726TIP3    H126593   3.368   1.602  14.553  1.1444 -1.0713 -0.5092
 1726TIP3    H226594   3.509   1.556  14.522  1.6404  0.3419 -0.4613
 1727TIP3   OH226595   3.969   5.327   5.511 -0.3162  0.0262 -0.0662
 1727TIP3    H126596   3.994   5.253   5.567  0.0791 -0.8897 -1.4039
 1727TIP3    H226597   3.944   5.396   5.572  0.0263 -0.9625  1.2329
 1728TIP3   OH226598   4.417   1.858  12.407 -0.6412 -0.4575 -0.1423
 1728TIP3    H126599   4.352   1.905  12.459 -0.4955 -0.7211  0.2878
 1728TIP3    H226600   4.497   1.862  12.460 -0.1869  0.2598 -0.8779
 1729TIP3   OH226601   5.241   1.019   3.269 -0.0845 -0.0832  0.2459
 1729TIP3    H126602   5.246   0.985   3.359  0.1385 -1.5971 -0.3022
 1729TIP3    H226603   5.159   0.983   3.235 -1.0028  1.8161  0.3225
 1730TIP3   OH226604   1.796   5.100   5.046  0.3679  0.5243 -0.5434
 1730TIP3    H126605   1.810   5.113   5.140 -1.9734 -1.1516  0.1170
 1730TIP3    H226606   1.873   5.052   5.017  1.1033  1.0285  0.5030
 1731TIP3   OH226607   1.555   1.940  16.262  0.2042  0.0433  0.1085
 1731TIP3    H126608   1.561   1.963  16.354  0.5329  0.6263 -0.0554
 1731TIP3    H226609   1.464   1.956  16.238 -0.5920 -2.6233  0.9739
 1732TIP3   OH226610   5.469   1.432  17.146  0.4676 -0.1346 -0.1115
 1732TIP3    H126611   5.480   1.337  17.151  0.3769 -0.2333 -1.5689
 1732TIP3    H226612   5.374   1.446  17.154  0.6149 -0.0062  1.9593
 1733TIP3   OH226613   3.352   4.681  14.691  0.1255  0.4700 -0.2595
 1733TIP3    H126614   3.378   4.631  14.614  0.9676  0.7472 -0.1635
 1733TIP3    H226615   3.433   4.722  14.722 -0.6027  2.2315 -0.5694
 1734TIP3   OH226616   2.646   4.101  13.131 -0.1215 -0.6291  0.2622
 1734TIP3    H126617   2.685   4.053  13.205 -0.8352 -1.1735  0.2937
 1734TIP3    H226618   2.711   4.168  13.110  0.6715 -1.2782  0.5518
 1735TIP3   OH226619   6.045   0.031  13.071  0.1601  0.2794 -0.7301
 1735TIP3    H126620   6.114   0.096  13.055  0.1416  0.2156 -1.0853
 1735TIP3    H226621   5.974   0.081  13.112  0.6988  0.2018  0.3222
 1736TIP3   OH226622   3.767   0.811  10.601 -0.1140 -0.8685 -0.4450
 1736TIP3    H126623   3.703   0.858  10.547 -0.1265 -0.0424  0.2619
 1736TIP3    H226624   3.730   0.724  10.612 -0.1670 -1.0139 -1.6685
 1737TIP3   OH226625   3.052   1.770  16.309 -0.0466 -0.2724 -0.1369
 1737TIP3    H126626   3.065   1.749  16.216 -0.6862  0.1988 -0.3406
 1737TIP3    H226627   3.030   1.687  16.350  1.3112 -0.6893 -0.2005
 1738TIP3   OH226628   1.853   6.679  12.053  0.0936  0.3280  0.0594
 1738TIP3    H126629   1.834   6.680  12.147  1.7174  2.0647  0.4121
 1738TIP3    H226630   1.947   6.693  12.047 -0.1527  1.4706 -1.8588
 1739TIP3   OH226631   1.180   3.512  12.402  0.1708 -0.4748 -0.0811
 1739TIP3    H126632   1.136   3.505  12.317  0.6852 -0.6713 -0.3317
 1739TIP3    H226633   1.111   3.492  12.466 -0.3085  0.0260 -0.4290
 1740TIP3   OH226634   2.716   2.828  10.637  0.2506 -0.2504 -0.3895
 1740TIP3    H126635   2.743   2.738  10.656 -2.4146 -0.8321  1.0867
 1740TIP3    H226636   2.638   2.819  10.583  0.7786  1.2418 -1.4385
 1741TIP3   OH226637   1.943   4.571   2.091 -0.0670 -0.0652 -0.1949
 1741TIP3    H126638   1.930   4.632   2.164 -0.1298 -0.3316  0.0181
 1741TIP3    H226639   1.952   4.627   2.014 -0.7130  0.1905 -0.0885
 1742TIP3   OH226640   5.355   1.717   5.532 -0.3240 -0.2220  0.1331
 1742TIP3    H126641   5.429   1.770   5.564 -0.0744  0.5259 -1.5834
 1742TIP3    H226642   5.322   1.673   5.611  1.0076  0.5797  1.1972
 1743TIP3   OH226643   0.183   1.319  13.906 -0.0015  0.0682  0.0486
 1743TIP3    H126644   0.193   1.276  13.821  0.0607  1.2556 -0.5677
 1743TIP3    H226645   0.151   1.250  13.964  3.6888 -1.8680  0.1095
 1744TIP3   OH226646   2.626   4.419   2.120  0.1749 -0.3901  0.8979
 1744TIP3    H126647   2.652   4.467   2.042  0.0734  0.3937  1.3405
 1744TIP3    H226648   2.533   4.399   2.106  0.6252 -2.0065 -0.0679
 1745TIP3   OH226649   4.124   1.842  14.209  0.1122 -0.0022 -0.3460
 1745TIP3    H126650   4.100   1.750  14.196  2.0087 -0.4869 -0.7161
 1745TIP3    H226651   4.169   1.844  14.293  0.5884  0.4741 -0.6017
 1746TIP3   OH226652   1.577   3.795   1.745 -0.2494  0.4946 -0.4119
 1746TIP3    H126653   1.611   3.836   1.666  2.8160 -1.3456 -0.1913
 1746TIP3    H226654   1.542   3.711   1.717  0.9789 -0.2303  0.1418
 1747TIP3   OH226655   4.919   0.720  11.803 -0.4727  0.3511  0.3462
 1747TIP3    H126656   4.902   0.814  11.809 -0.2187  0.4556 -0.4043
 1747TIP3    H226657   4.974   0.700  11.879 -1.6251  0.5375  1.2509
 1748TIP3   OH226658   2.669   2.872  12.054  0.0946 -0.8022  0.3879
 1748TIP3    H126659   2.735   2.805  12.070  0.4276 -0.1106  2.2533
 1748TIP3    H226660   2.686   2.902  11.965  2.0482 -0.9413  0.6696
 1749TIP3   OH226661   5.171   1.167   0.500  0.4555 -0.3582  0.1569
 1749TIP3    H126662   5.104   1.111   0.461 -0.8074  1.1324  0.0879
 1749TIP3    H226663   5.136   1.189   0.587  0.8753  0.3869  0.1483
 1750TIP3   OH226664   4.995   3.278  14.585  0.2604 -0.1317 -0.4629
 1750TIP3    H126665   4.959   3.248  14.668 -1.0018  0.4009 -0.7873
 1750TIP3    H226666   4.988   3.202  14.527  1.7368 -0.7050  0.0569
 1751TIP3   OH226667   3.663   0.379   1.545 -0.0852 -0.3602 -0.3375
 1751TIP3    H126668   3.644   0.318   1.616 -0.8546  0.3629  0.0980
 1751TIP3    H226669   3.678   0.463   1.589  0.2035 -0.0635 -0.9791
 1752TIP3   OH226670   4.311   2.359   1.663 -0.3176  0.4077 -0.0309
 1752TIP3    H126671   4.333   2.272   1.697 -0.4657  0.2177 -0.4157
 1752TIP3    H226672   4.364   2.368   1.584 -1.4161  0.0401 -0.8387
 1753TIP3   OH226673   2.535   5.294  16.492  0.1684  0.0835 -0.1007
 1753TIP3    H126674   2.598   5.340  16.436 -0.9827  3.4712  1.1295
 1753TIP3    H226675   2.451   5.306  16.449 -0.0912 -1.7772 -0.1916
 1754TIP3   OH226676   5.105   4.306  14.295 -0.1581  0.7618  0.3261
 1754TIP3    H126677   5.138   4.393  14.271  0.7674  0.2250 -0.4157
 1754TIP3    H226678   5.068   4.271  14.214  0.6696 -0.0518  0.2828
 1755TIP3   OH226679   6.244   0.956   3.269 -0.0523  0.0700 -0.1857
 1755TIP3    H126680   6.252   0.887   3.335  0.8019 -0.7732 -1.1279
 1755TIP3    H226681   6.191   0.917   3.200 -0.5098  0.7639 -0.2348
 1756TIP3   OH226682   1.306   1.573  13.798 -0.0910 -0.3908 -0.3323
 1756TIP3    H126683   1.372   1.511  13.827 -1.1855 -0.7167  1.6384
 1756TIP3    H226684   1.223   1.530  13.818 -0.8888  1.0740 -0.3585
 1757TIP3   OH226685   5.529   3.064   4.471  0.6300 -0.4004  0.4292
 1757TIP3    H126686   5.495   2.984   4.431 -0.6060  0.8572 -1.1187
 1757TIP3    H226687   5.456   3.098   4.523  1.2842 -0.4581  1.4206
 1758TIP3   OH226688   5.881   3.433  13.006  0.2216  0.2855 -0.4452
 1758TIP3    H126689   5.892   3.515  13.055 -1.7112  0.3931 -0.0941
 1758TIP3    H226690   5.877   3.460  12.915  0.4504  0.4744 -0.4003
 1759TIP3   OH226691   1.562   2.816  11.267  0.3233 -0.1324 -0.0950
 1759TIP3    H126692   1.521   2.895  11.302  0.1977  0.2249 -1.0347
 1759TIP3    H226693   1.592   2.840  11.179  2.6757 -0.3199  0.5623
 1760TIP3   OH226694   4.920   1.671   1.867 -0.6048  0.0545 -0.0226
 1760TIP3    H126695   4.996   1.717   1.831 -0.8977 -0.7753 -1.8348
 1760TIP3    H226696   4.848   1.696   1.810 -1.5218  0.1238  1.1300
 1761TIP3   OH226697   1.959   0.236   4.773 -0.4054  0.5602  0.1277
 1761TIP3    H126698   1.863   0.234   4.779 -0.4603  0.4027 -0.6391
 1761TIP3    H226699   1.986   0.147   4.799 -0.5432  0.2964 -0.5916
 1762TIP3   OH226700   4.635   0.171   4.901  0.2458  0.1442  0.1871
 1762TIP3    H126701   4.707   0.182   4.963  3.0176 -2.3865 -2.2296
 1762TIP3    H226702   4.633   0.077   4.883 -1.8481  0.4954 -1.9392
 1763TIP3   OH226703   6.243   2.568  12.654 -0.4403  0.1471 -0.1268
 1763TIP3    H126704   6.194   2.596  12.731 -0.4280  0.5344 -0.2567
 1763TIP3    H226705   6.265   2.650  12.609  0.3354 -0.0157 -0.0644
 1764TIP3   OH226706   5.062   2.828  10.615  0.2063 -0.3875 -0.0611
 1764TIP3    H126707   5.010   2.866  10.544 -1.4900 -1.2502  0.6447
 1764TIP3    H226708   5.037   2.877  10.693  2.3064  0.7743 -0.0628
 1765TIP3   OH226709   1.528   0.343  13.732 -0.1819 -0.7408 -0.1953
 1765TIP3    H126710   1.475   0.264  13.721  0.4259 -1.0818 -0.6987
 1765TIP3    H226711   1.575   0.329  13.815 -0.6064 -0.5923  0.0732
 1766TIP3   OH226712   1.565   6.345  14.193  0.0749 -0.0058  0.0619
 1766TIP3    H126713   1.600   6.306  14.274  0.3743  1.6706  0.7720
 1766TIP3    H226714   1.636   6.335  14.129  1.2870  1.8554  1.0340
 1767TIP3   OH226715   0.987   0.380  12.736 -0.1803 -0.1687 -0.3906
 1767TIP3    H126716   0.949   0.403  12.821  1.2187  0.0432  0.1917
 1767TIP3    H226717   0.954   0.292  12.718 -0.0240 -0.4404  0.6402
 1768TIP3   OH226718   3.913   5.612  16.627  0.2750  0.1403 -0.0433
 1768TIP3    H126719   3.886   5.590  16.716 -2.4332 -1.0798 -1.0536
 1768TIP3    H226720   4.008   5.615  16.631  0.2358  0.9290  3.0374
 1769TIP3   OH226721   0.433   1.218  17.117 -0.2528  0.3411 -0.2389
 1769TIP3    H126722   0.476   1.139  17.083  0.8276  0.0820  1.5849
 1769TIP3    H226723   0.499   1.287  17.108  0.1852  0.1911  1.5473
 1770TIP3   OH226724   4.108   2.378   2.202  0.1654  0.6529  0.2621
 1770TIP3    H126725   4.168   2.303   2.208  1.1501  1.4081  0.0415
 1770TIP3    H226726   4.141   2.429   2.128 -1.4552  0.4883 -0.6187
 1771TIP3   OH226727   2.442   4.917   4.548  0.4758 -0.0430 -0.1465
 1771TIP3    H126728   2.363   4.877   4.584  1.4666  0.3932  2.8246
 1771TIP3    H226729   2.450   4.881   4.460 -0.5060 -3.7707  1.1080
 1772TIP3   OH226730   0.601   2.707  12.491  0.0723  0.1192 -0.1478
 1772TIP3    H126731   0.524   2.702  12.435 -0.8797 -0.0201  1.1291
 1772TIP3    H226732   0.649   2.626  12.473 -0.5196 -0.1951 -0.3281
 1773TIP3   OH226733   2.326   3.327  13.119  0.1193 -0.1186 -0.2048
 1773TIP3    H126734   2.391   3.311  13.187 -0.8904 -0.2972  0.7442
 1773TIP3    H226735   2.345   3.415  13.088  0.2748  0.1743  0.6838
 1774TIP3   OH226736   1.074   5.009   5.044  0.3211 -0.7588 -0.4407
 1774TIP3    H126737   1.110   5.091   5.011  2.2483 -0.9441  1.0148
 1774TIP3    H226738   1.084   5.014   5.139 -0.9755 -2.0413 -0.1882
 1775TIP3   OH226739   2.100   1.406   2.934  0.0913 -0.8307 -0.0333
 1775TIP3    H126740   2.166   1.443   2.992  0.7773 -0.0505 -1.2761
 1775TIP3    H226741   2.045   1.480   2.909 -0.8250 -1.3404  0.3822
 1776TIP3   OH226742   1.627   5.094   4.171  0.7813 -0.4522 -0.2697
 1776TIP3    H126743   1.642   5.154   4.098  0.1697  0.5270  0.3972
 1776TIP3    H226744   1.635   5.148   4.249 -0.1044 -1.1621  0.3336
 1777TIP3   OH226745   2.904   0.634  13.387 -0.5099  0.1630  0.0510
 1777TIP3    H126746   2.946   0.586  13.459 -0.5251  0.1079  0.0231
 1777TIP3    H226747   2.950   0.718  13.384  1.3058 -0.8279 -1.6105
 1778TIP3   OH226748   2.654   4.943   2.200  0.3202  0.7148 -0.1508
 1778TIP3    H126749   2.601   4.909   2.127  0.8142 -0.4591  0.0111
 1778TIP3    H226750   2.744   4.932   2.172  0.5464  3.4329 -0.7488
 1779TIP3   OH226751   2.796   4.586   0.280  0.2323  0.7010 -0.5588
 1779TIP3    H126752   2.725   4.524   0.267  0.2606  0.9691 -2.2577
 1779TIP3    H226753   2.778   4.627   0.365 -0.3729 -0.8254  0.0811
 1780TIP3   OH226754   1.622   1.590  11.426  0.3353  0.0669  0.2974
 1780TIP3    H126755   1.547   1.601  11.368 -0.2404 -1.8427  0.6052
 1780TIP3    H226756   1.593   1.626  11.510  0.3291  0.7462  0.0041
 1781TIP3   OH226757   4.870   6.743   2.729 -0.6643 -0.0368 -0.2562
 1781TIP3    H126758   4.953   6.701   2.753 -0.5866  0.8633  1.1394
 1781TIP3    H226759   4.829   6.681   2.670 -0.0070 -1.5392  0.7956
 1782TIP3   OH226760   3.018   3.169   0.641  0.1230  0.2077  0.1418
 1782TIP3    H126761   2.948   3.211   0.590 -0.7071  0.0306  1.1024
 1782TIP3    H226762   3.005   3.075   0.627  0.3845  0.1905  0.0307
 1783TIP3   OH226763   5.884   3.310  12.266  0.3913 -0.0644 -0.5377
 1783TIP3    H126764   5.798   3.267  12.274  0.9090 -0.8699  1.1253
 1783TIP3    H226765   5.864   3.400  12.241 -0.8670 -0.5225 -1.2884
 1784TIP3   OH226766   4.619   0.486  17.096  0.3487 -0.2784 -0.4221
 1784TIP3    H126767   4.591   0.410  17.045  1.3809 -0.5131 -0.6558
 1784TIP3    H226768   4.538   0.536  17.110 -0.0640 -0.5437 -1.7144
 1785TIP3   OH226769   3.328   3.604  11.094  0.3612 -0.0083 -0.0373
 1785TIP3    H126770   3.410   3.572  11.130  0.0489  0.1538  0.8400
 1785TIP3    H226771   3.306   3.542  11.024  1.7988  0.5956 -1.0646
 1786TIP3   OH226772   2.364   6.494  12.804  0.5074  0.4580  0.1743
 1786TIP3    H126773   2.457   6.513  12.792 -0.0060  1.4802 -3.5436
 1786TIP3    H226774   2.348   6.417  12.750 -0.6542 -0.3813  1.6438
 1787TIP3   OH226775   3.544   3.891   2.278 -0.3238 -0.5428  1.0235
 1787TIP3    H126776   3.467   3.948   2.281 -2.2681 -3.0105  1.5750
 1787TIP3    H226777   3.532   3.839   2.198  1.8639  0.3167  0.0458
 1788TIP3   OH226778   6.695   1.628  14.123 -0.1541  0.2131 -0.0450
 1788TIP3    H126779   6.688   1.723  14.132  1.5799  0.2030  2.1428
 1788TIP3    H226780   6.615   1.603  14.076 -0.7878  2.6910 -0.4500
 1789TIP3   OH226781   6.555   0.689   0.511 -0.1097  0.6315 -0.3798
 1789TIP3    H126782   6.533   0.673   0.603  0.7505 -0.9587 -0.4254
 1789TIP3    H226783   6.565   0.602   0.473 -1.1782  1.2378 -2.1825
 1790TIP3   OH226784   2.906   1.233   1.017 -0.3808 -0.1856 -0.1305
 1790TIP3    H126785   3.001   1.222   1.014  0.3601  4.4667 -0.5738
 1790TIP3    H226786   2.872   1.165   0.959  2.7092 -1.4364 -0.6560
 1791TIP3   OH226787   0.840   0.707  14.813  0.4045 -0.5275 -0.1344
 1791TIP3    H126788   0.816   0.645  14.746 -0.9170  0.1533 -0.3173
 1791TIP3    H226789   0.926   0.739  14.786 -0.5988  0.6354 -2.2049
 1792TIP3   OH226790   2.558   5.999  14.013  0.3194 -0.1801 -0.3156
 1792TIP3    H126791   2.524   6.085  14.037  1.5087  0.3447 -0.4642
 1792TIP3    H226792   2.561   6.000  13.918  0.0456 -0.5120 -0.3321
 1793TIP3   OH226793   5.031   5.896  13.823 -0.2279 -0.0452  0.2305
 1793TIP3    H126794   5.036   5.824  13.885  2.8158  0.8301  1.1736
 1793TIP3    H226795   5.086   5.868  13.749 -2.7607 -0.5316 -1.6068
 1794TIP3   OH226796   2.109   6.621   5.455 -0.3069 -0.3545 -0.1954
 1794TIP3    H126797   2.052   6.671   5.513  0.3837  1.1517 -0.7531
 1794TIP3    H226798   2.117   6.675   5.376 -1.8709 -2.6855 -2.1146
 1795TIP3   OH226799   0.398   6.767  13.996  0.0266  0.0614  0.5554
 1795TIP3    H126800   0.393   6.789  14.090 -1.4120  0.7895  0.3386
 1795TIP3    H226801   0.338   6.828  13.954  1.2110  0.2453 -0.9617
 1796TIP3   OH226802   0.006   2.262   6.070  0.0210 -0.1332  0.6366
 1796TIP3    H126803  -0.056   2.203   6.112 -0.2527  0.3889  0.9761
 1796TIP3    H226804  -0.045   2.305   6.001  0.7297 -1.7782 -1.0063
 1797TIP3   OH226805   1.277   0.340  16.339 -0.7125 -0.0922 -0.1789
 1797TIP3    H126806   1.237   0.287  16.270  2.3295 -1.2788 -1.1759
 1797TIP3    H226807   1.284   0.281  16.413 -0.0755 -0.1456 -0.2824
 1798TIP3   OH226808   4.682   3.687  12.281 -0.0664  1.2498  0.2244
 1798TIP3    H126809   4.776   3.674  12.298  0.2029  3.0113  0.2710
 1798TIP3    H226810   4.660   3.618  12.217  1.1479  0.5434  0.5218
 1799TIP3   OH226811   6.627   4.354  16.338 -0.7084  0.4776 -0.5026
 1799TIP3    H126812   6.650   4.447  16.337  1.6754 -0.0469 -0.5840
 1799TIP3    H226813   6.622   4.332  16.431 -0.1500  0.4563 -0.4728
 1800TIP3   OH226814   5.659   3.761  16.482  0.5191 -0.1506 -0.3159
 1800TIP3    H126815   5.619   3.715  16.555  0.8760  0.5030  0.3137
 1800TIP3    H226816   5.597   3.752  16.410 -0.7893  0.8636  0.6407
 1801TIP3   OH226817   2.904   4.411  14.704 -0.6770 -0.4793 -0.5035
 1801TIP3    H126818   2.897   4.350  14.630  0.2889 -1.5645  0.2523
 1801TIP3    H226819   2.966   4.369  14.763 -1.0802  0.5859  0.7200
 1802TIP3   OH226820   5.352   1.486  11.884 -0.1266  0.0399 -0.1247
 1802TIP3    H126821   5.342   1.428  11.808 -1.7116 -0.3986  0.3808
 1802TIP3    H226822   5.417   1.442  11.939  2.4222  1.2427 -1.9755
 1803TIP3   OH226823   1.192   0.753   2.417  0.5245 -0.0092 -0.5248
 1803TIP3    H126824   1.148   0.833   2.447  1.7776 -0.4334  2.9171
 1803TIP3    H226825   1.122   0.693   2.394 -0.5602  0.8264  0.5079
 1804TIP3   OH226826   1.115   1.282   2.477 -0.3021  0.6331  0.5907
 1804TIP3    H126827   1.145   1.277   2.387 -1.7731  2.2271 -0.0376
 1804TIP3    H226828   1.160   1.358   2.514  1.3125 -0.7731  1.6657
 1805TIP3   OH226829   0.389   0.550   0.525  0.0667  0.1998 -0.7233
 1805TIP3    H126830   0.357   0.472   0.570 -0.4972  0.2177 -1.0907
 1805TIP3    H226831   0.355   0.623   0.576  0.8433  0.2116 -0.2061
 1806TIP3   OH226832   0.006   4.578  14.345  0.1297  0.6935  0.2782
 1806TIP3    H126833  -0.080   4.602  14.308  0.3500 -1.7761 -2.2021
 1806TIP3    H226834  -0.015   4.539  14.430 -1.0108  1.5619  0.4315
 1807TIP3   OH226835   0.567   0.885  11.181  0.0863  0.2494  0.6892
 1807TIP3    H126836   0.506   0.920  11.246  1.0620  0.1801  1.6738
 1807TIP3    H226837   0.519   0.888  11.099 -0.6533  1.7947  1.1399
 1808TIP3   OH226838   0.250   2.914   0.685 -0.3482  0.0465  0.5164
 1808TIP3    H126839   0.280   2.874   0.603 -0.2024 -1.6340  1.3628
 1808TIP3    H226840   0.166   2.874   0.703  0.0330 -0.2900  1.6519
 1809TIP3   OH226841   2.146   3.478  15.234 -0.7854 -0.0513 -0.0483
 1809TIP3    H126842   2.205   3.534  15.182  0.2861  0.4396  1.5995
 1809TIP3    H226843   2.058   3.506  15.209 -0.3068  0.3175 -1.4114
 1810TIP3   OH226844   0.074   4.791   5.002  0.3814  0.6071 -0.2890
 1810TIP3    H126845   0.053   4.701   5.029  1.1803  0.4826 -0.0513
 1810TIP3    H226846   0.001   4.817   4.946  0.3063 -0.3071 -0.6272
 1811TIP3   OH226847   0.163   1.552  13.330  0.3928 -0.2287 -0.2089
 1811TIP3    H126848   0.251   1.572  13.363  0.1672 -0.7289  0.7063
 1811TIP3    H226849   0.177   1.533  13.237  1.0694  0.9247 -0.3778
 1812TIP3   OH226850   4.443   3.969   1.409  0.3146 -0.5143  0.3480
 1812TIP3    H126851   4.453   3.926   1.324 -0.4644  0.3624 -0.2051
 1812TIP3    H226852   4.445   4.063   1.389 -1.9610 -0.2696  0.9997
 1813TIP3   OH226853   2.483   3.305  12.564  0.2341  0.1060  0.9980
 1813TIP3    H126854   2.424   3.234  12.540  0.0666  1.4088 -3.3266
 1813TIP3    H226855   2.428   3.368  12.610 -1.1485  0.0517 -0.4946
 1814TIP3   OH226856   6.703   2.104   4.994  0.0948  0.3170 -0.8243
 1814TIP3    H126857   6.612   2.126   4.975 -0.0898 -0.0752 -0.4212
 1814TIP3    H226858   6.755   2.166   4.942 -0.3827 -0.2349 -1.9777
 1815TIP3   OH226859   4.431   3.131  10.810 -0.6280  0.0563  0.0868
 1815TIP3    H126860   4.355   3.113  10.755 -0.0731 -0.5414 -0.5083
 1815TIP3    H226861   4.436   3.054  10.868 -0.5867  0.1802  0.2470
 1816TIP3   OH226862   5.631   6.670  16.871  0.6264 -0.3153 -0.4689
 1816TIP3    H126863   5.660   6.582  16.896  0.7862 -0.4571 -1.1293
 1816TIP3    H226864   5.700   6.728  16.903 -0.8501 -0.0802  2.6240
 1817TIP3   OH226865   2.293   4.790   4.762 -0.0613  0.1163  0.5586
 1817TIP3    H126866   2.275   4.809   4.854 -1.4439 -0.6884  0.4800
 1817TIP3    H226867   2.224   4.835   4.714  0.2730 -0.0027 -0.0447
 1818TIP3   OH226868   1.706   5.000   5.935 -0.2399 -0.1465  0.0761
 1818TIP3    H126869   1.801   4.997   5.933 -0.2172  0.2946  0.4342
 1818TIP3    H226870   1.684   5.001   6.029 -0.6480 -1.8211  0.0221
 1819TIP3   OH226871   1.283   6.752   5.304 -0.9993 -0.1368  0.7022
 1819TIP3    H126872   1.319   6.665   5.286  0.6134  0.4384  0.9934
 1819TIP3    H226873   1.241   6.743   5.389 -0.4127 -0.5304  0.9598
 1820TIP3   OH226874   3.222   4.714   2.411  0.6548  0.2204 -0.4678
 1820TIP3    H126875   3.244   4.694   2.320 -1.7244  1.6739 -1.4414
 1820TIP3    H226876   3.290   4.777   2.438  1.6971 -0.6334 -1.0161
 1821TIP3   OH226877   0.262   5.789   3.288  0.7339 -0.1865  0.0492
 1821TIP3    H126878   0.212   5.709   3.307 -1.6227  1.0748 -0.4407
 1821TIP3    H226879   0.304   5.772   3.203  2.3815 -1.7849  1.1107
 1822TIP3   OH226880   3.350   0.072  10.833  0.0578 -0.6522  0.1723
 1822TIP3    H126881   3.413   0.000  10.824  1.5949  0.8307 -1.5224
 1822TIP3    H226882   3.264   0.028  10.834  0.8347 -2.4686 -2.3937
 1823TIP3   OH226883   6.269   2.621   3.647 -0.1842 -0.1442  0.8730
 1823TIP3    H126884   6.241   2.700   3.695 -0.3651  0.0446  0.4573
 1823TIP3    H226885   6.188   2.576   3.624 -0.1278  0.0922  0.1942
 1824TIP3   OH226886   3.384   0.694  13.782  0.4617 -0.4767  0.3112
 1824TIP3    H126887   3.363   0.711  13.873 -1.3337 -2.9727  0.4658
 1824TIP3    H226888   3.317   0.740  13.732  0.1195 -0.8954  0.3776
 1825TIP3   OH226889   6.595   4.543   4.151  0.1831  0.3592 -0.4535
 1825TIP3    H126890   6.542   4.611   4.109  0.4333  0.6007 -0.3806
 1825TIP3    H226891   6.649   4.590   4.214  0.3918  0.0981 -0.4366
 1826TIP3   OH226892   1.210   5.763   5.592  0.6590  0.0250  0.1589
 1826TIP3    H126893   1.167   5.836   5.636 -0.7968 -0.4269 -0.4716
 1826TIP3    H226894   1.217   5.791   5.501  0.7437 -0.3399  0.0521
 1827TIP3   OH226895   6.200   6.038   0.723 -0.5436 -0.0108 -0.2738
 1827TIP3    H126896   6.206   5.944   0.740 -2.0577  0.0309  0.7400
 1827TIP3    H226897   6.211   6.079   0.809  2.0416  0.9010 -0.9595
 1828TIP3   OH226898   2.827   1.185  11.565 -0.0448  0.5783  0.6625
 1828TIP3    H126899   2.732   1.189  11.572 -0.2190 -0.8464 -0.3819
 1828TIP3    H226900   2.855   1.277  11.568 -1.4396  1.0200  0.9672
 1829TIP3   OH226901   5.201   5.523   3.456  0.1488  0.1261  0.1573
 1829TIP3    H126902   5.163   5.567   3.380 -1.7227 -1.3242  0.1606
 1829TIP3    H226903   5.155   5.439   3.460  1.2410 -0.4458  2.0376
 1830TIP3   OH226904   0.219   5.030  12.258 -0.1649 -0.2451 -0.0074
 1830TIP3    H126905   0.248   5.114  12.292 -2.4113  0.9290 -0.7973
 1830TIP3    H226906   0.166   5.052  12.181  0.6478 -2.4991 -1.3167
 1831TIP3   OH226907   1.591   0.120  11.532 -0.0455  0.2998 -0.1240
 1831TIP3    H126908   1.673   0.091  11.491 -1.1756 -1.8452 -1.0003
 1831TIP3    H226909   1.604   0.101  11.625 -0.0233 -1.3675 -0.4320
 1832TIP3   OH226910   5.743   0.654   4.172 -0.3266  0.3759  0.0220
 1832TIP3    H126911   5.671   0.674   4.232  0.3021  0.3616  0.7891
 1832TIP3    H226912   5.716   0.692   4.088 -1.6772 -0.4916  0.0386
 1833TIP3   OH226913   5.332   2.044  17.172  0.2712 -0.5776  0.3086
 1833TIP3    H126914   5.345   2.005  17.085  1.0965 -0.2101  0.2600
 1833TIP3    H226915   5.412   2.094  17.188 -0.1365 -0.1416  1.0231
 1834TIP3   OH226916   6.504   3.497   2.902  0.4234  0.2731  0.0893
 1834TIP3    H126917   6.459   3.480   2.819  0.5351 -0.8346  0.2387
 1834TIP3    H226918   6.573   3.559   2.879  0.4261  0.0151 -0.6495
 1835TIP3   OH226919   4.780   3.301  12.546 -0.2140 -0.2929  0.0299
 1835TIP3    H126920   4.758   3.214  12.578  0.5470  0.2039  2.0878
 1835TIP3    H226921   4.698   3.334  12.508 -1.1822 -1.0172  1.3820
 1836TIP3   OH226922   1.021   5.448  16.090  0.5030  0.1341  1.3022
 1836TIP3    H126923   1.090   5.484  16.035 -0.0659  1.3133  1.3212
 1836TIP3    H226924   1.057   5.449  16.178  0.5597  0.5126  1.2774
 1837TIP3   OH226925   3.713   2.713   5.153  0.1646 -0.0335 -0.9413
 1837TIP3    H126926   3.642   2.665   5.111  0.4504 -0.8787 -0.4861
 1837TIP3    H226927   3.694   2.805   5.134 -1.7732 -0.1229  0.2539
 1838TIP3   OH226928   2.175   5.840   0.478 -0.1708  0.1607  0.5707
 1838TIP3    H126929   2.182   5.884   0.563 -0.7285  2.1444 -0.3342
 1838TIP3    H226930   2.084   5.810   0.474 -0.8670  2.1544 -0.1907
 1839TIP3   OH226931   6.131   1.303  11.915  0.2855  0.0522 -0.4191
 1839TIP3    H126932   6.044   1.340  11.930 -0.4578 -1.0532 -1.7226
 1839TIP3    H226933   6.177   1.313  11.998 -1.4529 -0.2964  0.6276
 1840TIP3   OH226934   1.082   4.010  11.398  0.4796 -0.0052 -0.2782
 1840TIP3    H126935   1.163   3.960  11.389  0.7658  0.3147  0.4652
 1840TIP3    H226936   1.015   3.944  11.415 -0.1495 -0.7088 -4.4459
 1841TIP3   OH226937   5.417   3.922  11.683 -0.2448 -0.3483  0.3482
 1841TIP3    H126938   5.406   3.939  11.590 -0.9624 -0.6197  0.3788
 1841TIP3    H226939   5.511   3.928  11.698  0.0159 -1.5931 -0.6540
 1842TIP3   OH226940   2.381   5.731  14.447 -1.0150 -0.1886 -0.3330
 1842TIP3    H126941   2.288   5.715  14.463 -0.8448 -2.2859 -1.0624
 1842TIP3    H226942   2.385   5.821  14.417 -2.9877 -0.3940 -1.4111
 1843TIP3   OH226943   5.934   1.974   2.384  0.9488  0.2031  0.4704
 1843TIP3    H126944   5.877   2.015   2.449 -2.0421 -0.5313 -1.5069
 1843TIP3    H226945   5.920   2.024   2.304  0.3572 -2.0878 -0.9530
 1844TIP3   OH226946   5.327   5.271  12.769 -0.4132  0.1727  0.1931
 1844TIP3    H126947   5.242   5.230  12.757  0.6787 -1.8966 -0.9938
 1844TIP3    H226948   5.380   5.206  12.814  0.7682  1.1325  0.2656
 1845TIP3   OH226949   2.780   5.451  15.500  0.5097 -0.0467 -0.1958
 1845TIP3    H126950   2.846   5.504  15.454 -0.3123  1.9665  0.8144
 1845TIP3    H226951   2.715   5.515  15.530  0.7912 -1.2583  3.4521
 1846TIP3   OH226952   6.436   0.621  11.640  0.2749  0.1477 -0.3788
 1846TIP3    H126953   6.526   0.638  11.610  0.6902 -0.5428  0.4407
 1846TIP3    H226954   6.430   0.525  11.643 -0.2869  0.1965  0.1613
 1847TIP3   OH226955   6.198   1.425  11.653  0.6422  0.1803 -0.5664
 1847TIP3    H126956   6.138   1.489  11.690  0.6127  0.1587 -0.5768
 1847TIP3    H226957   6.196   1.351  11.714  1.5596  0.6627  0.0714
 1848TIP3   OH226958   1.143   6.661   6.469 -0.6897 -0.5774 -0.6452
 1848TIP3    H126959   1.068   6.659   6.527 -0.8154 -1.3987 -0.8227
 1848TIP3    H226960   1.121   6.599   6.399 -0.4597  0.2383 -1.4674
 1849TIP3   OH226961   3.267   0.481   0.703  0.4569  0.0136  0.1289
 1849TIP3    H126962   3.219   0.404   0.733 -0.5862  0.4451 -0.3637
 1849TIP3    H226963   3.229   0.500   0.617  1.3740  0.5062 -0.1739
 1850TIP3   OH226964   2.853   3.263  12.669 -0.1359  0.1008  0.1872
 1850TIP3    H126965   2.925   3.325  12.655  0.0699 -0.2064 -0.1297
 1850TIP3    H226966   2.843   3.260  12.765  1.1046 -0.7720  0.3146
 1851TIP3   OH226967   2.861   1.052   5.486 -0.1214  0.4258 -0.3879
 1851TIP3    H126968   2.811   1.010   5.556 -0.1265 -0.4836 -0.9272
 1851TIP3    H226969   2.898   1.131   5.527 -0.2670  0.0023  0.5824
 1852TIP3   OH226970   5.759   5.211   1.595 -0.3651 -0.2515  0.2888
 1852TIP3    H126971   5.722   5.243   1.512  0.9961  0.6772  0.0105
 1852TIP3    H226972   5.729   5.120   1.600 -2.8055  0.4679  0.1961
 1853TIP3   OH226973   2.961   3.267   5.776  1.1772 -0.0728 -0.0136
 1853TIP3    H126974   2.911   3.202   5.726 -1.9783  1.3908  0.9336
 1853TIP3    H226975   3.015   3.311   5.711 -0.2668 -0.4493 -1.5473
 1854TIP3   OH226976   0.388   5.325   1.608  0.4874  0.0736  0.4244
 1854TIP3    H126977   0.404   5.278   1.689  1.0023  0.5993  0.6411
 1854TIP3    H226978   0.466   5.379   1.596  0.1970  0.3786 -0.1540
 1855TIP3   OH226979   6.501   3.329  13.196 -0.2816 -0.0533 -0.3160
 1855TIP3    H126980   6.508   3.415  13.155 -0.9934 -0.1078 -0.5721
 1855TIP3    H226981   6.431   3.285  13.147 -0.9226 -0.2361  0.7204
 1856TIP3   OH226982   6.254   4.910   5.036 -0.4024  0.1971  0.1253
 1856TIP3    H126983   6.204   4.843   4.990  0.6331 -2.3710  2.4518
 1856TIP3    H226984   6.345   4.881   5.031  0.1312  1.5988  0.9289
 1857TIP3   OH226985   2.994   0.586   1.104 -0.0613  0.0498 -0.3005
 1857TIP3    H126986   3.082   0.616   1.126  0.4310 -2.4107  1.5370
 1857TIP3    H226987   2.939   0.618   1.175 -0.7889  1.8349 -1.5934
 1858TIP3   OH226988   6.194   6.101  11.435  0.2689 -0.0102  0.1170
 1858TIP3    H126989   6.212   6.101  11.529  1.9326  0.4165 -0.1739
 1858TIP3    H226990   6.161   6.189  11.418  0.2357  0.0043  0.2520
 1859TIP3   OH226991   4.995   3.940  15.413  0.3019  0.4050  1.0111
 1859TIP3    H126992   5.003   3.863  15.356  1.4568 -1.1377  3.1091
 1859TIP3    H226993   4.901   3.947  15.430  0.1603 -0.4234  0.6405
 1860TIP3   OH226994   6.648   2.986   3.614 -0.1587 -0.4652  0.0019
 1860TIP3    H126995   6.650   3.067   3.564  1.1651 -0.1217  0.5677
 1860TIP3    H226996   6.679   3.011   3.701  1.6433 -1.7991 -0.1950
 1861TIP3   OH226997   0.448   3.556  15.246 -0.0332 -0.4576 -0.1710
 1861TIP3    H126998   0.487   3.620  15.305 -0.4209 -0.9662  0.6500
 1861TIP3    H226999   0.499   3.564  15.165  0.1589  0.6217  0.0341
 1862TIP3   OH227000   0.430   6.062  11.383 -0.6559  1.0036 -0.0794
 1862TIP3    H127001   0.469   6.050  11.470  0.5946  0.3566 -0.7091
 1862TIP3    H227002   0.438   6.155  11.365 -0.4957  1.0651  0.3046
 1863TIP3   OH227003   1.963   1.250   1.557 -0.4090  0.5069  0.0583
 1863TIP3    H127004   1.930   1.310   1.490 -3.9993 -0.3995  0.7931
 1863TIP3    H227005   1.983   1.307   1.631  0.3569  1.1694 -0.6260
 1864TIP3   OH227006   4.468   3.955  13.698  0.3644  0.3667  0.0462
 1864TIP3    H127007   4.440   3.959  13.789  0.7214 -1.6646  0.2963
 1864TIP3    H227008   4.414   3.887  13.659  2.3122 -1.0066 -0.4230
 1865TIP3   OH227009   1.404   2.459  13.756 -0.5281  0.0326 -0.3553
 1865TIP3    H127010   1.498   2.450  13.768 -0.7557  0.0633  1.7754
 1865TIP3    H227011   1.391   2.549  13.727  0.0761  0.0088 -0.7182
 1866TIP3   OH227012   1.924   6.017  12.604  0.2753  0.2903  0.6772
 1866TIP3    H127013   1.995   6.063  12.559 -0.0744 -0.1699 -0.3542
 1866TIP3    H227014   1.939   5.924  12.586 -1.8190  0.2763 -1.4757
 1867TIP3   OH227015   2.560   4.495  16.666  0.0315  0.0497  0.1843
 1867TIP3    H127016   2.622   4.433  16.704  0.6245  0.6553  0.2249
 1867TIP3    H227017   2.561   4.476  16.572 -0.4701 -0.5935  0.3047
 1868TIP3   OH227018   4.195   3.590   1.349 -0.6501  0.4597 -0.0398
 1868TIP3    H127019   4.197   3.585   1.254 -0.9559 -0.3475 -0.0176
 1868TIP3    H227020   4.102   3.593   1.371 -0.8807 -3.7178  0.3531
 1869TIP3   OH227021   5.167   0.074   1.203 -0.6375 -0.0082 -0.0518
 1869TIP3    H127022   5.156   0.157   1.250  0.4562 -0.0327  0.2676
 1869TIP3    H227023   5.124   0.009   1.258  1.5482 -0.2231  1.5380
 1870TIP3   OH227024   5.226   6.719  12.041 -0.1887  0.4369 -0.1146
 1870TIP3    H127025   5.134   6.743  12.051 -0.1931 -0.3049  2.1947
 1870TIP3    H227026   5.264   6.733  12.128  1.6505 -0.2885 -0.7492
 1871TIP3   OH227027   2.044   4.206  15.282 -0.1852  0.0168  0.3698
 1871TIP3    H127028   1.999   4.257  15.350 -2.1824 -1.9182  0.6337
 1871TIP3    H227029   2.082   4.132  15.329  1.1641  0.2968 -0.2349
 1872TIP3   OH227030   2.226   2.521  14.056  0.0324 -0.6157 -0.6624
 1872TIP3    H127031   2.174   2.441  14.053  2.0962 -2.0336 -1.1896
 1872TIP3    H227032   2.241   2.537  14.150  0.0304 -1.1554 -0.5690
 1873TIP3   OH227033   3.927   2.373  12.682 -0.1530 -0.0440 -0.6320
 1873TIP3    H127034   3.957   2.318  12.609 -0.9664  1.0882 -1.8842
 1873TIP3    H227035   3.845   2.412  12.650 -1.7749 -1.2345  1.7410
 1874TIP3   OH227036   3.403   1.032  10.950 -0.0134 -0.0673  0.3583
 1874TIP3    H127037   3.310   1.055  10.947  0.1766  1.1991  2.1615
 1874TIP3    H227038   3.405   0.936  10.954 -1.2957 -0.0742  1.2531
 1875TIP3   OH227039   0.047   0.325   1.623 -0.5560 -0.2153 -0.0499
 1875TIP3    H127040  -0.033   0.357   1.663 -0.6117 -0.8261  0.3449
 1875TIP3    H227041   0.116   0.345   1.687 -0.0955  1.8097 -1.0796
 1876TIP3   OH227042   1.742   1.330   4.582 -1.3121  0.0567 -0.1866
 1876TIP3    H127043   1.789   1.259   4.627  0.5944  0.8312 -0.8481
 1876TIP3    H227044   1.650   1.313   4.601 -0.8307 -1.8605  0.7411
 1877TIP3   OH227045   6.719   6.150   0.288  0.4321  0.0735  0.2907
 1877TIP3    H127046   6.647   6.191   0.241 -0.0387 -0.8961  0.1469
 1877TIP3    H227047   6.678   6.084   0.343  1.3121 -1.6194 -0.9741
 1878TIP3   OH227048   5.553   1.632  11.791 -0.4863 -0.2914  0.2631
 1878TIP3    H127049   5.477   1.599  11.839 -1.0965 -0.5066 -0.7996
 1878TIP3    H227050   5.584   1.557  11.740 -0.4507  0.1661 -0.4037
 1879TIP3   OH227051   4.883   1.042  15.970 -0.4519 -0.3710 -0.1512
 1879TIP3    H127052   4.819   1.106  15.938  0.5931  0.4518 -0.6451
 1879TIP3    H227053   4.950   1.039  15.902  2.2164  1.9433  2.1447
 1880TIP3   OH227054   2.035   1.064  11.802 -0.0525  0.2222 -0.0146
 1880TIP3    H127055   2.015   1.145  11.755  0.2971 -0.0869 -0.6988
 1880TIP3    H227056   2.107   1.025  11.753 -0.0546 -0.3813  0.4593
 1881TIP3   OH227057   5.070   4.617   4.121  0.2060 -0.3293  0.4244
 1881TIP3    H127058   5.157   4.580   4.138 -0.0591 -1.5452 -0.7074
 1881TIP3    H227059   5.085   4.711   4.113  1.7237 -0.6672 -1.3958
 1882TIP3   OH227060   3.370   1.661  12.917 -0.2149  0.1968  0.5065
 1882TIP3    H127061   3.383   1.573  12.881 -0.4460 -0.3630  1.7432
 1882TIP3    H227062   3.447   1.710  12.888 -0.0478 -0.4281 -0.1350
 1883TIP3   OH227063   5.208   0.919   1.809 -0.4231  0.0522 -0.3278
 1883TIP3    H127064   5.190   1.010   1.783  1.5416  0.4878 -0.3189
 1883TIP3    H227065   5.218   0.872   1.726 -1.6233 -0.2169 -0.3336
 1884TIP3   OH227066   4.778   1.911  16.034 -0.4412 -0.6806 -0.2234
 1884TIP3    H127067   4.800   1.862  15.955 -0.0754 -0.3490 -0.3301
 1884TIP3    H227068   4.682   1.910  16.037 -0.4821 -0.1843 -1.0000
 1885TIP3   OH227069   5.045   3.587  15.888 -0.1356 -0.8483 -0.5086
 1885TIP3    H127070   5.011   3.499  15.905  0.6469 -1.2085 -0.7377
 1885TIP3    H227071   4.985   3.645  15.933 -1.2335 -1.4371 -1.1669
 1886TIP3   OH227072   6.616   5.914  10.992  0.1307 -0.1647 -0.6898
 1886TIP3    H127073   6.691   5.869  10.953  1.3136  1.4219 -0.3482
 1886TIP3    H227074   6.571   5.952  10.917  0.4146 -0.0340 -0.7980
 1887TIP3   OH227075   5.999   1.235  16.744  0.1599  0.0673 -0.4824
 1887TIP3    H127076   5.939   1.163  16.727  0.6929 -0.6666  0.6055
 1887TIP3    H227077   6.074   1.218  16.686 -0.0580  0.1896 -0.8012
 1888TIP3   OH227078   4.803   0.261   1.384  0.3292  0.1633 -0.0151
 1888TIP3    H127079   4.742   0.221   1.445  0.6085 -0.4052 -0.1061
 1888TIP3    H227080   4.776   0.227   1.298  0.0550  0.8101 -0.1912
 1889TIP3   OH227081   3.189   2.441   3.254  0.2577 -0.2506  0.6965
 1889TIP3    H127082   3.126   2.386   3.300  0.3636 -0.7578  0.2488
 1889TIP3    H227083   3.213   2.509   3.317 -0.6157 -0.1400  0.9212
 1890TIP3   OH227084   0.039   3.697  10.735  0.0161  0.0123  0.1144
 1890TIP3    H127085   0.050   3.782  10.692 -1.4119 -0.0153 -0.3641
 1890TIP3    H227086   0.126   3.676  10.769  0.9162  0.6317 -1.6577
 1891TIP3   OH227087   3.446   3.947  16.117  0.0626 -0.3547 -0.0874
 1891TIP3    H127088   3.517   3.884  16.111  0.9427  0.4973  1.1137
 1891TIP3    H227089   3.421   3.947  16.209 -0.8210  0.0971 -0.3157
 1892TIP3   OH227090   0.593   5.287  16.279 -0.0782 -0.3412  0.8557
 1892TIP3    H127091   0.661   5.338  16.236 -1.2757 -0.5648 -1.4706
 1892TIP3    H227092   0.522   5.349  16.294  0.2528 -0.3080  2.4389
 1893TIP3   OH227093   2.117   2.256  14.321  0.1825  0.1728 -0.0436
 1893TIP3    H127094   2.113   2.231  14.414 -2.2386  0.6764  0.0627
 1893TIP3    H227095   2.113   2.173  14.273 -0.4544 -0.0078  0.3116
 1894TIP3   OH227096   6.321   5.248   2.555  0.0489  0.5040 -0.0571
 1894TIP3    H127097   6.287   5.196   2.481 -0.8776  1.0009  0.0016
 1894TIP3    H227098   6.388   5.192   2.594  0.4496  0.1678 -1.1796
 1895TIP3   OH227099   2.255   0.302  15.030 -0.0094  0.0718  0.2378
 1895TIP3    H127100   2.246   0.289  14.936  2.1989 -1.1040  0.1131
 1895TIP3    H227101   2.330   0.362  15.039 -0.9096  1.0960  1.2475
 1896TIP3   OH227102   6.219   6.069   0.997  0.3507  0.5611 -0.6282
 1896TIP3    H127103   6.164   6.145   1.018  0.1472  0.1611  0.3321
 1896TIP3    H227104   6.243   6.032   1.082 -1.5018 -1.8392 -1.0512
 1897TIP3   OH227105   4.271   4.282   5.833 -0.9944  0.4780  0.1255
 1897TIP3    H127106   4.178   4.268   5.847 -1.2429 -1.0384 -2.3287
 1897TIP3    H227107   4.293   4.359   5.886 -3.4005  0.3406  1.4524
 1898TIP3   OH227108   6.714   2.195   2.248 -0.4354  0.0351  0.5381
 1898TIP3    H127109   6.668   2.203   2.332  0.5156 -0.4170  1.1205
 1898TIP3    H227110   6.719   2.101   2.232  1.2200 -0.0016  1.0458
 1899TIP3   OH227111   0.399   2.155  13.683 -0.2535  0.0450 -0.5587
 1899TIP3    H127112   0.484   2.112  13.697 -0.6441 -0.8468 -0.8515
 1899TIP3    H227113   0.360   2.158  13.770  0.4336  1.2611 -0.2689
 1900TIP3   OH227114   0.295   5.529   2.891 -0.3364  0.1603 -0.5779
 1900TIP3    H127115   0.204   5.556   2.881 -0.5898  0.0600  1.1812
 1900TIP3    H227116   0.292   5.434   2.898 -0.0310  0.1104 -1.0687
 1901TIP3   OH227117   4.299   5.165  14.528 -0.1040  0.1066  0.8244
 1901TIP3    H127118   4.260   5.252  14.525 -1.6198 -0.5097  1.3886
 1901TIP3    H227119   4.232   5.107  14.492  1.2176 -0.7422 -0.4093
 1902TIP3   OH227120   2.343   5.013   5.228  0.0980 -0.5919  0.5425
 1902TIP3    H127121   2.284   5.086   5.249  0.8261 -0.0694  0.8268
 1902TIP3    H227122   2.359   5.021   5.134  0.0017 -0.5153  0.5323
 1903TIP3   OH227123   3.953   2.352  16.529 -0.0380  0.4930  0.1501
 1903TIP3    H127124   3.938   2.344  16.434  1.3890 -0.7497 -0.0021
 1903TIP3    H227125   3.991   2.439  16.540  0.9212  0.1896 -0.5955
 1904TIP3   OH227126   6.307   4.238   2.043 -0.7817  0.3571  0.1018
 1904TIP3    H127127   6.311   4.167   1.979 -1.6995  0.4655 -0.0956
 1904TIP3    H227128   6.232   4.291   2.015 -0.0144  1.4865  0.1626
 1905TIP3   OH227129   3.261   2.160   5.519 -0.1558 -0.1711  0.3378
 1905TIP3    H127130   3.288   2.074   5.552  1.6671  0.4538  0.6006
 1905TIP3    H227131   3.276   2.155   5.425  2.7178  0.7046  0.6541
 1906TIP3   OH227132   2.059   2.233  16.135 -0.0314  0.3669 -0.6263
 1906TIP3    H127133   1.969   2.231  16.165  0.3265  0.8190  0.5451
 1906TIP3    H227134   2.080   2.142  16.113 -0.0101 -0.1895  1.5219
 1907TIP3   OH227135   6.159   6.550   1.016 -0.5458 -0.1798  0.0214
 1907TIP3    H127136   6.151   6.573   0.923  0.4078  1.2708  0.2634
 1907TIP3    H227137   6.230   6.486   1.019  1.3163  1.7736 -0.0188
 1908TIP3   OH227138   6.499   2.050  13.898  0.1496 -0.3262 -0.2329
 1908TIP3    H127139   6.587   2.052  13.860 -0.8911 -3.4857 -3.3481
 1908TIP3    H227140   6.506   1.988  13.972  0.7761  0.4873  0.4044
 1909TIP3   OH227141   1.560   2.659   1.734 -0.2509 -0.3154 -0.5094
 1909TIP3    H127142   1.628   2.626   1.791  0.3190 -0.2998 -1.1624
 1909TIP3    H227143   1.480   2.618   1.765 -0.1009  0.3926  0.8604
 1910TIP3   OH227144   6.332   5.129  16.500 -0.0667 -0.2887 -0.2499
 1910TIP3    H127145   6.338   5.093  16.589  1.2338 -2.0095 -0.9767
 1910TIP3    H227146   6.245   5.103  16.470 -1.2339  1.8301  1.0892
 1911TIP3   OH227147   5.301   5.638  14.468 -0.4052  0.2109 -0.4032
 1911TIP3    H127148   5.275   5.640  14.560 -0.0325 -1.0160 -0.2579
 1911TIP3    H227149   5.390   5.602  14.469 -0.4369  0.0998 -1.2463
 1912TIP3   OH227150   2.527   5.998  12.984  0.2710 -0.2806  0.6246
 1912TIP3    H127151   2.615   6.030  12.963  0.2290  0.1932  1.1442
 1912TIP3    H227152   2.487   6.069  13.034  0.0756 -1.0240  1.5662
 1913TIP3   OH227153   0.936   4.061   1.379 -0.5001  0.1893 -0.0745
 1913TIP3    H127154   0.920   4.076   1.286 -1.3203 -0.5327 -0.0620
 1913TIP3    H227155   0.861   4.101   1.424 -0.8934 -0.8041  0.1723
 1914TIP3   OH227156   4.210   5.329   0.554 -0.0274 -0.8648 -0.0392
 1914TIP3    H127157   4.163   5.382   0.618 -0.6273 -1.7312  0.2672
 1914TIP3    H227158   4.293   5.373   0.542  0.1866 -0.7827  1.5106
 1915TIP3   OH227159   2.419   0.291  13.222  0.0902  0.2365  0.4962
 1915TIP3    H127160   2.447   0.275  13.132  0.0052  2.6771 -0.0293
 1915TIP3    H227161   2.350   0.357  13.214 -0.5308 -0.1372  2.3041
 1916TIP3   OH227162   4.090   2.426  10.347 -0.1384  0.7542 -0.2601
 1916TIP3    H127163   4.036   2.496  10.385  1.0074  1.5682 -0.0973
 1916TIP3    H227164   4.180   2.450  10.370  0.2665 -0.8551 -0.0811
 1917TIP3   OH227165   4.719   0.161   1.938 -0.4279  0.2386  0.0294
 1917TIP3    H127166   4.792   0.217   1.964  0.0626 -0.2502 -0.2921
 1917TIP3    H227167   4.646   0.191   1.993 -0.0105  0.7674  0.3110
 1918TIP3   OH227168   2.275   2.115   5.916  0.2388  0.8322  0.1422
 1918TIP3    H127169   2.351   2.057   5.910 -0.0911  0.2172  1.4192
 1918TIP3    H227170   2.236   2.114   5.829  0.7560 -0.1606 -0.0925
 1919TIP3   OH227171   2.822   6.277   3.924 -0.5044  0.5159 -0.5928
 1919TIP3    H127172   2.785   6.344   3.981 -0.5661  0.9497 -1.1336
 1919TIP3    H227173   2.917   6.281   3.942 -0.6921 -0.6911  0.8906
 1920TIP3   OH227174   2.760   2.605  13.858 -0.1276 -0.0454  0.3087
 1920TIP3    H127175   2.785   2.518  13.825  0.3746  0.1743  0.0966
 1920TIP3    H227176   2.842   2.643  13.889 -0.4860  0.0275  1.1721
 1921TIP3   OH227177   5.491   0.192  12.808  0.0408 -0.4293 -0.1652
 1921TIP3    H127178   5.582   0.222  12.805 -0.0357 -0.2041 -0.1912
 1921TIP3    H227179   5.473   0.181  12.902 -0.0274 -0.1095 -0.1418
 1922TIP3   OH227180   3.806   0.529   6.043  0.2912  0.0063  0.6285
 1922TIP3    H127181   3.812   0.434   6.049 -1.8001 -0.0855  2.4954
 1922TIP3    H227182   3.717   0.545   6.011  0.8062  1.3438 -0.2078
 1923TIP3   OH227183   5.613   2.641   4.863 -0.4868 -0.4289  0.5348
 1923TIP3    H127184   5.650   2.697   4.931 -1.2972  0.3710  0.3315
 1923TIP3    H227185   5.681   2.575   4.846 -0.0864 -0.3432  1.7619
 1924TIP3   OH227186   6.515   2.994  14.178 -0.2197 -0.6382  0.0386
 1924TIP3    H127187   6.557   2.957  14.100 -0.6449  0.1288 -0.5674
 1924TIP3    H227188   6.578   3.058  14.212 -0.7886  0.3872 -0.7719
 1925TIP3   OH227189   5.078   6.057   0.097 -0.4119  0.3068  0.2543
 1925TIP3    H127190   5.153   6.083   0.151  0.3578 -0.6735 -0.3038
 1925TIP3    H227191   5.006   6.049   0.159  0.3748 -0.4864  1.1007
 1926TIP3   OH227192   5.755   0.228  14.531 -0.2411  0.0837  0.3326
 1926TIP3    H127193   5.672   0.271  14.508 -0.0763 -0.4776 -1.4691
 1926TIP3    H227194   5.741   0.136  14.508  1.0253  0.0663 -0.4416
 1927TIP3   OH227195   0.679   3.301   0.088  0.1636 -0.1048 -0.5681
 1927TIP3    H127196   0.667   3.391   0.117 -2.5669 -0.7562  0.6285
 1927TIP3    H227197   0.618   3.292   0.015 -2.1247 -1.7790  1.3929
 1928TIP3   OH227198   0.655   3.328   4.808 -0.1446 -0.1912  0.1709
 1928TIP3    H127199   0.723   3.396   4.807 -1.1670  0.8784 -0.8606
 1928TIP3    H227200   0.652   3.299   4.899  1.3425  0.0724  0.3377
 1929TIP3   OH227201   0.647   3.557  13.935 -0.1628 -0.6379 -0.4836
 1929TIP3    H127202   0.567   3.566  13.883  0.2937  0.6776 -0.9997
 1929TIP3    H227203   0.704   3.501  13.882 -0.0336 -0.0185 -1.0115
 1930TIP3   OH227204   1.340   0.279   1.141  0.7929 -0.4942 -0.2040
 1930TIP3    H127205   1.317   0.212   1.205 -0.7823 -0.0027 -0.2017
 1930TIP3    H227206   1.265   0.338   1.140  1.4693  0.4050 -1.3467
 1931TIP3   OH227207   0.575   3.576  16.311  0.4495 -0.1218  0.6531
 1931TIP3    H127208   0.499   3.518  16.302  0.6731 -0.4459  0.8602
 1931TIP3    H227209   0.557   3.647  16.250  0.4232 -0.6767  0.0060
 1932TIP3   OH227210   2.683   5.167   5.372  0.1342  0.3089  0.1742
 1932TIP3    H127211   2.628   5.229   5.323  0.6952  0.3501 -0.4230
 1932TIP3    H227212   2.688   5.090   5.315  3.2008  1.4270 -1.3006
 1933TIP3   OH227213   6.755   2.111  11.031 -0.0847 -0.2141 -0.2496
 1933TIP3    H127214   6.811   2.182  11.061 -0.4991  0.5810 -1.2809
 1933TIP3    H227215   6.684   2.108  11.095  1.0339 -1.1316  0.9746
 1934TIP3   OH227216   6.262   1.578   3.002 -0.1525  0.1051  0.1561
 1934TIP3    H127217   6.279   1.637   3.075 -3.9165  1.7630 -0.0877
 1934TIP3    H227218   6.244   1.493   3.043  0.9652  0.1788  0.8396
 1935TIP3   OH227219   0.271   1.623  12.355  0.3682 -0.6701 -0.3109
 1935TIP3    H127220   0.204   1.636  12.288  0.2299 -0.5222 -0.1453
 1935TIP3    H227221   0.242   1.676  12.429 -0.5736 -2.4630  0.6575
 1936TIP3   OH227222   5.555   2.850   5.376 -0.4829  0.3250 -0.0465
 1936TIP3    H127223   5.616   2.888   5.438 -0.0079  0.3353 -0.5178
 1936TIP3    H227224   5.503   2.788   5.429  2.2459 -2.3747 -0.2404
 1937TIP3   OH227225   1.747   0.253  16.031 -0.2088  0.3749 -0.6024
 1937TIP3    H127226   1.718   0.176  15.981  0.6758  0.4775 -1.2989
 1937TIP3    H227227   1.797   0.304  15.968  0.7386  0.6321  0.3378
 1938TIP3   OH227228   2.689   1.298  12.058  0.0024 -0.0485 -0.0259
 1938TIP3    H127229   2.692   1.203  12.054 -2.1717 -0.1450 -0.2404
 1938TIP3    H227230   2.773   1.326  12.021 -0.2681 -1.8490 -2.2162
 1939TIP3   OH227231   5.889   3.152  14.239  0.7100 -0.2318  0.7758
 1939TIP3    H127232   5.874   3.152  14.334  0.7063  0.8961  0.7919
 1939TIP3    H227233   5.800   3.153  14.202  0.6852  1.1090  0.8042
 1940TIP3   OH227234   6.700   6.221  15.869  0.2974 -0.0597 -0.2841
 1940TIP3    H127235   6.781   6.221  15.819  0.6671 -1.3095  0.2767
 1940TIP3    H227236   6.663   6.134  15.854  0.6674 -0.6519  1.9848
 1941TIP3   OH227237   0.996   6.709  11.868 -0.3651  0.3653 -0.1019
 1941TIP3    H127238   0.934   6.698  11.796  0.2209 -0.8651 -0.4678
 1941TIP3    H227239   0.958   6.660  11.941 -0.0996  0.0507 -0.1659
 1942TIP3   OH227240   5.481   6.758   5.054 -0.9082  0.1985  0.5769
 1942TIP3    H127241   5.501   6.686   5.113 -1.3932 -0.5983 -0.2181
 1942TIP3    H227242   5.528   6.736   4.973 -0.3017  1.2430  0.6207
 1943TIP3   OH227243   4.891   5.618   1.565  0.3091  0.1763  0.1000
 1943TIP3    H127244   4.826   5.598   1.632 -1.6250 -0.4789 -1.8877
 1943TIP3    H227245   4.946   5.540   1.561 -0.9723 -0.7105 -0.6185
 1944TIP3   OH227246   3.555   4.031  14.355 -0.4855  0.1881 -0.4098
 1944TIP3    H127247   3.532   4.117  14.319  0.6049  0.4090 -0.6215
 1944TIP3    H227248   3.595   3.984  14.282  0.7524  0.2491  0.1916
 1945TIP3   OH227249   1.746   6.235   5.739  0.7611 -0.2920 -0.0821
 1945TIP3    H127250   1.829   6.251   5.694  0.4887  0.6872 -0.2584
 1945TIP3    H227251   1.686   6.301   5.704 -0.5858 -2.0137 -1.2109
 1946TIP3   OH227252   6.034   2.209   2.245 -0.7241 -0.4420 -0.2086
 1946TIP3    H127253   6.004   2.285   2.195 -0.7090  0.4393  1.0763
 1946TIP3    H227254   5.998   2.222   2.333  0.9206 -0.8858  0.5672
 1947TIP3   OH227255   0.195   0.402   0.773  0.0563  0.4955  0.3515
 1947TIP3    H127256   0.109   0.370   0.744 -1.0023  2.6684  0.9323
 1947TIP3    H227257   0.257   0.344   0.730 -1.6726 -0.7039 -0.6563
 1948TIP3   OH227258   2.667   1.179   1.272  0.0014 -0.6393 -0.3126
 1948TIP3    H127259   2.762   1.183   1.275  0.1056 -2.3932 -0.2690
 1948TIP3    H227260   2.648   1.094   1.234 -1.5651 -0.7521  0.6371
 1949TIP3   OH227261   2.840   3.864   4.672  0.4039 -0.5995  0.3669
 1949TIP3    H127262   2.893   3.894   4.746  0.8293 -2.4584  0.8672
 1949TIP3    H227263   2.752   3.855   4.708  0.1737  0.3865  0.0975
 1950TIP3   OH227264   5.555   2.706  12.430 -0.5495  0.6577  0.0037
 1950TIP3    H127265   5.526   2.742  12.346 -0.8160 -0.4561 -0.3942
 1950TIP3    H227266   5.510   2.622  12.437  2.3099 -1.0486 -0.5058
 1951TIP3   OH227267   4.143   1.470   0.471  0.1432  0.0367  0.1793
 1951TIP3    H127268   4.113   1.497   0.384 -0.1060 -1.0284 -0.0789
 1951TIP3    H227269   4.072   1.496   0.530 -0.5158 -0.8853 -0.1931
 1952TIP3   OH227270   0.848   0.985  16.391 -0.3121  0.1484 -0.3331
 1952TIP3    H127271   0.842   1.059  16.451  0.6252 -0.5456  0.6575
 1952TIP3    H227272   0.830   0.908  16.445 -1.3851 -0.3582 -1.3740
 1953TIP3   OH227273   2.026   2.412  11.115 -0.1050 -0.7374 -0.2487
 1953TIP3    H127274   1.941   2.443  11.145 -0.9556 -1.9439 -1.2720
 1953TIP3    H227275   2.067   2.488  11.075 -1.4095 -0.4989 -1.1908
 1954TIP3   OH227276   2.229   5.959   1.645 -0.0666  0.1906  0.4448
 1954TIP3    H127277   2.305   5.992   1.693  0.5118  0.3809 -0.5546
 1954TIP3    H227278   2.267   5.897   1.582 -0.9415 -1.0677  1.1271
 1955TIP3   OH227279   4.913   3.338  15.964  0.2012 -0.2830  0.6164
 1955TIP3    H127280   4.840   3.283  15.994  0.8954 -1.4621  0.2143
 1955TIP3    H227281   4.972   3.343  16.040  0.3100 -0.4031  0.5405
 1956TIP3   OH227282   1.134   0.588   1.976  0.1525  0.4133  0.7866
 1956TIP3    H127283   1.090   0.514   1.934  0.6056  0.4244  0.2814
 1956TIP3    H227284   1.072   0.618   2.043 -0.1993 -0.1717  0.7304
 1957TIP3   OH227285   4.232   2.016   6.605 -0.4432 -1.3224  0.1541
 1957TIP3    H127286   4.294   1.979   6.542  1.0224  0.6009  0.3575
 1957TIP3    H227287   4.286   2.034   6.683 -1.6414 -1.1975  0.9784
 1958TIP3   OH227288   4.754   2.954  15.816  0.1818 -0.1095  0.1481
 1958TIP3    H127289   4.695   2.900  15.869  0.5559  0.2670  0.9718
 1958TIP3    H227290   4.746   3.042  15.855  3.4685 -0.5826  2.2336
 1959TIP3   OH227291   3.250   2.815   3.819 -0.1255 -0.4693 -0.3704
 1959TIP3    H127292   3.232   2.786   3.909  0.4196 -0.9835 -0.4266
 1959TIP3    H227293   3.195   2.758   3.764 -1.2433  0.5127 -0.3210
 1960TIP3   OH227294   2.656   0.512  11.164  0.3872  0.1202  0.5608
 1960TIP3    H127295   2.682   0.504  11.072 -1.4332  0.5675 -0.0344
 1960TIP3    H227296   2.726   0.564  11.204  0.9638  0.3459 -0.6840
 1961TIP3   OH227297   4.202   6.741   3.255 -0.3751  0.0930  0.2928
 1961TIP3    H127298   4.220   6.707   3.168  0.3621 -0.2514  0.5729
 1961TIP3    H227299   4.275   6.710   3.309 -0.9724  0.0425  1.1001
 1962TIP3   OH227300   2.416   0.325   3.002 -0.1871 -0.1931  0.2459
 1962TIP3    H127301   2.378   0.246   3.041  1.9681 -0.4364  2.1002
 1962TIP3    H227302   2.488   0.292   2.948  0.4191  0.4310  0.6459
 1963TIP3   OH227303   4.606   5.985  13.037  0.1973  0.2017  0.3454
 1963TIP3    H127304   4.587   6.047  13.107 -0.1845 -1.2718  1.5922
 1963TIP3    H227305   4.604   6.038  12.957  2.6934  2.3716  1.5638
 1964TIP3   OH227306   1.056   3.899   3.370 -0.0027 -0.1199 -0.3714
 1964TIP3    H127307   0.981   3.956   3.390  2.2866  2.2703  2.3830
 1964TIP3    H227308   1.058   3.836   3.441  0.6560 -0.0748 -0.3460
 1965TIP3   OH227309   4.317   3.537  13.309  0.7902  0.0350 -0.5602
 1965TIP3    H127310   4.271   3.621  13.314 -0.4947 -0.6525 -0.1916
 1965TIP3    H227311   4.362   3.538  13.224 -0.8639  0.3025 -1.4770
 1966TIP3   OH227312   2.503   5.967   5.006 -0.0915 -0.2258 -0.4750
 1966TIP3    H127313   2.442   5.895   4.988  0.6007 -1.2004  0.9238
 1966TIP3    H227314   2.511   5.969   5.101 -0.2815  1.9031 -0.4596
 1967TIP3   OH227315   3.550   5.508  13.279  0.7327 -0.1514  0.0964
 1967TIP3    H127316   3.521   5.467  13.361  0.3077  0.4195  0.2331
 1967TIP3    H227317   3.471   5.515  13.226  1.0519 -0.7571 -0.4759
 1968TIP3   OH227318   0.502   2.773   4.101  0.2603 -0.2267 -0.2743
 1968TIP3    H127319   0.546   2.844   4.147  2.6237 -1.3551 -0.6400
 1968TIP3    H227320   0.546   2.693   4.131 -1.9250 -1.5428 -0.2861
 1969TIP3   OH227321   2.672   5.444  11.533 -0.4808  0.1739 -0.9737
 1969TIP3    H127322   2.706   5.417  11.618  0.6092  2.3262 -0.6626
 1969TIP3    H227323   2.691   5.370  11.475  0.6992 -0.4747  0.1893
 1970TIP3   OH227324   0.455   6.573   4.679 -0.5805 -0.3534  0.6667
 1970TIP3    H127325   0.407   6.517   4.740  0.6555 -1.1355  0.9546
 1970TIP3    H227326   0.510   6.513   4.628 -0.2783  0.4571  0.0020
 1971TIP3   OH227327   5.237   0.618  14.290  0.2255  0.1826  0.6713
 1971TIP3    H127328   5.149   0.616  14.253  0.2968 -1.4856  0.5046
 1971TIP3    H227329   5.224   0.622  14.384 -0.0222  0.1395  0.6390
 1972TIP3   OH227330   5.506   1.070   3.557 -0.4810  0.3910 -0.1228
 1972TIP3    H127331   5.489   0.982   3.589 -1.3660  0.5003 -0.2636
 1972TIP3    H227332   5.599   1.070   3.534  0.4878  0.5687  3.2836
 1973TIP3   OH227333   2.740   3.120  12.477 -0.3256 -0.1276 -0.1425
 1973TIP3    H127334   2.781   3.176  12.543  0.7271 -1.6873  0.6037
 1973TIP3    H227335   2.649   3.111  12.505 -0.0519 -0.2308  0.7404
 1974TIP3   OH227336   2.671   4.198  11.258  0.3207 -0.0847 -0.0999
 1974TIP3    H127337   2.697   4.172  11.170  0.6352 -1.4618  0.3715
 1974TIP3    H227338   2.613   4.128  11.287  0.7697 -0.0061  1.0310
 1975TIP3   OH227339   2.369   4.693   2.611  0.3032  0.0312  1.0012
 1975TIP3    H127340   2.344   4.603   2.593 -1.6489  0.6474  0.4482
 1975TIP3    H227341   2.465   4.691   2.614  0.4684 -1.5092 -2.0103
 1976TIP3   OH227342   3.140   5.577  11.890  0.4305 -0.2622 -0.5865
 1976TIP3    H127343   3.218   5.535  11.927 -0.3290  0.5395  2.1597
 1976TIP3    H227344   3.172   5.659  11.853  0.8939  0.1469  0.6873
 1977TIP3   OH227345   1.670   3.916   2.297  0.3451  0.3167 -0.4294
 1977TIP3    H127346   1.639   3.888   2.383 -0.2416 -0.6973 -0.9620
 1977TIP3    H227347   1.659   4.011   2.298  1.0899  0.4151  0.8975
 1978TIP3   OH227348   6.092   6.607   2.880 -0.5524 -0.1170 -0.1469
 1978TIP3    H127349   6.136   6.572   2.956 -2.0600 -0.3261  0.6770
 1978TIP3    H227350   6.025   6.666   2.916  1.0780  2.7017 -1.4296
 1979TIP3   OH227351   4.394   1.399  12.543  0.1653  0.0130 -0.6235
 1979TIP3    H127352   4.464   1.374  12.603  0.8032 -0.8365 -1.6751
 1979TIP3    H227353   4.314   1.390  12.594  0.6755 -0.8456  0.0565
 1980TIP3   OH227354   2.830   2.748  12.645 -0.1880  0.3546 -0.2196
 1980TIP3    H127355   2.854   2.839  12.664  1.0461  0.4545 -1.9707
 1980TIP3    H227356   2.823   2.745  12.550 -2.5846 -0.8654 -0.0736
 1981TIP3   OH227357   1.350   1.249   2.928 -0.3981 -0.1029 -0.1452
 1981TIP3    H127358   1.442   1.261   2.907 -0.2735  0.0279  0.4640
 1981TIP3    H227359   1.349   1.222   3.019 -1.0698  2.2237  0.6284
 1982TIP3   OH227360   2.801   6.202   2.351  0.3436  0.1330  0.2859
 1982TIP3    H127361   2.737   6.198   2.280 -1.4629 -0.3608  1.8262
 1982TIP3    H227362   2.839   6.114   2.354 -0.4828 -0.2267  0.6704
 1983TIP3   OH227363   3.692   5.981   5.388 -0.1337  0.4347  0.6949
 1983TIP3    H127364   3.723   6.036   5.459  2.1191 -1.1998  1.0735
 1983TIP3    H227365   3.603   5.957   5.413  0.4378  0.2961  2.7471
 1984TIP3   OH227366   5.335   0.440   5.872 -0.1529 -0.3602 -0.3098
 1984TIP3    H127367   5.348   0.396   5.789 -1.6783 -0.8264 -0.3270
 1984TIP3    H227368   5.253   0.404   5.907  0.1594  0.2281  1.1243
 1985TIP3   OH227369   3.360   0.418  16.253 -0.2889 -0.1923  0.1889
 1985TIP3    H127370   3.294   0.387  16.191  0.9501  1.2718 -2.0303
 1985TIP3    H227371   3.367   0.512  16.234  1.2425 -0.0083  1.4935
 1986TIP3   OH227372   3.663   4.197  13.679  0.0586  0.5902  0.1259
 1986TIP3    H127373   3.737   4.258  13.683 -0.3212  1.1639 -1.1225
 1986TIP3    H227374   3.586   4.253  13.673 -0.4050 -0.0192  0.2557
 1987TIP3   OH227375   2.689   4.306  11.983 -0.6244  0.1936  0.0108
 1987TIP3    H127376   2.775   4.327  12.020  1.0938 -4.4688 -0.6469
 1987TIP3    H227377   2.682   4.362  11.906  2.6039 -0.2286 -0.7432
 1988TIP3   OH227378   1.479   6.125  13.314  0.0480  0.2018  0.1283
 1988TIP3    H127379   1.438   6.105  13.229  0.7423  0.5516 -0.2987
 1988TIP3    H227380   1.415   6.180  13.359 -0.9599 -1.1702  0.4430
 1989TIP3   OH227381   2.514   2.885   5.837  0.4005  0.1320 -0.2265
 1989TIP3    H127382   2.501   2.791   5.843  0.6576  0.1494  0.6137
 1989TIP3    H227383   2.595   2.902   5.886 -1.0311  1.1139  1.9527
 1990TIP3   OH227384   6.781   4.117  14.691 -0.3602 -0.2492 -0.0242
 1990TIP3    H127385   6.876   4.113  14.687 -0.3809 -0.3469 -0.4981
 1990TIP3    H227386   6.757   4.183  14.625 -0.6279 -0.3707 -0.0512
 1991TIP3   OH227387   4.082   4.107  12.352  0.1906 -0.3777 -0.1067
 1991TIP3    H127388   4.157   4.056  12.320 -0.2778 -1.0059 -0.2391
 1991TIP3    H227389   4.118   4.192  12.374  0.9265 -0.6394 -0.2680
 1992TIP3   OH227390   4.031   1.303  14.653  0.1312  0.0058  0.2257
 1992TIP3    H127391   4.023   1.211  14.678  0.3092  0.2781  1.3545
 1992TIP3    H227392   3.942   1.338  14.664  0.1985  0.1161  0.4116
 1993TIP3   OH227393   6.514   5.951  15.779  0.1790 -0.1177  0.1598
 1993TIP3    H127394   6.437   5.979  15.830 -0.3607 -3.0496  1.1348
 1993TIP3    H227395   6.524   6.019  15.713 -1.4283  1.9084  1.8388
 1994TIP3   OH227396   2.363   2.931  16.620 -0.0466  0.3527 -0.5033
 1994TIP3    H127397   2.353   2.911  16.527  1.7702  0.7725 -0.8239
 1994TIP3    H227398   2.316   3.014  16.632 -0.6639  0.0722 -0.9448
 1995TIP3   OH227399   2.706   5.869   5.579 -0.6686  0.6254 -0.1597
 1995TIP3    H127400   2.699   5.890   5.672  0.4672  1.7982 -0.3124
 1995TIP3    H227401   2.797   5.843   5.567 -0.2091  2.5085 -1.2843
 1996TIP3   OH227402   4.782   4.588  14.243  0.0504  0.7342  0.1995
 1996TIP3    H127403   4.864   4.635  14.258  0.8802 -0.4567 -0.4246
 1996TIP3    H227404   4.778   4.577  14.148 -0.6584  0.4820  0.2533
 1997TIP3   OH227405   2.936   4.062  11.911 -0.1484 -0.0461 -0.0625
 1997TIP3    H127406   2.846   4.036  11.931 -0.9430  1.2770 -1.6484
 1997TIP3    H227407   2.961   4.119  11.985  0.1578 -1.9608  1.3758
 1998TIP3   OH227408   0.739   1.284  11.464  0.1751 -0.6195  0.5549
 1998TIP3    H127409   0.805   1.351  11.445 -0.7623 -0.0237 -0.7337
 1998TIP3    H227410   0.656   1.332  11.464 -0.4609 -1.6988  0.1204
 1999TIP3   OH227411   3.251   4.328   0.406  0.4290 -0.5634  0.0255
 1999TIP3    H127412   3.230   4.235   0.413 -1.3769 -0.1110  1.2147
 1999TIP3    H227413   3.180   4.365   0.352  1.8396 -0.0624 -1.5774
 2000TIP3   OH227414   2.632   2.580   3.063 -0.0265  0.0134 -0.3966
 2000TIP3    H127415   2.635   2.498   3.112  0.5695 -0.1433 -0.6869
 2000TIP3    H227416   2.704   2.632   3.099 -0.9036  0.7519  0.3612
 2001TIP3   OH227417   0.632   6.069  14.574  0.3706 -0.2522  0.4293
 2001TIP3    H127418   0.537   6.079  14.564  0.2090 -1.4264  0.7172
 2001TIP3    H227419   0.660   6.021  14.496  0.6310 -0.4752  0.6560
 2002TIP3   OH227420   2.439   1.825  12.691  0.5489  0.2053 -0.2301
 2002TIP3    H127421   2.513   1.768  12.715 -0.2845 -0.2260  1.4504
 2002TIP3    H227422   2.458   1.908  12.734 -0.1116 -0.0212  0.5096
 2003TIP3   OH227423   4.171   0.176   4.800 -0.5776 -0.7656  0.1547
 2003TIP3    H127424   4.171   0.165   4.705 -1.6960  1.0833 -0.1029
 2003TIP3    H227425   4.078   0.178   4.824 -0.3568  0.6969  1.0117
 2004TIP3   OH227426   1.155   4.788  10.616  0.4434  0.3416 -0.1165
 2004TIP3    H127427   1.249   4.783  10.594  0.5555 -0.2662  0.4733
 2004TIP3    H227428   1.151   4.845  10.693  0.2064  1.2383 -0.7746
 2005TIP3   OH227429   6.177   0.205   1.303 -0.1643 -0.3162 -0.0187
 2005TIP3    H127430   6.153   0.182   1.393  0.0487  0.0100  0.1246
 2005TIP3    H227431   6.117   0.155   1.248  0.1717 -1.0606  0.2923
 2006TIP3   OH227432   1.790   5.361   2.623 -0.0197 -0.2991 -0.5913
 2006TIP3    H127433   1.877   5.364   2.663  0.3224 -0.6540 -1.2946
 2006TIP3    H227434   1.781   5.446   2.579 -1.5028  1.2535  2.4461
 2007TIP3   OH227435   3.947   4.362   2.073 -0.5540 -0.1529 -0.0977
 2007TIP3    H127436   3.960   4.456   2.057  0.2529 -0.3311 -0.5687
 2007TIP3    H227437   3.853   4.348   2.057 -0.7718  0.6426  0.4034
 2008TIP3   OH227438   0.179   3.330   5.515 -0.0044  0.5036 -0.0972
 2008TIP3    H127439   0.185   3.269   5.441 -0.1813 -1.3236  1.3337
 2008TIP3    H227440   0.110   3.391   5.490 -1.5545 -1.3658 -0.5744
 2009TIP3   OH227441   0.299   3.013   3.952 -0.6890  0.6480 -0.3480
 2009TIP3    H127442   0.217   2.966   3.969 -0.7335  0.3386 -1.3304
 2009TIP3    H227443   0.368   2.952   3.978 -0.7530  1.1524  1.0943
 2010TIP3   OH227444   0.160   3.124   5.682 -0.6538  1.0976  0.6351
 2010TIP3    H127445   0.134   3.214   5.662 -0.4809  1.2824  1.2346
 2010TIP3    H227446   0.256   3.125   5.675 -0.7075  0.6938 -0.4257
 2011TIP3   OH227447   0.821   5.164   5.290 -0.0890  0.0806  0.4310
 2011TIP3    H127448   0.851   5.106   5.360  0.6073 -1.1030 -0.7865
 2011TIP3    H227449   0.865   5.131   5.212  0.4984  2.4184 -0.2860
 2012TIP3   OH227450   0.482   0.575  16.841 -0.4994  0.0877  0.6393
 2012TIP3    H127451   0.418   0.588  16.911 -0.9130  0.2366  0.2380
 2012TIP3    H227452   0.544   0.647  16.851  1.0711 -1.4064  2.5722
 2013TIP3   OH227453   4.367   1.531   2.831  0.3551  0.4183 -0.1704
 2013TIP3    H127454   4.317   1.611   2.848 -1.5428 -0.6526 -0.4016
 2013TIP3    H227455   4.334   1.468   2.895  2.4728  0.0418  0.6129
 2014TIP3   OH227456   1.802   1.020  11.138  0.5373  0.4838 -0.2058
 2014TIP3    H127457   1.775   1.107  11.109  0.8170 -0.3058 -3.0639
 2014TIP3    H227458   1.897   1.025  11.142  0.7584 -0.3268 -2.8993
 2015TIP3   OH227459   5.035   0.508   3.028  0.6921 -0.3312  0.4726
 2015TIP3    H127460   5.003   0.448   3.096  0.8974  0.3295  1.1666
 2015TIP3    H227461   4.982   0.488   2.951  0.3480 -0.9865  0.8706
 2016TIP3   OH227462   1.511   6.059  13.592  0.2144  0.3351  0.5375
 2016TIP3    H127463   1.421   6.038  13.616 -0.1773  2.5648  1.2527
 2016TIP3    H227464   1.512   6.053  13.496 -0.2772 -1.1224  0.6026
 2017TIP3   OH227465   3.035   1.942   4.684  0.5209  0.5714  0.0170
 2017TIP3    H127466   3.005   1.972   4.598 -3.0966 -0.4139  0.7904
 2017TIP3    H227467   3.004   2.009   4.745  0.5423 -0.1512  0.8403
 2018TIP3   OH227468   3.458   2.484  13.657  0.1173  0.6585  0.1134
 2018TIP3    H127469   3.483   2.491  13.749 -1.9719  2.2564  0.6341
 2018TIP3    H227470   3.369   2.449  13.658 -0.3322  1.6483 -1.2260
 2019TIP3   OH227471   2.651   4.567  12.119  0.2326 -0.4678  0.6372
 2019TIP3    H127472   2.709   4.589  12.192  3.2123 -0.8723 -1.4151
 2019TIP3    H227473   2.706   4.578  12.041 -2.3489 -1.4488 -1.4551
 2020TIP3   OH227474   1.069   0.831  15.044  0.4946  0.1779 -0.0264
 2020TIP3    H127475   1.085   0.752  15.095 -0.7111 -0.9652 -1.3656
 2020TIP3    H227476   1.058   0.801  14.954 -2.3543  1.5475 -0.2431
 2021TIP3   OH227477   3.348   1.269   4.156 -0.1397 -0.2078 -0.2017
 2021TIP3    H127478   3.299   1.205   4.207 -0.1453 -0.4565 -0.5147
 2021TIP3    H227479   3.282   1.329   4.122 -0.0044  0.8942  1.3460
 2022TIP3   OH227480   1.092   0.294  15.863  0.0341  0.6109 -0.7332
 2022TIP3    H127481   1.045   0.353  15.804 -0.0097  1.1779 -0.1474
 2022TIP3    H227482   1.177   0.281  15.822 -0.1294  0.6996 -1.1051
 2023TIP3   OH227483   6.002   2.950  14.740  0.4070 -0.3822 -0.2093
 2023TIP3    H127484   6.054   3.001  14.677 -2.0446  2.0678 -0.4214
 2023TIP3    H227485   6.022   2.990  14.825 -2.0188  1.6099 -0.4507
 2024TIP3   OH227486   3.657   3.151   3.349  0.0545  0.2539 -0.3768
 2024TIP3    H127487   3.570   3.132   3.314 -0.5876 -1.9312  2.1168
 2024TIP3    H227488   3.648   3.143   3.444  2.9283  0.1606 -0.0056
 2025TIP3   OH227489   3.660   1.449  12.986 -0.0353  0.3684  0.4616
 2025TIP3    H127490   3.683   1.360  12.959  0.2348  0.7751 -0.7061
 2025TIP3    H227491   3.599   1.480  12.919 -0.4315  0.9426  1.0619
 2026TIP3   OH227492   1.114   1.103  10.979 -0.2489  0.2457 -0.4956
 2026TIP3    H127493   1.021   1.126  10.987 -0.6599 -0.8403 -1.8639
 2026TIP3    H227494   1.115   1.008  10.981  1.3035  0.1346  3.7887
 2027TIP3   OH227495   4.199   1.116  14.409  0.2107  0.5413  0.2934
 2027TIP3    H127496   4.120   1.116  14.355  0.6685  0.0111 -0.3877
 2027TIP3    H227497   4.237   1.203  14.395  0.8554  0.0699 -1.0446
 2028TIP3   OH227498   1.410   4.318   1.317  0.2463  0.3843 -0.1513
 2028TIP3    H127499   1.331   4.296   1.366 -0.1669  1.6141 -0.2501
 2028TIP3    H227500   1.399   4.409   1.292  0.4736 -0.1528 -2.4694
 2029TIP3   OH227501   4.460   2.872  12.675  0.3152  0.0921  0.3490
 2029TIP3    H127502   4.519   2.800  12.654  0.1335 -0.1145  0.5491
 2029TIP3    H227503   4.392   2.833  12.730  0.5711  0.5471  1.0027
 2030TIP3   OH227504   4.500   4.200  16.860 -0.0954 -0.3358 -0.2410
 2030TIP3    H127505   4.560   4.248  16.919  0.1128 -2.8831  1.8060
 2030TIP3    H227506   4.418   4.250  16.864  0.0398 -0.1733  1.9469
 2031TIP3   OH227507   2.501   6.352   5.800 -0.6285  0.2181  0.2221
 2031TIP3    H127508   2.515   6.388   5.888  0.3403  1.4041 -0.4001
 2031TIP3    H227509   2.480   6.428   5.746  1.8272 -0.0236 -1.2067
 2032TIP3   OH227510   6.272   5.153  14.898 -0.0293  0.0449  0.7101
 2032TIP3    H127511   6.207   5.195  14.842  0.1397 -1.4083 -0.6438
 2032TIP3    H227512   6.332   5.224  14.922 -0.8405  0.9580  0.1215
 2033TIP3   OH227513   1.561   0.325  16.720  0.0559  0.1600 -0.4170
 2033TIP3    H127514   1.631   0.385  16.693  0.2625 -0.3556 -1.0476
 2033TIP3    H227515   1.589   0.240  16.687  0.1714 -0.4561  1.1777
 2034TIP3   OH227516   4.490   3.414   4.834 -0.5066 -0.3741 -0.9384
 2034TIP3    H127517   4.419   3.353   4.852 -1.2573  0.5582 -0.6818
 2034TIP3    H227518   4.528   3.433   4.920 -0.6140 -0.0737 -0.9575
 2035TIP3   OH227519   5.854   3.747  13.966  0.4719 -0.0113  0.1261
 2035TIP3    H127520   5.934   3.758  14.017  1.0042 -0.6831 -0.5350
 2035TIP3    H227521   5.793   3.810  14.003  1.3833  0.6776  0.5027
 2036TIP3   OH227522   2.445   1.694   0.856  0.5687  0.2106 -0.6068
 2036TIP3    H127523   2.515   1.755   0.880  0.3019  0.4693 -0.4684
 2036TIP3    H227524   2.404   1.736   0.780 -0.6726  1.0560  0.4849
 2037TIP3   OH227525   0.034   4.922  17.080  0.6274 -0.2137 -0.0405
 2037TIP3    H127526   0.099   4.859  17.050  0.5467 -0.6139  0.6086
 2037TIP3    H227527   0.077   5.007  17.071  1.5096 -0.5281  1.0649
 2038TIP3   OH227528   2.200   4.203   4.993  0.3397 -0.0042 -0.0545
 2038TIP3    H127529   2.253   4.282   4.981 -0.1871  0.1474 -1.5471
 2038TIP3    H227530   2.147   4.222   5.071 -0.4621  1.5198 -0.9331
 2039TIP3   OH227531   1.549   2.398   5.198  0.6546  0.0682 -0.1545
 2039TIP3    H127532   1.529   2.484   5.161 -1.9160 -0.8260 -1.0790
 2039TIP3    H227533   1.608   2.358   5.134 -1.2412 -0.2576 -1.7942
 2040TIP3   OH227534   2.185   0.564   5.146  0.8848 -0.0982  0.1398
 2040TIP3    H127535   2.134   0.510   5.085 -1.1786  0.6444  1.1241
 2040TIP3    H227536   2.184   0.651   5.108 -2.0044  0.8102  1.9762
 2041TIP3   OH227537   3.757   0.100  15.434  0.4209 -0.3498 -0.3017
 2041TIP3    H127538   3.668   0.066  15.439  0.6967 -1.3538 -1.8472
 2041TIP3    H227539   3.813   0.025  15.454  0.9474  0.3879  1.1658
 2042TIP3   OH227540   6.517   4.298   1.504 -0.4043 -0.1754  0.1715
 2042TIP3    H127541   6.487   4.292   1.594 -0.3779 -0.4913  0.1603
 2042TIP3    H227542   6.437   4.294   1.451 -0.6376  2.3149  0.2477
 2043TIP3   OH227543   6.136   1.180  14.248 -0.0140 -0.3234  0.2264
 2043TIP3    H127544   6.206   1.165  14.312 -0.4328  0.5626  0.9128
 2043TIP3    H227545   6.055   1.164  14.296 -0.3232  0.0565 -0.1628
 2044TIP3   OH227546   6.544   6.219   3.321 -0.2719 -0.1706  0.5760
 2044TIP3    H127547   6.560   6.210   3.415 -1.7506 -1.2412  0.7617
 2044TIP3    H227548   6.631   6.215   3.282  0.2788 -0.9921  1.8200
 2045TIP3   OH227549   6.059   6.344   0.705 -0.0367  0.0224  0.2521
 2045TIP3    H127550   6.017   6.362   0.789 -0.6123  1.4691 -0.3182
 2045TIP3    H227551   6.009   6.396   0.642  1.1205 -0.1182 -0.8113
 2046TIP3   OH227552   0.742   4.063  14.320 -0.0506 -0.0083  0.4559
 2046TIP3    H127553   0.814   4.050  14.258 -0.7423 -0.3667 -0.2945
 2046TIP3    H227554   0.670   4.011  14.284 -1.0456  1.2313  0.5653
 2047TIP3   OH227555   4.018   4.695  13.629 -0.4494 -0.4043 -0.4528
 2047TIP3    H127556   4.006   4.784  13.594 -0.8535 -0.5807 -0.7644
 2047TIP3    H227557   3.985   4.637  13.560  0.3055 -0.8240 -0.4780
 2048TIP3   OH227558   0.416   4.346  12.424  0.0230 -0.2963  0.2603
 2048TIP3    H127559   0.375   4.286  12.486 -0.8793 -0.0881 -0.1225
 2048TIP3    H227560   0.431   4.294  12.345  1.8083 -0.7516  0.8498
 2049TIP3   OH227561   0.568   5.875  16.278 -0.5513 -0.6066 -0.2738
 2049TIP3    H127562   0.643   5.817  16.262  0.3750  0.4795 -0.0147
 2049TIP3    H227563   0.536   5.898  16.191  1.2331  1.1781 -0.5207
 2050TIP3   OH227564   1.573   4.585   5.691 -0.4630 -0.4285 -0.0176
 2050TIP3    H127565   1.481   4.562   5.706 -0.6191  0.5343  0.5971
 2050TIP3    H227566   1.617   4.560   5.772 -0.1755 -0.8837 -0.3098
 2051TIP3   OH227567   0.953   1.579   0.361 -0.6424 -0.2590  0.1688
 2051TIP3    H127568   0.859   1.590   0.368 -0.7425 -0.8174 -0.1569
 2051TIP3    H227569   0.984   1.657   0.314 -0.8294  0.2986  0.9570
 2052TIP3   OH227570   4.573   2.144   6.050  0.2955 -0.1757 -0.2124
 2052TIP3    H127571   4.576   2.159   5.956 -1.0881 -0.7348 -0.3608
 2052TIP3    H227572   4.524   2.218   6.085  0.2124 -0.3226 -0.0156
 2053TIP3   OH227573   2.862   6.209  15.578 -0.3744 -0.6442 -0.1007
 2053TIP3    H127574   2.847   6.298  15.544  2.3789 -0.0523  0.0264
 2053TIP3    H227575   2.830   6.212  15.668  4.1233  1.9561  1.7336
 2054TIP3   OH227576   2.221   4.795  15.451  0.3326 -0.4719  0.0713
 2054TIP3    H127577   2.196   4.754  15.367  0.3989  1.3532 -0.8772
 2054TIP3    H227578   2.316   4.788  15.454  0.5666  1.4085 -1.1287
 2055TIP3   OH227579   2.436   1.584   4.172 -0.1225  0.5446 -0.5187
 2055TIP3    H127580   2.434   1.489   4.189 -2.5993  0.6197 -0.0310
 2055TIP3    H227581   2.387   1.595   4.091  2.4654  1.2294 -2.0835
 2056TIP3   OH227582   1.365   6.012   4.802  0.0634 -0.2266 -0.4238
 2056TIP3    H127583   1.394   6.081   4.862 -1.7260  0.9396 -0.8242
 2056TIP3    H227584   1.379   6.049   4.715  0.4092 -0.9565 -0.6894
 2057TIP3   OH227585   3.504   2.376   0.598  0.4387  0.5923  0.2567
 2057TIP3    H127586   3.495   2.372   0.694  0.9190 -0.4801  0.2749
 2057TIP3    H227587   3.598   2.385   0.584  0.6409 -1.4669 -0.1181
 2058TIP3   OH227588   5.588   0.301  13.620 -0.0500 -0.0189  0.0292
 2058TIP3    H127589   5.632   0.270  13.699 -0.4096 -1.5436 -0.3359
 2058TIP3    H227590   5.506   0.338  13.651  0.2636  0.3318  0.4537
 2059TIP3   OH227591   4.017   1.533   2.672 -0.1938  0.0864  0.4849
 2059TIP3    H127592   3.954   1.479   2.624  0.4587 -0.8282  0.6141
 2059TIP3    H227593   4.077   1.469   2.711  0.8655  0.9396  0.2788
 2060TIP3   OH227594   2.195   0.966   0.509  0.2566 -0.1469 -0.1070
 2060TIP3    H127595   2.110   0.927   0.527  1.2742 -1.8184  1.5550
 2060TIP3    H227596   2.205   0.961   0.414 -0.6312 -1.9333 -0.1380
 2061TIP3   OH227597   0.719   6.220  15.603 -0.4628 -0.4890 -0.0471
 2061TIP3    H127598   0.707   6.263  15.519  1.3144  1.2484  0.5254
 2061TIP3    H227599   0.712   6.126  15.583 -3.2361 -0.0831 -1.5224
 2062TIP3   OH227600   1.599   5.692   4.284 -0.0521  0.5597  0.2827
 2062TIP3    H127601   1.616   5.680   4.191  0.2139  0.6014  0.3243
 2062TIP3    H227602   1.553   5.776   4.290 -0.7354  0.2070  0.1199
 2063TIP3   OH227603   5.895   6.378   3.659 -0.1501 -0.1096  0.3314
 2063TIP3    H127604   5.862   6.290   3.677  0.8532 -0.6026 -0.1105
 2063TIP3    H227605   5.964   6.364   3.594 -1.1341  1.1920 -1.0534
 2064TIP3   OH227606   2.446   5.883  11.162 -0.3506  0.1758  0.7499
 2064TIP3    H127607   2.384   5.936  11.112 -0.7374 -2.3665 -1.6569
 2064TIP3    H227608   2.397   5.806  11.188  0.8585 -0.2145  1.9957
 2065TIP3   OH227609   1.832   2.191   5.062  0.1341  0.2600 -0.1665
 2065TIP3    H127610   1.871   2.247   4.995 -0.7644  2.9797  1.4316
 2065TIP3    H227611   1.906   2.153   5.108  0.7666 -0.6522 -1.8644
 2066TIP3   OH227612   4.632   6.775  15.035  0.2594 -0.4727  0.4231
 2066TIP3    H127613   4.576   6.703  15.003  1.0653 -0.4128 -1.2514
 2066TIP3    H227614   4.718   6.756  14.998  1.2427 -0.2225  2.4398
 2067TIP3   OH227615   0.082   4.415  11.649  0.5562 -0.1111  0.2393
 2067TIP3    H127616   0.157   4.474  11.646 -0.8089  1.7194  0.6084
 2067TIP3    H227617   0.052   4.418  11.739  0.8572 -1.9672  0.4471
 2068TIP3   OH227618   3.301   1.710   6.028 -0.3240  0.1870  0.0765
 2068TIP3    H127619   3.208   1.723   6.046 -0.4915  0.1101 -0.6915
 2068TIP3    H227620   3.309   1.721   5.933  0.7575  2.0463  0.3310
 2069TIP3   OH227621   2.974   4.274  15.593 -0.1148 -0.5060 -0.2840
 2069TIP3    H127622   2.937   4.290  15.680 -0.4232 -0.4525 -0.4213
 2069TIP3    H227623   2.953   4.182  15.575 -0.9618 -0.2475 -0.7211
 2070TIP3   OH227624   1.274   4.755  13.334 -0.0066  0.0791  0.7181
 2070TIP3    H127625   1.316   4.671  13.350  1.6879  0.8727  0.6605
 2070TIP3    H227626   1.332   4.819  13.375 -0.7229  1.3014 -0.1032
 2071TIP3   OH227627   5.863   1.352  16.128 -0.9150  0.0832  0.1929
 2071TIP3    H127628   5.817   1.411  16.069  0.0332 -0.2207 -0.8993
 2071TIP3    H227629   5.811   1.272  16.129 -1.0273  0.1539 -0.0995
 2072TIP3   OH227630   1.904   4.293   2.770 -0.2710 -0.2452 -0.3647
 2072TIP3    H127631   1.831   4.263   2.715 -0.6993  0.5970 -0.2752
 2072TIP3    H227632   1.937   4.371   2.725  1.7731 -1.6007 -1.3841
 2073TIP3   OH227633   0.022   3.984   3.173  0.5234 -0.2224  0.6614
 2073TIP3    H127634  -0.032   4.033   3.235 -1.0900 -1.0947 -0.0002
 2073TIP3    H227635   0.001   4.022   3.088 -0.4990 -1.7633  0.1773
 2074TIP3   OH227636   6.403   2.032   1.556 -0.1929 -0.5322 -0.1018
 2074TIP3    H127637   6.461   2.077   1.617 -0.2919  0.4443 -0.7086
 2074TIP3    H227638   6.341   2.099   1.526  0.3547 -0.7556 -1.8863
 2075TIP3   OH227639   0.808   5.951  14.152 -0.2495  0.0402  0.6165
 2075TIP3    H127640   0.732   5.976  14.204  0.8795  0.2102  2.2660
 2075TIP3    H227641   0.835   6.031  14.108  0.2242  0.4966  1.7145
 2076TIP3   OH227642   3.757   4.115  15.973  0.2366 -0.0690  0.5200
 2076TIP3    H127643   3.828   4.170  15.940 -0.7831  0.9608 -0.0050
 2076TIP3    H227644   3.731   4.155  16.055 -2.5479  2.1951 -1.2625
 2077TIP3   OH227645   2.061   6.714   2.195 -0.3160 -0.1083 -0.3441
 2077TIP3    H127646   2.057   6.632   2.245  0.9181 -0.9616 -1.5869
 2077TIP3    H227647   2.130   6.765   2.237 -0.2921 -0.1893 -0.2854
 2078TIP3   OH227648   1.328   3.926  14.215 -0.2127 -0.2235  0.7570
 2078TIP3    H127649   1.277   3.952  14.291 -1.4327 -1.2100  0.3185
 2078TIP3    H227650   1.341   3.832  14.226 -0.1160 -0.3171 -0.0729
 2079TIP3   OH227651   0.876   5.691  14.278 -0.2050  0.4554 -0.5298
 2079TIP3    H127652   0.881   5.779  14.240 -0.9639  0.6078 -0.3030
 2079TIP3    H227653   0.889   5.632  14.204 -1.2017  0.7504 -0.9583
 2080TIP3   OH227654   5.854   3.222  14.926  0.1406 -0.4837 -0.2267
 2080TIP3    H127655   5.792   3.289  14.956  0.6975 -0.0547 -0.0284
 2080TIP3    H227656   5.831   3.144  14.976 -0.2015 -0.3105 -0.1114
 2081TIP3   OH227657   3.275   1.553  11.130 -0.0943  0.2558 -0.2743
 2081TIP3    H127658   3.218   1.538  11.206 -2.6875 -0.7231 -2.2873
 2081TIP3    H227659   3.235   1.628  11.086  0.1730 -0.4456 -1.7360
 2082TIP3   OH227660   5.914   6.502  13.233 -0.1813 -0.4302  0.4273
 2082TIP3    H127661   5.885   6.461  13.152 -0.8349 -0.2932  0.5874
 2082TIP3    H227662   5.848   6.569  13.252 -0.6186 -1.1653  1.6336
 2083TIP3   OH227663   0.579   6.004  14.309 -0.0080  0.1272 -0.0315
 2083TIP3    H127664   0.532   5.921  14.312  1.6030 -0.8405 -0.4257
 2083TIP3    H227665   0.536   6.053  14.239 -2.0913  0.3907  1.3423
 2084TIP3   OH227666   2.328   1.311   2.043 -0.4238 -0.2641 -0.1237
 2084TIP3    H127667   2.348   1.366   1.967 -1.2178  0.0599 -0.1095
 2084TIP3    H227668   2.396   1.244   2.042  0.6516  0.7910 -0.0647
 2085TIP3   OH227669   0.026   5.270   1.666  0.0570 -0.2485 -0.3798
 2085TIP3    H127670  -0.060   5.229   1.677 -0.2130 -0.1914 -1.9701
 2085TIP3    H227671   0.086   5.213   1.714 -0.7821 -0.5828  0.3070
 2086TIP3   OH227672   3.822   1.813   0.971 -0.6607  0.1631  0.4831
 2086TIP3    H127673   3.845   1.802   0.879  2.0196 -0.0195  1.0687
 2086TIP3    H227674   3.895   1.865   1.007  0.0667 -2.4207  3.1235
 2087TIP3   OH227675   1.476   1.472   4.297 -0.0323 -0.2562 -0.5468
 2087TIP3    H127676   1.570   1.457   4.288 -0.1000 -0.9299 -0.1768
 2087TIP3    H227677   1.437   1.423   4.225 -0.2738 -2.1758  0.8200
 2088TIP3   OH227678   6.334   5.282  13.107 -0.0532  0.6051  0.7329
 2088TIP3    H127679   6.371   5.276  13.019 -0.6048  0.3656  0.5168
 2088TIP3    H227680   6.347   5.373  13.132 -1.2898  1.0720 -0.2230
 2089TIP3   OH227681   4.107   2.884   3.927  0.5340 -0.3613 -0.0106
 2089TIP3    H127682   4.162   2.857   4.000 -2.1406  0.8761  2.6450
 2089TIP3    H227683   4.118   2.979   3.922  0.3688 -0.3757 -0.9842
 2090TIP3   OH227684   1.916   1.751   1.551 -0.3387  0.1942  0.4070
 2090TIP3    H127685   1.919   1.792   1.464  0.5618 -1.0595 -0.1896
 2090TIP3    H227686   2.007   1.731   1.570 -0.5884  0.0313  1.4496
 2091TIP3   OH227687   2.906   4.249   1.326 -0.1663 -0.5412 -0.4496
 2091TIP3    H127688   2.847   4.182   1.361  1.0274 -1.2377  0.3087
 2091TIP3    H227689   2.990   4.204   1.316  1.0246  1.1052  1.3115
 2092TIP3   OH227690   6.391   4.825   0.450 -0.6622 -0.2168 -0.0668
 2092TIP3    H127691   6.418   4.834   0.359  0.1576  0.5589  0.2379
 2092TIP3    H227692   6.385   4.914   0.483  1.4879 -0.5071  1.3139
 2093TIP3   OH227693   6.516   5.136   4.841 -0.3916  0.0699 -0.5915
 2093TIP3    H127694   6.533   5.076   4.914 -0.3505 -0.9022 -1.3682
 2093TIP3    H227695   6.460   5.204   4.877 -2.2519 -1.5859 -0.1495
 2094TIP3   OH227696   6.272   1.739   0.254 -0.1758  0.4405 -0.2191
 2094TIP3    H127697   6.342   1.787   0.300  0.4322  0.0549 -0.7230
 2094TIP3    H227698   6.304   1.649   0.251 -0.4596  0.3604 -0.9088
 2095TIP3   OH227699   1.695   1.102  15.623  0.1312  0.1251 -0.0288
 2095TIP3    H127700   1.769   1.123  15.679  1.0719  1.0820 -1.5482
 2095TIP3    H227701   1.715   1.014  15.589  0.3426  0.1969 -0.0899
 2096TIP3   OH227702   0.223   0.027  16.175 -0.7922 -0.1874 -0.6966
 2096TIP3    H127703   0.242   0.011  16.268 -0.0304  1.5849 -0.5117
 2096TIP3    H227704   0.308   0.018  16.132 -1.3715 -2.4614 -1.5026
 2097TIP3   OH227705   0.889   4.281  15.685 -0.2524  0.3859 -0.0783
 2097TIP3    H127706   0.815   4.343  15.686 -1.0392 -0.5212  1.5261
 2097TIP3    H227707   0.871   4.223  15.611 -0.6749  0.7194 -0.2410
 2098TIP3   OH227708   2.259   2.707  11.914 -0.3023 -0.0677 -0.5423
 2098TIP3    H127709   2.244   2.774  11.981  0.0024 -1.5071  1.0225
 2098TIP3    H227710   2.198   2.730  11.843 -1.8219  0.5852  0.9047
 2099TIP3   OH227711   1.523   0.738  11.889 -0.2930 -0.0558  0.5076
 2099TIP3    H127712   1.504   0.724  11.982  2.2221 -1.2663  0.9165
 2099TIP3    H227713   1.618   0.737  11.883 -0.3767 -0.6591 -2.1782
 2100TIP3   OH227714   3.570   6.663   2.224  0.2649 -0.3037  0.1676
 2100TIP3    H127715   3.526   6.720   2.286  1.5953  1.2930 -0.2779
 2100TIP3    H227716   3.573   6.713   2.143  3.2079 -0.0866  0.2881
 2101TIP3   OH227717   4.008   1.147  17.142  0.2988  0.0839 -0.9683
 2101TIP3    H127718   4.009   1.243  17.149  2.5943 -0.0236  2.0900
 2101TIP3    H227719   4.074   1.127  17.076  1.1322  0.6102 -0.3198
 2102TIP3   OH227720   6.294   3.092   0.819 -0.2005  0.1033 -0.2471
 2102TIP3    H127721   6.312   3.015   0.873 -1.4533 -0.8541 -1.1430
 2102TIP3    H227722   6.262   3.056   0.736  0.2516  1.5719 -1.0910
 2103TIP3   OH227723   3.010   6.697  13.577 -0.3066 -0.2570 -0.2019
 2103TIP3    H127724   3.035   6.606  13.595  0.2695 -0.3397 -1.3171
 2103TIP3    H227725   2.970   6.693  13.490 -2.1784  0.2441  0.5754
 2104TIP3   OH227726   5.493   6.361  14.796  0.2874  0.3007 -0.3930
 2104TIP3    H127727   5.583   6.349  14.827  0.1309 -1.2673 -0.4874
 2104TIP3    H227728   5.440   6.363  14.875  0.2473 -0.3081 -0.4031
 2105TIP3   OH227729   1.081   6.625  10.732 -0.4055 -0.0927 -0.5304
 2105TIP3    H127730   1.082   6.710  10.776  1.4946  0.6208 -1.7734
 2105TIP3    H227731   1.113   6.563  10.797 -0.7095  0.3508  0.0435
 2106TIP3   OH227732   1.574   6.173  13.888 -0.3484 -0.4764  0.4460
 2106TIP3    H127733   1.558   6.120  13.809 -2.0509  2.5186 -1.4314
 2106TIP3    H227734   1.491   6.169  13.936 -0.5037  0.4665  0.2695
 2107TIP3   OH227735   3.244   0.687   1.129  0.1630 -0.0060  0.1230
 2107TIP3    H127736   3.295   0.755   1.085 -0.9577  0.6333 -0.2375
 2107TIP3    H227737   3.279   0.605   1.096 -2.0667  0.3992 -3.8286
 2108TIP3   OH227738   0.726   2.958  13.139 -0.2027  0.1164  0.2457
 2108TIP3    H127739   0.663   2.903  13.091 -0.4765 -1.1675  2.0046
 2108TIP3    H227740   0.805   2.905  13.145  0.1033  0.5986  0.5236
 2109TIP3   OH227741   4.523   1.617   5.703  0.4969 -0.3446 -0.0108
 2109TIP3    H127742   4.450   1.577   5.655  0.0565 -0.8976  1.0688
 2109TIP3    H227743   4.486   1.698   5.739  0.7248 -0.1028 -0.3160
 2110TIP3   OH227744   4.478   0.743  13.792  0.0345  0.2151  0.4827
 2110TIP3    H127745   4.556   0.710  13.747  0.6381  1.8052  0.2909
 2110TIP3    H227746   4.463   0.681  13.863  1.9366  0.2724  0.9958
 2111TIP3   OH227747   2.448   3.044  13.088  0.5971  0.3916 -0.4302
 2111TIP3    H127748   2.392   2.967  13.074  1.3612 -0.1347 -0.6575
 2111TIP3    H227749   2.413   3.110  13.029 -1.4573  0.9964  1.3268
 2112TIP3   OH227750   5.727   4.932   6.452 -0.3049  0.2579  0.4389
 2112TIP3    H127751   5.649   4.885   6.424  0.5618 -0.2843 -1.2350
 2112TIP3    H227752   5.800   4.875   6.427  0.6868  1.5749  0.2006
 2113TIP3   OH227753   0.803   3.399   1.752  0.4169 -0.0500 -0.0521
 2113TIP3    H127754   0.776   3.470   1.809  1.6708 -0.5772  1.2685
 2113TIP3    H227755   0.833   3.442   1.672  1.0409  0.9030  0.6717
 2114TIP3   OH227756   4.486   5.151   6.165  0.6466 -0.7866  0.4064
 2114TIP3    H127757   4.567   5.154   6.216  0.2182  1.0085  1.0579
 2114TIP3    H227758   4.456   5.060   6.173  0.7396 -0.6627  3.2086
 2115TIP3   OH227759   1.679   0.284  15.027 -0.7651  0.2940  0.3484
 2115TIP3    H127760   1.770   0.307  15.047 -0.1982 -0.4717 -1.1796
 2115TIP3    H227761   1.667   0.197  15.066  0.0362 -0.7723 -1.6259
 2116TIP3   OH227762   5.393   1.053   0.713  0.0324 -0.4688  0.2828
 2116TIP3    H127763   5.444   1.081   0.789  0.2053 -1.8928  0.7149
 2116TIP3    H227764   5.317   1.111   0.713  0.1122 -0.3341  1.4493
 2117TIP3   OH227765   6.540   4.040  13.937  0.1878  0.2594  0.0600
 2117TIP3    H127766   6.514   4.113  13.993 -0.4930  0.5109 -0.5686
 2117TIP3    H227767   6.458   4.002  13.907  0.5210  0.5652 -1.3106
 2118TIP3   OH227768   0.447   3.153  12.244  0.4237  0.1150  0.3825
 2118TIP3    H127769   0.430   3.246  12.257  1.0801  0.1064  1.4814
 2118TIP3    H227770   0.380   3.124  12.183  0.0489  1.2524  0.2361
 2119TIP3   OH227771   2.426   6.248  14.240 -0.3203  0.3562  0.1649
 2119TIP3    H127772   2.426   6.338  14.206  0.4213 -0.6166 -2.6457
 2119TIP3    H227773   2.518   6.230  14.258 -0.1038 -0.6783 -1.8190
 2120TIP3   OH227774   6.084   2.381  16.856 -0.3298 -0.0057 -0.8126
 2120TIP3    H127775   6.118   2.329  16.929  1.4393 -0.5976 -1.9719
 2120TIP3    H227776   6.078   2.318  16.784  0.7012  1.1262 -1.9264
 2121TIP3   OH227777   5.707   6.264   1.168  0.3837  0.0266  0.6294
 2121TIP3    H127778   5.769   6.327   1.131 -0.8797  1.4264  0.7851
 2121TIP3    H227779   5.711   6.189   1.110  0.7397  0.9125 -0.5265
 2122TIP3   OH227780   5.963   4.140   1.459  0.1605 -0.1506 -0.4276
 2122TIP3    H127781   5.871   4.120   1.438  0.6307 -1.3058 -1.4887
 2122TIP3    H227782   5.995   4.188   1.383  0.7219 -0.6693 -0.5219
 2123TIP3   OH227783   4.212   3.455  12.960  0.8679 -0.1137 -0.2715
 2123TIP3    H127784   4.182   3.469  12.870 -1.0666  2.8621  0.6984
 2123TIP3    H227785   4.304   3.483  12.959  0.6618  0.5834 -1.1831
 2124TIP3   OH227786   3.242   4.976   5.761  0.1469  0.5521 -0.0829
 2124TIP3    H127787   3.215   4.912   5.695 -1.2110  3.0376 -2.1045
 2124TIP3    H227788   3.223   4.933   5.844 -1.8312 -1.2304 -1.3431
 2125TIP3   OH227789   3.045   5.017   4.398  1.1544  0.3931 -0.2938
 2125TIP3    H127790   3.121   4.960   4.395  1.1080  0.2313  0.9125
 2125TIP3    H227791   3.022   5.021   4.491  0.4280  1.4090 -0.4994
 2126TIP3   OH227792   5.235   2.097   2.747 -0.5052 -0.9190 -0.6707
 2126TIP3    H127793   5.275   2.012   2.729 -0.3223 -0.8288 -0.6995
 2126TIP3    H227794   5.298   2.141   2.804 -0.1816 -0.4680 -1.3479
 2127TIP3   OH227795   6.034   4.635  15.369 -0.4178 -0.1014  0.1073
 2127TIP3    H127796   6.049   4.675  15.283  1.0037 -1.7541 -0.4705
 2127TIP3    H227797   5.980   4.558  15.351 -0.6898 -0.0773  0.7868
 2128TIP3   OH227798   1.170   4.783  13.721 -0.2005 -0.1821 -0.0829
 2128TIP3    H127799   1.123   4.796  13.639 -0.1765 -0.0545 -0.0767
 2128TIP3    H227800   1.170   4.688  13.734 -0.2973 -0.1946 -0.1750
 2129TIP3   OH227801   4.078   5.580   4.997 -0.0636 -0.1349 -0.1094
 2129TIP3    H127802   4.061   5.565   5.090  2.7896  0.1054  0.5413
 2129TIP3    H227803   4.060   5.495   4.955  1.7003 -1.2209  1.2065
 2130TIP3   OH227804   5.451   4.180  11.255  0.7452 -0.0471 -0.3536
 2130TIP3    H127805   5.502   4.159  11.177  2.5829  0.8880  0.5293
 2130TIP3    H227806   5.512   4.228  11.311 -0.6365 -0.3483  1.4993
 2131TIP3   OH227807   3.425   0.719  14.569  0.0961  0.9114  0.1802
 2131TIP3    H127808   3.368   0.691  14.641 -0.2604  2.3888  0.5089
 2131TIP3    H227809   3.378   0.692  14.490  0.0763  0.0439  0.4758
 2132TIP3   OH227810   4.533   6.496   5.822  0.6865  0.0274  0.1316
 2132TIP3    H127811   4.476   6.420   5.822 -0.5478  0.9295  0.2946
 2132TIP3    H227812   4.595   6.480   5.894 -1.1591  0.3199  1.8694
 2133TIP3   OH227813   2.433   2.115   0.540 -0.2748  0.1108  0.6219
 2133TIP3    H127814   2.395   2.122   0.628  1.5102 -0.5593  1.5007
 2133TIP3    H227815   2.501   2.182   0.539 -0.3285  0.1598 -0.2966
 2134TIP3   OH227816   4.291   6.046  12.410 -0.0531  0.3838 -0.0968
 2134TIP3    H127817   4.297   6.126  12.356 -2.4615  1.6828  1.4064
 2134TIP3    H227818   4.335   6.069  12.492  0.0801 -0.1770 -0.0072
 2135TIP3   OH227819   3.329   4.447  10.737 -0.6067 -0.3400 -0.0690
 2135TIP3    H127820   3.284   4.416  10.659  0.7116  1.1699 -1.4967
 2135TIP3    H227821   3.422   4.438  10.718 -0.2410  0.9640  0.9092
 2136TIP3   OH227822   4.534   5.297   3.198  0.3612 -0.1232 -0.2587
 2136TIP3    H127823   4.606   5.327   3.142 -1.1077  1.3079 -1.5074
 2136TIP3    H227824   4.465   5.272   3.136  0.5965 -3.9532  0.8018
 2137TIP3   OH227825   2.727   2.624   5.532  0.5428 -0.1619 -0.1022
 2137TIP3    H127826   2.787   2.559   5.496  0.3723  0.5658 -1.7651
 2137TIP3    H227827   2.746   2.704   5.483 -1.4217  0.2158 -0.3146
 2138TIP3   OH227828   4.547   1.475  16.491  0.3599 -0.1517  0.6666
 2138TIP3    H127829   4.495   1.503  16.417  1.1827 -1.2505 -0.3826
 2138TIP3    H227830   4.638   1.495  16.466  1.1317 -4.1714 -0.5587
 2139TIP3   OH227831   0.709   3.710  14.471  0.1390  0.6660 -0.4730
 2139TIP3    H127832   0.787   3.766  14.474  0.6650 -0.0055 -1.2711
 2139TIP3    H227833   0.743   3.621  14.469 -0.6274  0.3715 -1.4543
 2140TIP3   OH227834   0.247   5.116  16.630 -0.2737  0.5935  0.4761
 2140TIP3    H127835   0.295   5.044  16.588  0.1284  1.0049  0.2261
 2140TIP3    H227836   0.163   5.118  16.584 -0.5113 -0.0748  0.8585
 2141TIP3   OH227837   6.167   4.335   1.825 -0.2551  0.5370  0.7960
 2141TIP3    H127838   6.138   4.425   1.810  0.1071  0.3469 -1.3851
 2141TIP3    H227839   6.089   4.282   1.811 -0.8606  0.5515  3.6595
 2142TIP3   OH227840   4.899   5.585   3.619  0.2347 -0.0048  0.6835
 2142TIP3    H127841   4.856   5.669   3.604  1.9516  0.8852  0.6168
 2142TIP3    H227842   4.903   5.544   3.533  0.1554  0.2138  0.5754
 2143TIP3   OH227843   5.035   1.102  16.383  0.2614  0.1591 -0.7964
 2143TIP3    H127844   5.106   1.155  16.417  2.3167 -1.3309 -2.4795
 2143TIP3    H227845   5.026   1.030  16.445 -0.4907  0.8354 -0.0879
 2144TIP3   OH227846   0.824   2.631  14.370  0.1530 -0.2708 -0.4712
 2144TIP3    H127847   0.801   2.723  14.385 -0.8331 -0.0943 -2.6934
 2144TIP3    H227848   0.777   2.584  14.439 -0.8801  0.7512 -0.4332
 2145TIP3   OH227849   4.212   0.744   1.198 -0.4417  0.1459  0.3436
 2145TIP3    H127850   4.307   0.754   1.188 -0.2324 -2.0008 -0.3470
 2145TIP3    H227851   4.201   0.710   1.287 -0.6014  0.6534  0.5215
 2146TIP3   OH227852   2.921   1.119   2.375 -0.0174  0.3133  0.0690
 2146TIP3    H127853   3.013   1.116   2.400  0.6939  1.5810 -2.0882
 2146TIP3    H227854   2.907   1.038   2.326  0.1250  0.4005 -0.1167
 2147TIP3   OH227855   6.512   5.639  14.038 -0.3861  0.5276 -0.1799
 2147TIP3    H127856   6.599   5.650  13.998  0.1676 -3.8142 -0.7313
 2147TIP3    H227857   6.454   5.622  13.965 -1.5157  2.2148  0.2829
 2148TIP3   OH227858   1.814   5.327   1.284 -0.9201 -0.0791  0.1408
 2148TIP3    H127859   1.741   5.335   1.346 -1.0540 -0.2728  0.0118
 2148TIP3    H227860   1.779   5.361   1.202 -0.3473  1.3430  0.4644
 2149TIP3   OH227861   4.614   3.620   0.093 -0.0198 -1.0217  0.2375
 2149TIP3    H127862   4.575   3.688   0.039 -0.7514 -3.6429 -2.8139
 2149TIP3    H227863   4.708   3.637   0.088 -0.2013 -0.1364 -0.3401
 2150TIP3   OH227864   6.729   5.595  16.627  0.6131  0.8621 -0.4259
 2150TIP3    H127865   6.742   5.595  16.532  0.2569  1.2921 -0.4768
 2150TIP3    H227866   6.813   5.625  16.663  0.9835  0.0222 -0.5654
 2151TIP3   OH227867   4.593   6.193   1.733  0.1546  0.8853 -0.0238
 2151TIP3    H127868   4.589   6.140   1.812  0.4232  2.2718  0.9737
 2151TIP3    H227869   4.517   6.168   1.682 -0.6525  0.7442  1.2111
 2152TIP3   OH227870   2.360   4.086  10.600  0.1833 -0.1589 -0.6084
 2152TIP3    H127871   2.392   4.021  10.538 -1.0040 -0.6743 -0.6970
 2152TIP3    H227872   2.265   4.079  10.597  0.0828 -0.4196  1.4859
 2153TIP3   OH227873   2.426   0.075   6.356 -0.3505  0.2312 -0.0613
 2153TIP3    H127874   2.441   0.035   6.270  1.1180  0.7687 -0.0783
 2153TIP3    H227875   2.488   0.148   6.360 -1.0195  0.7619  1.1064
 2154TIP3   OH227876   0.409   2.543  15.226 -0.0745  1.1408 -0.1268
 2154TIP3    H127877   0.349   2.504  15.162 -0.0911 -0.0474  0.5714
 2154TIP3    H227878   0.356   2.607  15.274 -0.6572  0.4808  0.1306
 2155TIP3   OH227879   4.808   3.356   4.717 -0.2893  0.5792 -0.2931
 2155TIP3    H127880   4.789   3.393   4.803  1.0945  2.0531 -0.5707
 2155TIP3    H227881   4.784   3.424   4.655 -3.7072 -1.3687 -1.3876
 2156TIP3   OH227882   4.054   4.869  17.079 -0.0297  0.9391 -0.6418
 2156TIP3    H127883   4.049   4.965  17.086  0.6121  0.8561  1.8146
 2156TIP3    H227884   3.968   4.839  17.109  1.7141  0.6901  5.4291
 2157TIP3   OH227885   5.559   3.121   4.060  0.6171 -0.4289  0.0514
 2157TIP3    H127886   5.632   3.136   4.120 -0.1666 -2.7013  1.7200
 2157TIP3    H227887   5.481   3.128   4.115 -0.2975 -0.3052 -1.2181
 2158TIP3   OH227888   1.078   1.109  14.115 -0.5929  0.7749 -0.1732
 2158TIP3    H127889   0.993   1.131  14.153 -1.7843 -1.2101 -1.5106
 2158TIP3    H227890   1.080   1.013  14.113  1.2143  0.7792 -1.1836
 2159TIP3   OH227891   5.361   2.246   1.159 -0.4584  0.0478  0.6600
 2159TIP3    H127892   5.430   2.279   1.216 -0.5905 -0.1136  0.9151
 2159TIP3    H227893   5.393   2.263   1.071 -0.7957  1.4633  0.7803
 2160TIP3   OH227894   5.225   5.985   2.355 -0.4551 -0.5669 -0.6627
 2160TIP3    H127895   5.313   5.959   2.383 -0.0035  0.6218 -0.8910
 2160TIP3    H227896   5.231   5.989   2.259 -0.5749  0.1155 -0.6447
 2161TIP3   OH227897   5.550   3.049  12.517 -0.5031 -0.1699  0.3633
 2161TIP3    H127898   5.560   3.125  12.574  0.8979  0.4797 -0.6876
 2161TIP3    H227899   5.581   3.079  12.431 -0.5170 -1.7384 -0.2238
 2162TIP3   OH227900   5.555   2.189   4.012  0.3532  0.2906  0.1169
 2162TIP3    H127901   5.512   2.166   3.929 -1.9427 -2.4612  1.8520
 2162TIP3    H227902   5.513   2.271   4.038 -0.7336 -0.1082 -0.3025
 2163TIP3   OH227903   2.209   3.260  11.263 -0.5265 -0.1381  0.3291
 2163TIP3    H127904   2.221   3.355  11.258 -0.3369 -0.2002 -0.4626
 2163TIP3    H227905   2.244   3.227  11.180 -2.6037 -0.7072 -0.3652
 2164TIP3   OH227906   3.995   0.123  14.221  0.2182  0.1643  0.1778
 2164TIP3    H127907   4.083   0.138  14.189 -0.2071  0.7135 -0.7775
 2164TIP3    H227908   3.960   0.054  14.165  0.0101  0.0136  0.4890
 2165TIP3   OH227909   2.323   1.328   0.509 -0.0767 -0.6198 -0.5523
 2165TIP3    H127910   2.230   1.349   0.497 -0.0163 -0.6076 -0.9896
 2165TIP3    H227911   2.350   1.384   0.582 -0.7607 -1.6273  0.5253
 2166TIP3   OH227912   4.364   6.770   1.774  0.1351  0.2235 -0.3954
 2166TIP3    H127913   4.391   6.701   1.713 -1.8680  0.1588 -1.2781
 2166TIP3    H227914   4.361   6.849   1.720 -3.3116 -0.1320 -0.9633
 2167TIP3   OH227915   4.019   0.332   4.561  0.8294 -0.4624 -0.2927
 2167TIP3    H127916   3.954   0.299   4.623 -0.8818 -1.0473 -2.2557
 2167TIP3    H227917   4.094   0.274   4.571  1.0404  0.1129  1.9135
 2168TIP3   OH227918   0.090   3.116   3.778 -0.3015 -0.2270  0.0159
 2168TIP3    H127919   0.163   3.058   3.757  0.4897  0.9100 -0.4686
 2168TIP3    H227920   0.126   3.204   3.770 -1.6024  0.3506  0.2507
 2169TIP3   OH227921   2.335   6.191   1.428  0.7944  0.2485 -0.1583
 2169TIP3    H127922   2.287   6.272   1.446  0.0571 -0.1326 -0.3981
 2169TIP3    H227923   2.427   6.218   1.430  0.5478  1.1681 -0.5785
 2170TIP3   OH227924   6.707   1.470  14.909  0.1043  0.3599  0.2684
 2170TIP3    H127925   6.615   1.459  14.935 -0.2561  2.5999  0.1594
 2170TIP3    H227926   6.756   1.458  14.991 -0.1644 -1.6618  0.1769
 2171TIP3   OH227927   3.246   3.862  12.613 -0.0078  0.0557  0.0442
 2171TIP3    H127928   3.306   3.930  12.644 -2.4480  1.5622  1.8768
 2171TIP3    H227929   3.248   3.870  12.518 -0.7292  3.3145  0.1650
 2172TIP3   OH227930   1.269   1.023  14.880  0.2401  0.0706  0.4587
 2172TIP3    H127931   1.215   0.977  14.945  0.4831  0.6190  1.0642
 2172TIP3    H227932   1.331   0.957  14.850 -0.1576 -0.3098  0.4590
 2173TIP3   OH227933   5.734   6.668  16.455  0.9010  0.1695 -0.0321
 2173TIP3    H127934   5.788   6.747  16.461  0.3086  0.5733  0.0417
 2173TIP3    H227935   5.648   6.695  16.487  0.8499 -0.6603  0.5744
 2174TIP3   OH227936   3.097   0.678  15.216 -0.2096 -0.8994 -0.0421
 2174TIP3    H127937   3.039   0.700  15.143  0.6269  0.5923 -0.2892
 2174TIP3    H227938   3.039   0.681  15.293 -0.7322 -0.7529 -0.4325
 2175TIP3   OH227939   1.057   0.134   3.467  0.0810  0.0791  0.4030
 2175TIP3    H127940   1.077   0.074   3.539 -0.9508 -0.6070  0.1336
 2175TIP3    H227941   1.086   0.088   3.389 -1.4143 -0.4342  0.1195
 2176TIP3   OH227942   5.479   4.278  10.710  0.3059  0.2400  0.8980
 2176TIP3    H127943   5.488   4.243  10.621  1.2023  1.9941  0.2508
 2176TIP3    H227944   5.386   4.299  10.718  0.4987  1.8064 -0.3731
 2177TIP3   OH227945   2.593   3.954   1.666 -0.3639 -0.4461  0.0557
 2177TIP3    H127946   2.592   4.021   1.734 -1.0984 -1.1295  0.7546
 2177TIP3    H227947   2.504   3.917   1.668 -0.1502 -1.0249 -0.7235
 2178TIP3   OH227948   5.736   4.411   2.219 -0.0901 -0.1048  0.8740
 2178TIP3    H127949   5.696   4.474   2.160  2.2085  1.1649  0.5622
 2178TIP3    H227950   5.828   4.410   2.195  0.6055 -0.8951  3.2499
 2179TIP3   OH227951   5.693   3.311   2.204 -0.1635 -0.0790  0.0243
 2179TIP3    H127952   5.744   3.386   2.236 -2.6768  1.6415  0.2647
 2179TIP3    H227953   5.753   3.265   2.145  1.7602  1.6028  0.5604
 2180TIP3   OH227954   5.776   6.243  14.815  0.0039  0.2375 -0.1732
 2180TIP3    H127955   5.763   6.192  14.895 -2.6070 -0.9094 -1.2109
 2180TIP3    H227956   5.790   6.177  14.747 -0.2671  1.0635 -1.0444
 2181TIP3   OH227957   6.593   1.530   1.047  0.2622 -0.0486 -0.3502
 2181TIP3    H127958   6.529   1.589   1.087 -1.1114  0.0901 -2.5495
 2181TIP3    H227959   6.674   1.546   1.094 -0.7620  1.5292  0.9795
 2182TIP3   OH227960   4.535   4.786  15.895 -0.3475 -0.4002 -0.0116
 2182TIP3    H127961   4.488   4.740  15.826 -0.7030 -0.8002  0.4867
 2182TIP3    H227962   4.585   4.718  15.940  0.5440 -0.0141 -0.3966
 2183TIP3   OH227963   3.552   1.313   4.336  0.0108  0.2452  0.2153
 2183TIP3    H127964   3.514   1.326   4.423  0.7784  0.3883  0.5329
 2183TIP3    H227965   3.478   1.286   4.282 -0.4633  0.0912  0.9249
 2184TIP3   OH227966   0.716   1.925  14.420 -0.1700  0.1441  0.0872
 2184TIP3    H127967   0.769   2.000  14.393  0.0079 -0.0107  0.0059
 2184TIP3    H227968   0.753   1.898  14.504 -0.2553  0.1685  0.1321
 2185TIP3   OH227969   0.327   6.501  16.686  0.3331  0.5484  0.6605
 2185TIP3    H127970   0.314   6.473  16.777  0.1475  0.1820  0.5221
 2185TIP3    H227971   0.306   6.424  16.634 -0.6085  1.0628  0.2548
 2186TIP3   OH227972   6.397   0.067  14.345  0.2117 -0.3154 -0.0939
 2186TIP3    H127973   6.409  -0.015  14.394 -0.2518 -1.1829 -1.3897
 2186TIP3    H227974   6.443   0.133  14.398  1.4788 -1.5881  0.4681
 2187TIP3   OH227975   2.393   1.903   2.209  0.2003  0.6005  0.6403
 2187TIP3    H127976   2.488   1.909   2.224 -0.0821 -0.0300  3.1370
 2187TIP3    H227977   2.366   1.829   2.264 -1.3946 -0.9852 -2.0519
 2188TIP3   OH227978   2.133   1.893  13.841  0.4394 -0.1874  0.0702
 2188TIP3    H127979   2.096   1.971  13.800  2.7260  1.2580  0.6174
 2188TIP3    H227980   2.061   1.855  13.891 -1.8454 -0.7489 -3.3373
 2189TIP3   OH227981   4.681   5.089   2.431  0.0090 -0.0409  0.4288
 2189TIP3    H127982   4.715   5.024   2.370  0.5154 -0.4145  1.0969
 2189TIP3    H227983   4.593   5.057   2.452 -0.2142  0.1536 -0.1859
 2190TIP3   OH227984   4.482   5.160  12.342 -0.2949 -0.1077  0.3164
 2190TIP3    H127985   4.576   5.146  12.329  0.2301  0.5447  2.8343
 2190TIP3    H227986   4.462   5.111  12.422 -2.0021  0.1662  0.0851
 2191TIP3   OH227987   0.290   5.497   6.393 -0.1237 -0.1554  0.2090
 2191TIP3    H127988   0.196   5.513   6.395  0.1313  1.3937  1.1558
 2191TIP3    H227989   0.329   5.580   6.367  1.1292  0.0670  2.5452
 2192TIP3   OH227990   2.770   5.109   0.866  0.6371  0.2252  0.2493
 2192TIP3    H127991   2.753   5.019   0.894 -0.4496  0.9043  1.9441
 2192TIP3    H227992   2.865   5.113   0.854  1.0311 -0.5682  2.5102
 2193TIP3   OH227993   5.024   4.120  12.220 -0.2051  0.1119  0.6571
 2193TIP3    H127994   4.943   4.164  12.192 -0.7226 -2.3785 -2.2037
 2193TIP3    H227995   5.083   4.127  12.146  0.3564 -2.3236  0.7937
 2194TIP3   OH227996   2.865   6.554  12.147  0.0050 -0.0542 -0.2810
 2194TIP3    H127997   2.903   6.471  12.176 -0.7325 -0.4415 -0.3761
 2194TIP3    H227998   2.939   6.606  12.116  0.4124 -0.9149 -0.7866
 2195TIP3   OH227999   2.574   4.099   4.706  0.2600  0.1320 -0.6173
 2195TIP3    H128000   2.618   4.024   4.747  0.4550 -0.3325 -1.6391
 2195TIP3    H228001   2.483   4.092   4.736  0.4592 -0.0079 -0.0195
 2196TIP3   OH228002   1.715   6.392  10.468  0.2766  0.0023 -0.1864
 2196TIP3    H128003   1.682   6.305  10.492  0.3754 -0.0391 -0.1952
 2196TIP3    H228004   1.645   6.431  10.416  0.5669 -0.4104 -0.9019
 2197TIP3   OH228005   2.329   1.185   2.605 -0.8382  0.6481 -0.2950
 2197TIP3    H128006   2.270   1.211   2.676  0.8109 -0.2716  1.4876
 2197TIP3    H228007   2.327   1.089   2.606 -0.2137  0.6210 -0.9707
 2198TIP3   OH228008   5.487   2.467   4.085 -0.1451 -0.2984  1.0227
 2198TIP3    H128009   5.431   2.465   4.163 -1.0882  0.2005  0.3730
 2198TIP3    H228010   5.524   2.555   4.084  1.4386 -0.8985  1.9565
 2199TIP3   OH228011   0.990   5.551   4.939  0.6029 -0.2029 -0.4370
 2199TIP3    H128012   0.991   5.617   5.008  0.1026 -0.1159 -0.5097
 2199TIP3    H228013   1.083   5.532   4.923  0.7376  0.1620 -0.1155
 2200TIP3   OH228014   5.238   0.640   3.579 -0.4657 -0.2813 -0.0853
 2200TIP3    H128015   5.275   0.552   3.570 -0.0174 -0.0168 -0.9599
 2200TIP3    H228016   5.168   0.630   3.644  0.5386 -0.9768  0.9185
 2201TIP3   OH228017   2.712   5.602  13.163 -0.4465  0.2506  0.0859
 2201TIP3    H128018   2.668   5.569  13.242 -1.3326 -0.4130 -0.6699
 2201TIP3    H228019   2.645   5.600  13.095  0.6447 -0.4720 -1.0280
 2202TIP3   OH228020   4.641   4.210   0.220  0.3826  0.1975 -0.3751
 2202TIP3    H128021   4.728   4.251   0.220  0.1159  0.7776 -0.5939
 2202TIP3    H228022   4.659   4.116   0.222  1.0082  0.3073  1.7911
 2203TIP3   OH228023   5.776   2.410  12.369 -0.0529  0.2431  0.1084
 2203TIP3    H128024   5.788   2.497  12.407 -0.3841  0.5889 -0.5641
 2203TIP3    H228025   5.712   2.423  12.298 -0.6226 -0.6583  0.4314
 2204TIP3   OH228026   4.851   0.981  14.099  0.4819 -0.3841  0.4141
 2204TIP3    H128027   4.941   1.014  14.107  0.3598  0.1054 -0.1857
 2204TIP3    H228028   4.796   1.059  14.110  0.0531 -0.9237  2.4683
 2205TIP3   OH228029   5.769   0.837  12.120 -0.1203 -0.1924 -0.0010
 2205TIP3    H128030   5.673   0.832  12.114  0.0145 -2.0156 -1.6725
 2205TIP3    H228031   5.788   0.930  12.111 -1.8402  0.7866  4.1018
 2206TIP3   OH228032   0.654   6.216  11.803  0.1123  0.1181  0.1687
 2206TIP3    H128033   0.572   6.264  11.813 -0.7612 -0.9822 -1.2682
 2206TIP3    H228034   0.677   6.188  11.891 -1.0689  0.4434  0.5889
 2207TIP3   OH228035   1.821   5.665  11.453  0.3539 -0.7755  0.1281
 2207TIP3    H128036   1.779   5.581  11.434  0.0407 -0.6606  0.3084
 2207TIP3    H228037   1.782   5.726  11.390 -0.0289 -0.5867  0.5441
 2208TIP3   OH228038   1.703   5.468   1.000  0.3667 -0.0778  0.3605
 2208TIP3    H128039   1.631   5.408   0.980  0.2728  0.3451 -0.6388
 2208TIP3    H228040   1.665   5.555   0.995  0.9601  0.1551 -0.2836
 2209TIP3   OH228041   5.008   3.970   5.562  0.4585 -0.0781 -0.3012
 2209TIP3    H128042   5.083   3.912   5.559 -0.0423 -0.7031 -0.8769
 2209TIP3    H228043   5.042   4.055   5.533  1.2633  0.0258  0.8505
 2210TIP3   OH228044   2.079   5.908  15.755 -0.2130 -0.3610 -0.3889
 2210TIP3    H128045   2.089   5.849  15.681 -1.5001 -1.9164  0.6043
 2210TIP3    H228046   2.005   5.872  15.805 -0.6106  1.7131  0.6313
 2211TIP3   OH228047   3.034   1.866   3.718  0.1678 -0.1566  0.0008
 2211TIP3    H128048   2.972   1.811   3.765 -0.7792 -0.2539 -1.3046
 2211TIP3    H228049   3.120   1.839   3.751 -0.0576 -3.7947 -1.7985
 2212TIP3   OH228050   3.887   4.734   1.158  0.2270 -0.2680 -0.1058
 2212TIP3    H128051   3.904   4.654   1.207  0.5144  0.3392  0.8114
 2212TIP3    H228052   3.903   4.805   1.221 -0.6333  0.4944 -0.7186
 2213TIP3   OH228053   3.342   3.098  11.051 -0.1187 -0.3105 -0.4156
 2213TIP3    H128054   3.249   3.123  11.052  0.4681  2.2263 -0.6339
 2213TIP3    H228055   3.363   3.081  11.143 -0.4779  0.5668 -0.1580
 2214TIP3   OH228056   0.142   1.511   1.051  0.2244  0.5950  0.0305
 2214TIP3    H128057   0.204   1.565   1.100  0.3340 -0.1207  0.7006
 2214TIP3    H228058   0.080   1.573   1.014  0.8012  1.2439  0.1366
 2215TIP3   OH228059   0.791   5.065  15.337  0.2389 -0.4217  0.3114
 2215TIP3    H128060   0.863   5.030  15.390 -0.1380 -0.7369  0.6137
 2215TIP3    H228061   0.743   5.123  15.396  0.1523 -0.3309  0.1534
 2216TIP3   OH228062   4.905   3.054   0.387  0.0321 -0.2214  0.1810
 2216TIP3    H128063   4.890   2.962   0.363  2.0356 -0.0304 -2.1486
 2216TIP3    H228064   4.992   3.074   0.354 -1.1038  3.1018 -1.2892
 2217TIP3   OH228065   4.660   0.186  11.373  0.3927 -0.1514 -0.0342
 2217TIP3    H128066   4.569   0.158  11.363  0.6790 -1.6575  1.1430
 2217TIP3    H228067   4.690   0.142  11.453  1.7903  1.2971  0.2869
 2218TIP3   OH228068   3.157   5.732  13.287  0.1259 -0.8036  0.5427
 2218TIP3    H128069   3.139   5.684  13.367 -0.6852 -0.9381  0.2870
 2218TIP3    H228070   3.193   5.816  13.316  0.4812 -1.1185  1.0192
 2219TIP3   OH228071   2.875   4.779   0.046  0.7651  0.4052 -0.0318
 2219TIP3    H128072   2.960   4.805   0.082  0.8057  0.4771 -0.1782
 2219TIP3    H228073   2.853   4.698   0.093  1.2291  0.0214 -0.4587
 2220TIP3   OH228074   6.087   2.586  14.138 -0.1613 -0.2002 -0.1798
 2220TIP3    H128075   6.170   2.608  14.181  0.0406 -1.0355 -0.1122
 2220TIP3    H228076   6.036   2.666  14.142 -0.3116 -0.3256  2.0256
 2221TIP3   OH228077   0.855   4.380   0.486 -0.1985  0.4069  0.5200
 2221TIP3    H128078   0.870   4.415   0.398 -0.4146 -0.0053  0.3160
 2221TIP3    H228079   0.942   4.374   0.525  0.1127 -1.1793 -0.3521
 2222TIP3   OH228080   0.921   2.639   1.021 -0.1210 -0.5096 -0.1849
 2222TIP3    H128081   0.885   2.659   0.934  2.3923  1.3031 -0.9280
 2222TIP3    H228082   0.860   2.680   1.082  0.0136  1.5873 -1.3345
 2223TIP3   OH228083   4.576   2.973  13.430  0.0524 -0.6852  0.7864
 2223TIP3    H128084   4.531   3.031  13.369  0.7282 -0.6078  0.3600
 2223TIP3    H228085   4.651   2.940  13.382  0.2988 -1.0417  1.3991
 2224TIP3   OH228086   0.465   1.799  13.136 -0.1436  0.0470 -0.2507
 2224TIP3    H128087   0.509   1.860  13.077 -1.2572 -0.0752 -1.2622
 2224TIP3    H228088   0.403   1.852  13.184  1.3147  0.2863  1.4575
 2225TIP3   OH228089   2.648   6.342  13.698  0.0092  0.3322 -0.2434
 2225TIP3    H128090   2.628   6.325  13.790 -1.6266 -1.5217 -0.8646
 2225TIP3    H228091   2.601   6.273  13.651  0.8496  1.2105 -2.4711
 2226TIP3   OH228092   3.407   1.805   0.107 -0.0133 -0.3476  0.2130
 2226TIP3    H128093   3.470   1.854   0.054 -0.7822  0.0037 -0.3925
 2226TIP3    H228094   3.414   1.844   0.194 -1.3599  1.6033 -0.4847
 2227TIP3   OH228095   4.291   6.652   3.803 -0.1480 -1.0441 -0.3177
 2227TIP3    H128096   4.304   6.746   3.821 -0.1284 -0.2369 -3.7800
 2227TIP3    H228097   4.342   6.608   3.871  2.1230  1.5489 -0.1136
 2228TIP3   OH228098   4.163   5.215   4.011  0.0210 -0.0866 -0.2049
 2228TIP3    H128099   4.248   5.219   3.965  0.1747  0.0772  0.0914
 2228TIP3    H228100   4.156   5.299   4.056 -1.0018  0.5283 -1.4605
 2229TIP3   OH228101   4.774   5.684   2.140 -0.2473 -0.0834  1.0082
 2229TIP3    H128102   4.702   5.660   2.198 -0.3349  0.4159  1.1053
 2229TIP3    H228103   4.846   5.707   2.199 -0.9587  2.4426  1.0032
 2230TIP3   OH228104   4.379   0.474  13.253 -0.8237 -0.3789 -0.7381
 2230TIP3    H128105   4.413   0.406  13.195  0.7948  1.3297 -1.9238
 2230TIP3    H228106   4.434   0.468  13.332 -2.3736 -2.0579  0.2629
 2231TIP3   OH228107   3.833   5.454   4.659 -0.1343 -0.3971 -0.0883
 2231TIP3    H128108   3.880   5.452   4.575  0.7864 -1.3574  0.4317
 2231TIP3    H228109   3.795   5.542   4.663  0.4929 -0.0600 -1.1399
 2232TIP3   OH228110   3.115   1.526   0.372 -0.8395 -0.1295 -0.0298
 2232TIP3    H128111   3.080   1.437   0.372  1.3652 -1.0984  2.0513
 2232TIP3    H228112   3.194   1.522   0.318 -0.9127  0.6601 -0.2171
 2233TIP3   OH228113   5.533   4.004  16.406 -0.1022 -0.0109  0.0215
 2233TIP3    H128114   5.604   4.056  16.444 -1.3009  1.6151  0.1215
 2233TIP3    H228115   5.494   3.959  16.481  0.7188 -0.7976 -0.0157
 2234TIP3   OH228116   6.488   3.039   3.117  0.0782 -0.1193  0.2881
 2234TIP3    H128117   6.552   3.074   3.179  0.1397 -0.9501  0.7136
 2234TIP3    H228118   6.512   3.078   3.033  1.9382 -1.3432  0.1845
 2235TIP3   OH228119   4.445   6.007   3.485  0.0405 -0.5474  0.1324
 2235TIP3    H128120   4.372   5.958   3.523  0.7666 -1.0019  0.9912
 2235TIP3    H228121   4.492   5.943   3.433  1.1927 -0.9092  1.5356
 2236TIP3   OH228122   6.464   1.206   4.173  0.0088  0.8958  0.2929
 2236TIP3    H128123   6.527   1.190   4.102 -0.1272  1.3478  0.0706
 2236TIP3    H228124   6.466   1.125   4.224  0.8075  0.9202  0.3155
 2237TIP3   OH228125   3.089   6.142  11.029  0.1426  0.1385  0.1199
 2237TIP3    H128126   3.174   6.100  11.041  0.5344  0.4891 -1.2073
 2237TIP3    H228127   3.098   6.190  10.946 -1.8546 -1.0915 -0.8853
 2238TIP3   OH228128   3.488   5.406   3.841 -0.1834  0.3379  0.1769
 2238TIP3    H128129   3.445   5.490   3.856 -0.2823  0.1892  0.7802
 2238TIP3    H228130   3.438   5.365   3.771  1.2005  1.7085 -1.7199
 2239TIP3   OH228131   3.297   4.624   5.751 -0.7333  0.0265 -0.6068
 2239TIP3    H128132   3.260   4.679   5.820  0.1880 -0.2958  0.1697
 2239TIP3    H228133   3.297   4.535   5.788 -0.5705 -0.2103 -1.1597
 2240TIP3   OH228134   3.925   4.972   5.081 -0.2715 -0.3941  0.1371
 2240TIP3    H128135   3.948   4.984   5.173  0.0090 -1.1085  0.1645
 2240TIP3    H228136   3.852   4.910   5.083 -0.4643 -0.1772 -0.1075
 2241TIP3   OH228137   5.117   4.295  13.756 -0.6435 -0.1076 -0.6161
 2241TIP3    H128138   5.123   4.201  13.738 -3.5325 -0.8985  1.7701
 2241TIP3    H228139   5.066   4.330  13.683  0.8056 -0.2603 -1.7351
 2242TIP3   OH228140   5.585   2.097   1.860  0.0899  0.1731 -0.4254
 2242TIP3    H128141   5.567   2.033   1.928  1.0343  0.3828  0.0453
 2242TIP3    H228142   5.631   2.046   1.792 -0.0746  0.1430 -0.5147
 2243TIP3   OH228143   1.461   3.001  13.018  0.0539 -0.7625 -0.5820
 2243TIP3    H128144   1.469   2.930  13.082 -0.7209  0.5218  1.0197
 2243TIP3    H228145   1.548   3.042  13.016 -0.0694 -0.4521  0.1145
 2244TIP3   OH228146   5.245   1.675   3.859  0.8886 -0.2488  0.1386
 2244TIP3    H128147   5.235   1.618   3.783 -0.1673 -0.7602  0.6396
 2244TIP3    H228148   5.245   1.615   3.934  0.2531  0.3649  0.6408
 2245TIP3   OH228149   5.290   1.309   0.296  0.0938 -1.2386 -0.3285
 2245TIP3    H128150   5.258   1.251   0.365  0.4798 -0.5555  0.4356
 2245TIP3    H228151   5.385   1.298   0.298  0.1581 -0.6995 -0.2762
 2246TIP3   OH228152   3.460   2.037  12.102  0.6376 -0.1860  0.2736
 2246TIP3    H128153   3.392   1.971  12.116  0.1235  0.1994 -0.3322
 2246TIP3    H228154   3.426   2.115  12.146  1.1488 -0.2645  0.8127
 2247TIP3   OH228155   0.894   6.394  11.724  0.0897 -0.0068  0.4363
 2247TIP3    H128156   0.799   6.399  11.734  0.0013 -1.0973  0.2018
 2247TIP3    H228157   0.926   6.363  11.808  0.4388  2.0745  1.1446
 2248TIP3   OH228158   4.229   4.030  14.450 -0.3334 -0.0415 -0.4978
 2248TIP3    H128159   4.196   4.082  14.376  2.0239  0.6638 -1.1764
 2248TIP3    H228160   4.208   4.082  14.527 -0.8618  0.3199 -0.8768
 2249TIP3   OH228161   2.952   2.197   4.249 -0.0485 -0.2503  0.3715
 2249TIP3    H128162   2.963   2.133   4.179 -1.2970  0.0861 -0.1568
 2249TIP3    H228163   2.888   2.259   4.215 -1.8886 -0.9399  2.3865
 2250TIP3   OH228164   3.984   0.670  13.825  0.1054 -0.2308 -0.5664
 2250TIP3    H128165   3.925   0.628  13.763  1.7151 -3.0248 -0.3762
 2250TIP3    H228166   4.061   0.693  13.773  0.4699 -0.3579 -0.0901
 2251TIP3   OH228167   5.415   4.248  15.214 -0.2543  0.0332  0.0550
 2251TIP3    H128168   5.413   4.259  15.119 -0.3419 -0.6595 -0.0266
 2251TIP3    H228169   5.355   4.176  15.231 -1.0366  0.8223  0.7415
 2252TIP3   OH228170   1.567   6.029  12.213  0.0712 -0.0111  0.3921
 2252TIP3    H128171   1.486   6.047  12.262 -0.9441 -0.7903 -0.9142
 2252TIP3    H228172   1.537   6.017  12.122  1.6577 -0.3686 -0.1051
 2253TIP3   OH228173   0.850   6.584   1.814  0.1957 -0.5082 -0.0240
 2253TIP3    H128174   0.881   6.639   1.886 -0.3265  1.0710 -0.9348
 2253TIP3    H228175   0.768   6.625   1.786 -0.3781 -1.9638 -0.5485
 2254TIP3   OH228176   6.165   2.102   1.256  0.1962  0.5728  0.0557
 2254TIP3    H128177   6.104   2.054   1.312  0.4694 -0.6500 -0.6404
 2254TIP3    H228178   6.110   2.143   1.190  0.1139 -1.1706 -1.0395
 2255TIP3   OH228179   0.962   4.010  11.694 -0.0503 -0.1253 -0.5288
 2255TIP3    H128180   0.979   4.071  11.766 -0.4732 -0.5899 -0.0245
 2255TIP3    H228181   0.883   4.045  11.651 -0.0162 -0.0533 -0.5318
 2256TIP3   OH228182   6.321   2.871  12.607 -0.6518 -0.7755 -0.0896
 2256TIP3    H128183   6.250   2.935  12.603  1.7588  2.2029  0.7166
 2256TIP3    H228184   6.326   2.834  12.519  0.8645  3.9265 -2.3346
 2257TIP3   OH228185   0.099   5.863   4.635 -0.1424 -0.1831  0.0162
 2257TIP3    H128186   0.148   5.907   4.704 -0.9118 -1.0472  1.1407
 2257TIP3    H228187   0.117   5.915   4.556  1.8959 -0.0176  0.5446
 2258TIP3   OH228188   0.520   5.826  13.701  0.4478 -0.3840 -0.2301
 2258TIP3    H128189   0.515   5.750  13.643 -2.3575 -1.5402  1.3342
 2258TIP3    H228190   0.588   5.803  13.765 -0.4120 -1.6594  0.2623
 2259TIP3   OH228191   3.642   0.387  16.039  0.4225  0.1557  0.0081
 2259TIP3    H128192   3.620   0.334  16.115 -0.3993 -2.1043 -1.6700
 2259TIP3    H228193   3.561   0.434  16.018 -0.1969 -1.2690 -0.9511
 2260TIP3   OH228194   1.318   0.523  15.403  0.4514 -0.4292 -0.1917
 2260TIP3    H128195   1.409   0.505  15.381  0.9401  0.8046  0.7118
 2260TIP3    H228196   1.275   0.536  15.318  1.3867  0.1352 -0.5901
 2261TIP3   OH228197   2.478   3.451  13.732 -0.4997 -0.4278  0.4469
 2261TIP3    H128198   2.452   3.522  13.791  1.1041  0.6770 -0.1290
 2261TIP3    H228199   2.440   3.372  13.773 -2.3649  0.7186  1.0625
 2262TIP3   OH228200   3.512   0.457  13.026 -0.4630 -0.5016  0.1771
 2262TIP3    H128201   3.537   0.530  12.969  0.3655 -0.2901  0.7922
 2262TIP3    H228202   3.518   0.380  12.969  1.2740 -0.4077  0.1850
 2263TIP3   OH228203   0.980   0.384   0.243 -0.4936 -0.1755  0.5616
 2263TIP3    H128204   0.989   0.478   0.232 -0.6951  0.1618  2.7433
 2263TIP3    H228205   1.006   0.346   0.159 -0.0065  1.7865 -0.2101
 2264TIP3   OH228206   6.183   5.739   5.831 -0.1746 -0.1732 -0.0902
 2264TIP3    H128207   6.248   5.678   5.798 -1.1014 -1.6782  0.7078
 2264TIP3    H228208   6.184   5.812   5.770  1.8689 -0.3882 -0.3709
 2265TIP3   OH228209   4.475   3.476  15.302 -0.7300 -0.4355  0.5473
 2265TIP3    H128210   4.526   3.429  15.236  0.5590 -0.8525  1.7974
 2265TIP3    H228211   4.515   3.452  15.386  0.6100  3.5297  1.2599
 2266TIP3   OH228212   4.823   1.975   5.789  0.0699  0.6640 -0.7207
 2266TIP3    H128213   4.864   1.976   5.702 -0.5656 -0.2478 -1.0448
 2266TIP3    H228214   4.871   2.041   5.839  1.7572 -0.1719 -1.1655
 2267TIP3   OH228215   3.365   3.573  12.243 -0.3439 -0.1134 -0.5014
 2267TIP3    H128216   3.363   3.584  12.147  0.5760 -1.1385 -0.6575
 2267TIP3    H228217   3.449   3.530  12.260 -0.4872  0.0938  0.7826
 2268TIP3   OH228218   6.217   4.956   5.676  0.5505  0.1137 -0.5469
 2268TIP3    H128219   6.245   5.046   5.661 -1.8804  1.1412  0.5983
 2268TIP3    H228220   6.280   4.921   5.739 -0.4607  2.2781  1.8480
 2269TIP3   OH228221   5.828   2.773   5.281  0.3913  0.0204 -0.5091
 2269TIP3    H128222   5.825   2.868   5.268 -0.9398  0.5542  2.7557
 2269TIP3    H228223   5.736   2.746   5.284  0.7439 -1.3387 -0.9865
 2270TIP3   OH228224   2.626   2.174  11.989  0.9137 -0.4798  0.1545
 2270TIP3    H128225   2.639   2.260  12.029  1.0464 -0.9233  1.0981
 2270TIP3    H228226   2.636   2.112  12.062 -0.4505 -1.2163 -0.2571
 2271TIP3   OH228227   1.420   5.100  10.753  0.5372 -0.4605 -0.0485
 2271TIP3    H128228   1.481   5.054  10.695  0.5522  0.0726 -0.4599
 2271TIP3    H228229   1.391   5.176  10.702 -0.5356 -0.7468  0.1124
 2272TIP3   OH228230   4.488   2.111  16.414 -0.1329 -0.1888 -0.4357
 2272TIP3    H128231   4.510   2.072  16.499  1.0991 -1.7093 -1.3968
 2272TIP3    H228232   4.453   2.038  16.363 -0.7117  0.6749 -1.3004
 2273TIP3   OH228233   3.121   1.411  14.310  0.5061  0.0870 -0.4996
 2273TIP3    H128234   3.192   1.397  14.247  1.3323 -0.3663  0.4949
 2273TIP3    H228235   3.042   1.415  14.256  1.0420 -1.4199 -1.4859
 2274TIP3   OH228236   0.839   6.762  13.454  0.2379 -0.2384  0.1101
 2274TIP3    H128237   0.877   6.837  13.408 -0.5242  1.1443  1.5993
 2274TIP3    H228238   0.746   6.784  13.463  0.5605  0.3325  3.5076
 2275TIP3   OH228239   2.715   2.654   2.242 -0.0555  0.3621  0.2270
 2275TIP3    H128240   2.649   2.585   2.242 -0.2746  0.5690  1.1308
 2275TIP3    H228241   2.696   2.705   2.163 -0.4416 -0.0798  0.0308
 2276TIP3   OH228242   6.505   0.666   5.963 -0.0089  0.5656 -0.0476
 2276TIP3    H128243   6.561   0.621   6.028  0.5359  1.5600  0.1883
 2276TIP3    H228244   6.429   0.696   6.013  0.5251  1.5441  0.2045
 2277TIP3   OH228245   4.185   4.177  17.050  0.4205  0.2282  0.0886
 2277TIP3    H128246   4.132   4.101  17.024 -0.0541  0.9794 -1.2557
 2277TIP3    H228247   4.266   4.139  17.082 -0.3871 -0.8987  0.8821
 2278TIP3   OH228248   6.090   5.859   3.876  0.6609 -0.4753  0.6212
 2278TIP3    H128249   6.169   5.897   3.838 -0.4872 -0.3850 -1.9235
 2278TIP3    H228250   6.116   5.831   3.964  3.0381  1.0416  0.4920
 2279TIP3   OH228251   6.549   4.992  14.118  0.1196 -0.1299  0.1908
 2279TIP3    H128252   6.599   5.056  14.067  0.2277 -0.8797 -0.6496
 2279TIP3    H228253   6.467   4.982  14.070  0.1508 -0.7106  0.2580
 2280TIP3   OH228254   2.681   2.263   3.362  0.2071 -0.1801  0.4096
 2280TIP3    H128255   2.629   2.328   3.314  1.2885  0.4096 -0.0158
 2280TIP3    H228256   2.729   2.315   3.427  0.1741 -0.7254  0.8740
 2281TIP3   OH228257   6.071   6.025   0.492  0.2046 -0.2059 -0.0732
 2281TIP3    H128258   6.129   6.068   0.429  0.5248  0.6765  0.8016
 2281TIP3    H228259   6.109   6.045   0.578 -1.1160 -0.0078  0.4920
 2282TIP3   OH228260   4.022   5.591   5.274 -0.2350  0.0543 -0.0909
 2282TIP3    H128261   3.991   5.500   5.273 -0.6179  0.1258  1.8920
 2282TIP3    H228262   3.943   5.643   5.255 -0.2525  0.0077 -0.1443
 2283TIP3   OH228263   1.301   1.567  16.195  0.4492 -0.1665 -0.4620
 2283TIP3    H128264   1.376   1.623  16.178  1.0485 -0.1594  1.8434
 2283TIP3    H228265   1.225   1.621  16.173  1.0007  1.6788  1.8142
 2284TIP3   OH228266   5.379   0.765   1.047 -0.3052  0.2056 -0.0344
 2284TIP3    H128267   5.452   0.706   1.030  0.3259  0.7417  0.7072
 2284TIP3    H228268   5.348   0.791   0.961  0.0498 -0.4290 -0.3605
 2285TIP3   OH228269   4.326   3.706   3.016 -0.3464  0.2017 -0.2204
 2285TIP3    H128270   4.358   3.762   3.086 -0.5361  0.5793 -0.4335
 2285TIP3    H228271   4.290   3.766   2.951 -2.9362 -0.2241  0.7116
 2286TIP3   OH228272   3.935   1.734   3.254 -0.9776  0.0934 -0.1992
 2286TIP3    H128273   3.858   1.695   3.294  0.6236 -0.7280  2.3854
 2286TIP3    H228274   3.977   1.782   3.326  1.5598 -0.5560 -1.1484
 2287TIP3   OH228275   4.218   5.153   5.419  0.7420 -0.0076  0.5221
 2287TIP3    H128276   4.160   5.189   5.486  0.2684 -3.3364  2.0730
 2287TIP3    H228277   4.305   5.157   5.459  0.4060 -2.3813  1.6579
 2288TIP3   OH228278   0.442   5.358  11.876  0.2367  0.0385 -0.1015
 2288TIP3    H128279   0.354   5.336  11.844  0.0316  0.8386 -0.1137
 2288TIP3    H228280   0.470   5.430  11.820  1.1268 -0.5581 -0.4388
 2289TIP3   OH228281   3.399   6.682  16.991 -0.3368 -0.3664 -0.4647
 2289TIP3    H128282   3.398   6.692  16.896 -0.6049  1.0469 -0.3333
 2289TIP3    H228283   3.316   6.639  17.011 -0.6463  0.0599 -0.8066
 2290TIP3   OH228284   5.298   4.780   2.754 -0.4188 -0.4418  0.3983
 2290TIP3    H128285   5.367   4.798   2.817 -0.6104 -0.1811  0.5364
 2290TIP3    H228286   5.279   4.686   2.765  0.1011 -0.5760  0.1663
 2291TIP3   OH228287   5.311   3.803   5.933  0.0929 -0.4220 -0.0718
 2291TIP3    H128288   5.405   3.786   5.938  0.4428  1.5267  1.3463
 2291TIP3    H228289   5.282   3.807   6.024 -1.6597 -2.1377 -0.4764
 2292TIP3   OH228290   3.503   0.343   3.119 -0.0736 -0.0311 -0.6554
 2292TIP3    H128291   3.434   0.295   3.164 -0.3512  0.9602  0.0138
 2292TIP3    H228292   3.527   0.413   3.180  0.9846  0.1028 -1.2033
 2293TIP3   OH228293   3.968   3.536  15.288  0.1452  0.0996  0.3792
 2293TIP3    H128294   4.035   3.470  15.302  1.7423  1.9121  1.8473
 2293TIP3    H228295   3.894   3.488  15.252  2.1408 -2.0200 -1.1893
 2294TIP3   OH228296   2.980   1.195  13.383  0.6390 -0.0866 -0.5259
 2294TIP3    H128297   3.070   1.202  13.349  1.7767 -0.5154  2.1488
 2294TIP3    H228298   2.977   1.259  13.454 -1.0284 -0.4730 -0.2156
 2295TIP3   OH228299   1.345   5.347  11.034  0.3508  0.1686  0.3190
 2295TIP3    H128300   1.282   5.300  11.088  1.1081 -0.9041  0.3088
 2295TIP3    H228301   1.292   5.387  10.965 -0.2978 -0.9356  0.1526
 2296TIP3   OH228302   3.390   2.231  10.369 -0.8482  0.1126 -0.2070
 2296TIP3    H128303   3.415   2.139  10.380  0.1272  0.3396 -0.4774
 2296TIP3    H228304   3.435   2.276  10.441  0.1559  0.6320 -1.1368
 2297TIP3   OH228305   6.587   6.720   0.105 -0.1688  1.2271 -0.4307
 2297TIP3    H128306   6.647   6.685   0.171 -1.0260 -1.0927 -0.7644
 2297TIP3    H228307   6.640   6.782   0.055  1.1557  1.2778  0.9568
 2298TIP3   OH228308   6.276   3.183   2.919 -0.2959 -0.0990 -0.4016
 2298TIP3    H128309   6.356   3.217   2.878 -0.6742  0.6037 -0.5720
 2298TIP3    H228310   6.205   3.220   2.867 -0.7574 -0.0063  0.2857
 2299TIP3   OH228311   2.950   0.406  16.511 -0.1669 -0.0030  0.1962
 2299TIP3    H128312   2.950   0.328  16.567  1.2132  0.8688  1.4729
 2299TIP3    H228313   3.021   0.460  16.546 -0.0803  1.1327 -1.6481
 2300TIP3   OH228314   6.194   4.183   4.415  0.1238  0.1125  0.3694
 2300TIP3    H128315   6.174   4.106   4.468  0.0708  0.1208  0.3620
 2300TIP3    H228316   6.109   4.225   4.402  0.0909 -0.0414  0.0454
 2301TIP3   OH228317   5.529   6.116  15.922 -0.3083 -0.3434  0.4106
 2301TIP3    H128318   5.507   6.199  15.880  0.7138  0.3304  1.1550
 2301TIP3    H228319   5.445   6.076  15.943 -0.8175  0.0383 -0.8458
 2302TIP3   OH228320   1.588   1.736  13.762 -0.1354 -0.3303  0.5026
 2302TIP3    H128321   1.625   1.824  13.769 -1.2262  0.1166  1.0917
 2302TIP3    H228322   1.509   1.739  13.817 -0.7714 -1.3588 -0.3011
 2303TIP3   OH228323   1.875   5.116   2.016  0.2814 -0.2499 -0.7374
 2303TIP3    H128324   1.858   5.150   2.104 -0.2670 -1.4115 -0.3778
 2303TIP3    H228325   1.845   5.186   1.957  1.1112  0.7404 -0.0145
 2304TIP3   OH228326   4.088   6.658   0.126 -0.0000 -0.0223 -0.0738
 2304TIP3    H128327   3.998   6.645   0.157 -0.7613  0.3161 -1.9795
 2304TIP3    H228328   4.128   6.716   0.190 -0.4921 -1.7263  1.8687
 2305TIP3   OH228329   3.314   4.819  14.403 -0.9400 -0.0028 -0.0461
 2305TIP3    H128330   3.398   4.816  14.449 -1.0615  0.2026  0.1930
 2305TIP3    H228331   3.252   4.853  14.468 -1.1977 -0.1101 -0.2349
 2306TIP3   OH228332   2.230   1.605  12.386  0.4414 -0.2147  0.0518
 2306TIP3    H128333   2.318   1.592  12.351  0.7129  0.0925  0.6182
 2306TIP3    H228334   2.172   1.584  12.312  0.8808 -2.7982  0.3531
 2307TIP3   OH228335   4.827   0.340  13.527 -0.6634  0.8146 -0.3691
 2307TIP3    H128336   4.797   0.256  13.561 -2.1884  1.1138 -0.9339
 2307TIP3    H228337   4.893   0.317  13.461 -1.1745  0.0564 -0.6217
 2308TIP3   OH228338   2.494   3.544  16.085  0.2547  0.1030 -0.0908
 2308TIP3    H128339   2.574   3.581  16.123  0.3393  1.5308 -1.5234
 2308TIP3    H228340   2.423   3.595  16.125  0.1657 -0.1658  0.0950
 2309TIP3   OH228341   0.456   3.086  15.836  0.3209  0.0467  0.1400
 2309TIP3    H128342   0.524   3.099  15.902 -0.6589  2.2584  0.7941
 2309TIP3    H228343   0.384   3.044  15.884  0.4018 -0.3155 -0.0498
 2310TIP3   OH228344   3.236   1.080   1.787 -0.1323  0.0853  0.2289
 2310TIP3    H128345   3.229   1.154   1.727 -0.0085  0.1726  0.3228
 2310TIP3    H228346   3.212   1.116   1.873  1.1814  0.3249  0.5164
 2311TIP3   OH228347   6.421   2.006  17.115 -0.2912  0.3023  0.5573
 2311TIP3    H128348   6.370   2.087  17.107  0.5268  0.7475 -0.2918
 2311TIP3    H228349   6.407   1.961  17.031 -0.9561 -0.5771  1.1250
 2312TIP3   OH228350   6.441   4.858  15.148 -0.5620  0.5508 -0.1771
 2312TIP3    H128351   6.429   4.817  15.234 -0.8764 -0.9215 -0.8920
 2312TIP3    H228352   6.535   4.849  15.131 -0.4022  1.3347  0.2275
 2313TIP3   OH228353   3.590   2.307   2.881 -0.0524  0.2757 -0.3657
 2313TIP3    H128354   3.587   2.248   2.806  0.0604  0.6734 -0.6851
 2313TIP3    H228355   3.663   2.366   2.863  0.9799 -0.5794  0.7783
 2314TIP3   OH228356   6.153   2.941  13.756 -0.4870 -0.0130  0.5427
 2314TIP3    H128357   6.085   3.007  13.745  0.2759  0.9034  1.2182
 2314TIP3    H228358   6.226   2.987  13.796  0.9322 -0.7390 -1.0941
 2315TIP3   OH228359   5.598   2.476  12.159 -0.2159 -0.5149 -0.3719
 2315TIP3    H128360   5.619   2.569  12.151 -0.7566 -0.0304  2.7094
 2315TIP3    H228361   5.516   2.465  12.110 -1.6698  1.3301  1.4756
 2316TIP3   OH228362   5.248   1.668  16.202 -0.4362 -0.1874 -0.5807
 2316TIP3    H128363   5.302   1.599  16.243  0.0144 -0.0209 -0.8851
 2316TIP3    H228364   5.307   1.743  16.196 -0.6375 -0.0700 -1.1180
 2317TIP3   OH228365   2.737   4.037  11.023  0.3866  0.1326 -0.0444
 2317TIP3    H128366   2.698   3.954  10.995 -0.1446  0.2364  0.3723
 2317TIP3    H228367   2.828   4.033  10.992  0.3388 -0.5649 -0.1001
 2318TIP3   OH228368   2.776   2.591  15.587 -0.2030  0.3923 -0.2258
 2318TIP3    H128369   2.774   2.687  15.584 -1.2886  0.3607 -2.3705
 2318TIP3    H228370   2.691   2.564  15.553  0.8333 -1.3420 -1.5863
 2319TIP3   OH228371   1.872   4.113  13.671 -0.2430 -0.1217  0.1603
 2319TIP3    H128372   1.840   4.121  13.761  1.0880  0.0507  0.6404
 2319TIP3    H228373   1.885   4.019  13.658  1.6503 -0.0089  0.9424
 2320TIP3   OH228374   3.113   4.802   3.231 -0.7874 -0.1482 -0.0133
 2320TIP3    H128375   3.074   4.817   3.145  2.9366  2.2072 -1.5642
 2320TIP3    H228376   3.129   4.707   3.233 -2.3559 -0.4852 -1.2104
 2321TIP3   OH228377   0.751   4.954  12.748 -1.0147  0.7056 -0.2014
 2321TIP3    H128378   0.744   4.895  12.823  2.1390 -0.5617 -0.7723
 2321TIP3    H228379   0.697   5.030  12.773 -1.5917 -0.4669  2.4889
 2322TIP3   OH228380   3.600   6.564   2.575  0.3259  0.1279  0.4388
 2322TIP3    H128381   3.695   6.571   2.575  0.3988 -0.5853 -0.7902
 2322TIP3    H228382   3.575   6.579   2.484 -0.5687 -1.6073  0.3562
 2323TIP3   OH228383   2.413   6.145   0.779 -0.3529  0.1358  0.1755
 2323TIP3    H128384   2.476   6.088   0.735 -0.1299  0.0869  0.5529
 2323TIP3    H228385   2.328   6.104   0.764 -0.2438 -0.0470  0.0523
 2324TIP3   OH228386   0.791   4.445  11.762 -0.0447 -0.7210 -0.5104
 2324TIP3    H128387   0.761   4.457  11.672  4.6554  1.9288 -2.0882
 2324TIP3    H228388   0.753   4.518  11.810  0.0847 -0.1755 -1.2241
 2325TIP3   OH228389   1.884   3.307  15.123 -0.0347  0.3789  0.2542
 2325TIP3    H128390   1.831   3.260  15.059  1.9209  1.4115 -2.2982
 2325TIP3    H228391   1.962   3.253  15.134 -0.5260 -0.0061  2.2092
 2326TIP3   OH228392   0.729   0.284   5.656  0.4691 -0.8104  0.0130
 2326TIP3    H128393   0.775   0.206   5.687  0.5646 -0.8768 -0.2902
 2326TIP3    H228394   0.742   0.283   5.561  1.1897  0.0427  0.1012
 2327TIP3   OH228395   2.898   5.193  12.747 -0.7325 -0.0126 -0.1906
 2327TIP3    H128396   2.807   5.190  12.717 -1.0330 -2.2523  0.7586
 2327TIP3    H228397   2.897   5.148  12.831  1.2798 -0.2345 -0.2428
 2328TIP3   OH228398   5.269   4.041  15.923  0.0061 -0.6729  0.0380
 2328TIP3    H128399   5.220   4.004  15.850 -0.6088 -1.8371  1.0098
 2328TIP3    H228400   5.333   3.974  15.945  1.9004  0.6813 -0.9949
 2329TIP3   OH228401   6.497   4.163   0.371  0.2214 -0.2597 -0.0017
 2329TIP3    H128402   6.591   4.166   0.354  0.3668 -0.0650  0.8383
 2329TIP3    H228403   6.470   4.255   0.377  0.1673 -0.3284  0.8007
 2330TIP3   OH228404   0.693   4.073   5.151 -0.4814  0.2990 -0.1797
 2330TIP3    H128405   0.720   4.016   5.223 -0.6252  0.6264  0.1376
 2330TIP3    H228406   0.761   4.061   5.084 -1.2886 -1.3999 -0.7658
 2331TIP3   OH228407   3.632   2.728   1.630 -0.0483 -0.2151  0.1279
 2331TIP3    H128408   3.692   2.657   1.610  2.5471  1.7765  0.3854
 2331TIP3    H228409   3.631   2.733   1.726  0.5016  0.6535  0.0937
 2332TIP3   OH228410   6.738   2.941   5.236  0.0229 -0.7410 -0.7493
 2332TIP3    H128411   6.655   2.917   5.195 -0.0915 -0.0256 -0.9354
 2332TIP3    H228412   6.803   2.933   5.166  0.3167 -2.4052 -0.3381
 2333TIP3   OH228413   1.246   6.063   2.126  0.1669  0.3357  0.6559
 2333TIP3    H128414   1.185   6.135   2.142 -0.0904 -0.1870  2.1865
 2333TIP3    H228415   1.319   6.104   2.079  0.1559  1.6660  1.7467
 2334TIP3   OH228416   3.890   4.270   6.186  0.6700  0.3427 -0.3130
 2334TIP3    H128417   3.890   4.345   6.245  2.6181  0.0624  0.0972
 2334TIP3    H228418   3.924   4.197   6.238 -0.1017 -0.5730 -1.0354
 2335TIP3   OH228419   4.708   0.819  12.465  0.0555 -0.6903  0.3532
 2335TIP3    H128420   4.712   0.723  12.471 -1.9019 -0.8239  0.2086
 2335TIP3    H228421   4.734   0.850  12.552 -0.4251 -1.3998  0.7538
 2336TIP3   OH228422   0.501   3.861   4.694  0.0658  0.0602 -0.4552
 2336TIP3    H128423   0.528   3.922   4.625 -0.3756 -0.2871 -0.9420
 2336TIP3    H228424   0.512   3.911   4.776  2.2018 -0.0604 -0.6022
 2337TIP3   OH228425   1.610   0.630   3.407 -0.7068 -0.3269  0.0816
 2337TIP3    H128426   1.524   0.635   3.448 -1.0433  1.0842 -0.7393
 2337TIP3    H228427   1.634   0.721   3.390  0.7798 -0.7174 -0.0687
 2338TIP3   OH228428   0.689   5.450  12.369  0.0607 -0.3057 -0.1781
 2338TIP3    H128429   0.601   5.486  12.359 -0.3191 -0.9281  0.7757
 2338TIP3    H228430   0.732   5.507  12.432  0.3192 -0.0556 -0.5754
 2339TIP3   OH228431   0.212   2.046   6.393  0.2207 -0.2101  0.3113
 2339TIP3    H128432   0.238   2.125   6.439  0.6853 -0.8321  1.1298
 2339TIP3    H228433   0.123   2.027   6.425  0.6165 -0.7508  1.1271
 2340TIP3   OH228434   5.118   6.429   5.973  0.2461 -0.3687  0.4767
 2340TIP3    H128435   5.103   6.365   6.042 -1.6790  3.5450  4.1098
 2340TIP3    H228436   5.045   6.491   5.980  3.0970  3.6022 -1.0059
 2341TIP3   OH228437   6.446   0.582  14.743 -0.0454  0.0418  0.0586
 2341TIP3    H128438   6.458   0.489  14.726 -0.6868  0.1799 -1.3404
 2341TIP3    H228439   6.406   0.616  14.662 -0.4714  1.3943  0.8033
 2342TIP3   OH228440   0.840   4.715  16.189 -0.3344  0.9283  0.2163
 2342TIP3    H128441   0.808   4.701  16.278 -0.5185 -0.4446 -0.0465
 2342TIP3    H228442   0.841   4.628  16.150  0.0922  1.4655 -1.0151
 2343TIP3   OH228443   5.471   6.081   1.004 -0.1427  0.4985  0.2257
 2343TIP3    H128444   5.564   6.093   0.987  0.0506 -1.4118 -0.3440
 2343TIP3    H228445   5.465   5.994   1.045 -1.5042  1.3554  2.0066
 2344TIP3   OH228446   6.207   5.537  13.460 -0.7664 -0.0314  0.3015
 2344TIP3    H128447   6.292   5.568  13.429 -0.5654 -1.1048 -0.2887
 2344TIP3    H228448   6.178   5.604  13.522 -0.6859  1.6560 -1.3984
 2345TIP3   OH228449   5.730   0.222  13.841  0.0906  0.1665  0.1317
 2345TIP3    H128450   5.768   0.134  13.846  0.1225  0.2413  1.4825
 2345TIP3    H228451   5.693   0.237  13.927 -1.9329  0.6074 -0.7695
 2346TIP3   OH228452   5.668   0.198  16.197  0.2373 -0.2050 -0.0478
 2346TIP3    H128453   5.702   0.276  16.155  1.1788 -0.9545 -0.7092
 2346TIP3    H228454   5.632   0.229  16.280  0.9495  0.8640 -0.1269
 2347TIP3   OH228455   6.346   5.450   4.035  0.0508  0.5121 -0.2683
 2347TIP3    H128456   6.398   5.515   3.988  1.5565 -0.3548  0.1368
 2347TIP3    H228457   6.310   5.498   4.110 -1.8919  1.7585 -1.9076
 2348TIP3   OH228458   2.465   1.233  16.674 -0.2648  0.3619  0.0135
 2348TIP3    H128459   2.422   1.167  16.619 -0.4174 -0.7339  1.4137
 2348TIP3    H228460   2.420   1.227  16.758 -1.1730  3.1733 -0.1681
 2349TIP3   OH228461   6.790   6.153  15.401 -0.5114 -0.2956  0.0855
 2349TIP3    H128462   6.835   6.151  15.485  0.3085 -1.7059 -0.3558
 2349TIP3    H228463   6.706   6.111  15.418 -0.7168  0.2212  0.3807
 2350TIP3   OH228464   6.378   6.776  15.235 -0.1961 -0.6411  0.5667
 2350TIP3    H128465   6.400   6.823  15.315  0.9908  0.0386 -0.1271
 2350TIP3    H228466   6.365   6.845  15.170  1.1335 -1.2348 -0.3680
 2351TIP3   OH228467   3.440   4.036  12.364  0.1987  0.8031  0.9317
 2351TIP3    H128468   3.346   4.046  12.380 -0.2677  0.0168 -1.0084
 2351TIP3    H228469   3.445   3.993  12.278  2.3501  1.5380  0.6378
 2352TIP3   OH228470   6.558   5.137  15.406 -0.2879 -0.1832 -0.4109
 2352TIP3    H128471   6.564   5.113  15.314  1.3871 -1.1246 -0.1032
 2352TIP3    H228472   6.644   5.175  15.426 -0.9866  0.9595  0.5175
 2353TIP3   OH228473   3.584   0.657   5.886  0.1397 -0.1741  0.4317
 2353TIP3    H128474   3.503   0.704   5.864  0.5145  0.3893  0.2308
 2353TIP3    H228475   3.622   0.633   5.801 -1.1687 -2.8763  0.4888
 2354TIP3   OH228476   2.793   0.306  16.913  0.1173 -0.7048  0.2543
 2354TIP3    H128477   2.793   0.395  16.948  0.3611 -0.9110  0.7948
 2354TIP3    H228478   2.870   0.302  16.856  0.1894 -0.6179  0.3461
 2355TIP3   OH228479   2.468   5.069  14.123 -0.3252  0.0248  0.8381
 2355TIP3    H128480   2.420   5.147  14.152  0.9111  0.9860  0.4406
 2355TIP3    H228481   2.403   5.016  14.078 -0.9746  1.4778 -0.0426
 2356TIP3   OH228482   0.062   0.730   0.955 -0.2496 -0.3095  0.1955
 2356TIP3    H128483   0.096   0.813   0.920  1.2904 -0.2311  1.7710
 2356TIP3    H228484   0.005   0.756   1.027 -1.7750 -0.5700 -0.8489
 2357TIP3   OH228485   1.495   0.177   4.672 -1.0932  0.2313 -0.3778
 2357TIP3    H128486   1.519   0.191   4.764 -2.0221  3.0668 -0.4453
 2357TIP3    H228487   1.400   0.168   4.674 -0.9560 -1.7571 -0.9299
 2358TIP3   OH228488   5.919   3.018  15.102  0.0109  0.3223 -0.3761
 2358TIP3    H128489   5.994   2.979  15.148 -1.0010 -0.1961  0.9102
 2358TIP3    H228490   5.856   2.946  15.095  0.3309  0.2122 -3.1610
 2359TIP3   OH228491   6.068   0.471  11.419  0.6612  0.0808  0.3957
 2359TIP3    H128492   6.134   0.428  11.474 -0.4808 -2.7839 -0.3332
 2359TIP3    H228493   5.985   0.451  11.460 -0.0488 -0.0808 -1.0543
 2360TIP3   OH228494   2.712   2.532   6.388 -0.6716  0.6088  0.2625
 2360TIP3    H128495   2.643   2.595   6.407 -1.4115 -0.0178 -0.2731
 2360TIP3    H228496   2.665   2.449   6.372  0.2626 -0.0515  0.8314
 2361TIP3   OH228497   3.881   3.278  11.881 -0.0868  0.0172 -0.5392
 2361TIP3    H128498   3.866   3.255  11.789  0.9441 -0.7973 -0.5328
 2361TIP3    H228499   3.914   3.197  11.921  0.5292  0.6494  0.2856
 2362TIP3   OH228500   0.835   5.882  15.767 -0.3765 -0.3155 -0.0435
 2362TIP3    H128501   0.906   5.896  15.705  0.5724  0.4202  1.1611
 2362TIP3    H228502   0.756   5.902  15.717  0.3358  0.0068 -1.0787
 2363TIP3   OH228503   0.226   2.548   3.564  0.0113 -0.0948  0.0482
 2363TIP3    H128504   0.173   2.510   3.494 -1.8859 -1.4232  2.0952
 2363TIP3    H228505   0.304   2.492   3.568  0.6855  0.6597 -1.6589
 2364TIP3   OH228506   3.762   5.606  13.445 -0.5499  0.1850 -0.4236
 2364TIP3    H128507   3.737   5.595  13.537 -0.5958  1.5215 -0.2531
 2364TIP3    H228508   3.697   5.555  13.397 -0.8561 -0.0857  0.2599
 2365TIP3   OH228509   0.767   5.045  12.109 -0.0746 -0.3607 -0.3206
 2365TIP3    H128510   0.680   5.051  12.069  0.4241  0.7580 -1.3112
 2365TIP3    H228511   0.820   4.998  12.044 -0.4003 -3.0310  1.1897
 2366TIP3   OH228512   1.238   5.217  12.457 -0.3183  0.1120  0.0085
 2366TIP3    H128513   1.143   5.217  12.463 -0.2558  0.3504  1.1498
 2366TIP3    H228514   1.258   5.282  12.389 -1.0091 -1.1487 -1.4632
 2367TIP3   OH228515   6.719   3.803  13.065  0.7781  0.4766 -0.7239
 2367TIP3    H128516   6.746   3.877  13.012  2.0226  0.1030 -0.6476
 2367TIP3    H228517   6.680   3.842  13.143 -0.4877  1.0274 -1.5994
 2368TIP3   OH228518   3.628   1.659   2.242  0.2400 -0.4806 -0.0303
 2368TIP3    H128519   3.662   1.582   2.196  2.1308 -0.0365  0.5179
 2368TIP3    H228520   3.661   1.733   2.192 -0.6451 -0.0178  0.0659
 2369TIP3   OH228521   0.247   3.738  13.564  0.2245  0.9886  0.4029
 2369TIP3    H128522   0.190   3.765  13.635 -0.9926 -1.3404  0.4225
 2369TIP3    H228523   0.196   3.753  13.484 -0.5332 -1.1331  0.4220
 2370TIP3   OH228524   6.393   3.774  15.993 -0.3049  0.8425 -0.6422
 2370TIP3    H128525   6.392   3.702  15.930  1.8089 -0.8306  1.0777
 2370TIP3    H228526   6.486   3.786  16.014 -0.7404  3.0647  0.2809
 2371TIP3   OH228527   0.870   1.133   5.552 -0.4191 -0.8061 -0.1600
 2371TIP3    H128528   0.793   1.144   5.496  0.0617 -0.8606 -0.8426
 2371TIP3    H228529   0.842   1.069   5.618 -1.1291 -0.4241 -0.0731
 2372TIP3   OH228530   4.134   0.286  16.716 -0.2283 -0.2168 -0.0980
 2372TIP3    H128531   4.144   0.349  16.644 -0.2453  1.8158  1.5831
 2372TIP3    H228532   4.219   0.243  16.722  0.2923  0.7463 -0.3265
 2373TIP3   OH228533   0.540   1.579  15.043  0.8267 -1.2490 -0.0131
 2373TIP3    H128534   0.560   1.486  15.056 -0.1631 -1.3275  1.0783
 2373TIP3    H228535   0.577   1.623  15.119 -0.9457 -1.0985  0.8062
 2374TIP3   OH228536   4.330   4.174  13.122 -0.0116 -0.1238 -0.1721
 2374TIP3    H128537   4.405   4.122  13.092 -0.0707 -0.2001 -0.1908
 2374TIP3    H228538   4.257   4.112  13.121 -0.3801  0.2934 -1.5146
 2375TIP3   OH228539   1.776   6.538   5.898  0.2269 -0.0837  0.0112
 2375TIP3    H128540   1.707   6.597   5.870 -0.5328 -1.9560 -2.4066
 2375TIP3    H228541   1.748   6.507   5.984 -0.4114  1.4110  0.3628
 2376TIP3   OH228542   0.231   2.216  14.460 -0.6302 -0.3660 -0.2389
 2376TIP3    H128543   0.304   2.155  14.465 -1.8909 -1.9447 -0.2540
 2376TIP3    H228544   0.185   2.204  14.543 -1.9201 -0.8086 -0.9896
 2377TIP3   OH228545   5.010   3.800  10.943 -0.0657 -0.0882  0.1333
 2377TIP3    H128546   4.944   3.759  10.887  1.7003  0.4454 -2.5393
 2377TIP3    H228547   5.064   3.727  10.973  0.2789 -0.1811 -0.6975
 2378TIP3   OH228548   2.636   0.294   0.405 -0.1093  0.8336  0.1323
 2378TIP3    H128549   2.596   0.309   0.320  0.4462 -1.1043 -0.5206
 2378TIP3    H228550   2.563   0.267   0.462 -0.5070  2.2918  0.3513
 2379TIP3   OH228551   2.091   3.943   2.093  0.2484 -0.2147  0.3390
 2379TIP3    H128552   2.086   3.949   1.998 -1.2398 -0.0276  0.4022
 2379TIP3    H228553   2.163   3.882   2.110  1.3765  0.7174 -0.8622
 2380TIP3   OH228554   4.497   4.888  16.541  0.4283 -0.2595  0.1560
 2380TIP3    H128555   4.448   4.809  16.565 -0.0844  0.3590  1.2038
 2380TIP3    H228556   4.484   4.947  16.615  0.1942  1.0910 -0.9348
 2381TIP3   OH228557   1.919   1.577  12.739 -0.4285  0.3840 -0.1976
 2381TIP3    H128558   1.975   1.558  12.814 -1.3370  0.0694  0.4090
 2381TIP3    H228559   1.879   1.662  12.760 -0.7409  0.2594 -0.2884
 2382TIP3   OH228560   2.881   5.218  10.681  0.1930 -0.2312 -0.0146
 2382TIP3    H128561   2.877   5.201  10.775  0.8198 -0.3857 -0.0123
 2382TIP3    H228562   2.925   5.141  10.645  0.2387 -0.0288 -0.3935
 2383TIP3   OH228563   5.424   2.482  16.030 -0.3182  0.3777  0.2346
 2383TIP3    H128564   5.396   2.420  15.962  1.8661  0.1530 -0.5136
 2383TIP3    H228565   5.382   2.565  16.005  0.2707  0.2423 -1.2696
 2384TIP3   OH228566   3.255   2.984   5.175 -0.2616  0.3046 -0.1627
 2384TIP3    H128567   3.281   3.046   5.107  0.7662  1.1977  1.0021
 2384TIP3    H228568   3.184   2.934   5.135 -0.3928  1.4959 -1.5294
 2385TIP3   OH228569   2.958   6.597  13.109  0.3141 -0.6922  0.5210
 2385TIP3    H128570   2.894   6.609  13.179 -2.0028  0.3424 -1.6373
 2385TIP3    H228571   3.034   6.557  13.153 -0.7423  0.4592  3.6946
 2386TIP3   OH228572   3.959   0.861   3.518  0.0460 -0.1344  0.1479
 2386TIP3    H128573   3.924   0.949   3.535 -2.6709 -0.5754 -2.4060
 2386TIP3    H228574   3.882   0.804   3.520  1.3071 -1.9970 -1.1463
 2387TIP3   OH228575   0.365   4.019   4.296 -0.2023  0.3148  0.7105
 2387TIP3    H128576   0.375   4.114   4.286 -0.0038  0.0724 -2.2179
 2387TIP3    H228577   0.271   4.003   4.285 -0.0053  0.0291 -0.6585
 2388TIP3   OH228578   1.955   0.641  15.003  0.1787 -0.2220 -0.4585
 2388TIP3    H128579   1.949   0.628  15.098 -1.9873  2.7401 -0.0410
 2388TIP3    H228580   2.044   0.616  14.981  0.8044 -0.8591  2.3784
 2389TIP3   OH228581   3.310   0.348  10.844 -0.5724 -0.7285 -0.2881
 2389TIP3    H128582   3.338   0.268  10.799  0.5180 -1.3047  1.3545
 2389TIP3    H228583   3.225   0.326  10.881 -0.8764 -0.6764 -0.9310
 2390TIP3   OH228584   6.235   2.256   1.663 -1.0494  0.5426  0.4119
 2390TIP3    H128585   6.329   2.276   1.662 -0.8481 -0.2914  1.1511
 2390TIP3    H228586   6.192   2.341   1.648 -0.1971  1.1037  1.0297
 2391TIP3   OH228587   3.131   0.151  14.728 -0.2251  0.3509 -0.1571
 2391TIP3    H128588   3.185   0.185  14.656 -0.7392  0.9336 -0.2813
 2391TIP3    H228589   3.085   0.228  14.761  1.8831  0.6082  2.4945
 2392TIP3   OH228590   0.119   4.365  13.473 -0.1953 -0.3435  0.3430
 2392TIP3    H128591   0.163   4.434  13.522  0.6707 -0.7490  0.1579
 2392TIP3    H228592   0.186   4.332  13.413 -0.6470 -1.2196  0.3017
 2393TIP3   OH228593   3.998   3.360  15.565 -0.2387 -0.1143 -0.3462
 2393TIP3    H128594   4.004   3.311  15.483 -0.9909  1.0856 -1.1594
 2393TIP3    H228595   3.904   3.365  15.583 -0.0781 -0.4160  0.6315
 2394TIP3   OH228596   3.232   4.050  14.102  0.3332 -0.0269 -0.4176
 2394TIP3    H128597   3.209   4.026  14.191  0.8371  1.9287  0.2892
 2394TIP3    H228598   3.155   4.097  14.069 -0.0606 -1.1971 -1.2278
 2395TIP3   OH228599   1.287   1.198   0.484  0.4405 -0.0994  0.2637
 2395TIP3    H128600   1.253   1.286   0.469  3.2332  1.2100  1.0356
 2395TIP3    H228601   1.276   1.185   0.579 -3.8303 -2.4631 -0.2827
 2396TIP3   OH228602   3.643   1.818  14.722 -0.2410 -0.3577 -0.6239
 2396TIP3    H128603   3.678   1.794  14.808 -0.4074  0.2058 -0.3970
 2396TIP3    H228604   3.721   1.834  14.669 -0.1216  1.3769  0.0178
 2397TIP3   OH228605   4.797   1.995   6.416  0.5434 -0.2768 -0.4760
 2397TIP3    H128606   4.829   2.027   6.331  1.9728  2.2624  0.9064
 2397TIP3    H228607   4.859   1.927   6.440  0.8806 -0.1376 -0.9232
 2398TIP3   OH228608   0.680   1.250  16.483  0.4894 -0.1072 -0.1500
 2398TIP3    H128609   0.679   1.203  16.567  0.9426 -0.0256 -0.0926
 2398TIP3    H228610   0.639   1.334  16.502 -1.7742 -1.0309 -0.6133
 2399TIP3   OH228611   2.304   3.944   4.130  0.1155  0.5037 -0.3210
 2399TIP3    H128612   2.297   3.894   4.049 -0.1274 -0.8937  0.5423
 2399TIP3    H228613   2.215   3.973   4.149 -0.0071 -0.0969  0.0212
 2400TIP3   OH228614   3.189   4.544  13.236 -0.4217  0.6044  0.5156
 2400TIP3    H128615   3.235   4.513  13.314  1.6164  2.4161  0.1200
 2400TIP3    H228616   3.233   4.500  13.163 -1.2273  0.1848  0.2698
 2401TIP3   OH228617   2.563   3.853  14.924 -0.6491  0.4329 -0.5524
 2401TIP3    H128618   2.615   3.923  14.963  0.0041 -0.6137  0.5013
 2401TIP3    H228619   2.556   3.787  14.993 -0.7667 -0.7933 -1.7089
 2402TIP3   OH228620   6.557   1.460  15.595  0.1959 -0.6363  0.4331
 2402TIP3    H128621   6.588   1.473  15.506 -0.7500  0.9605  0.2934
 2402TIP3    H228622   6.464   1.438  15.585  0.0633 -0.3689  1.0335
 2403TIP3   OH228623   5.758   6.290  16.043 -0.3222  0.5321 -0.0274
 2403TIP3    H128624   5.745   6.199  16.070 -1.7119  0.1724 -1.7098
 2403TIP3    H228625   5.835   6.318  16.091  0.6166 -1.7868 -0.0479
 2404TIP3   OH228626   2.547   3.630  16.867 -0.4068 -0.3707 -0.3911
 2404TIP3    H128627   2.520   3.717  16.898 -0.0932 -0.2776 -0.3730
 2404TIP3    H228628   2.530   3.631  16.773 -0.6016 -0.3627 -0.3533
 2405TIP3   OH228629   0.568   4.621  16.387  0.4538  0.0067 -0.4459
 2405TIP3    H128630   0.608   4.669  16.460  1.9197  0.8065 -1.7071
 2405TIP3    H228631   0.474   4.620  16.407  0.6287  1.6240  0.6491
 2406TIP3   OH228632   5.761   0.437  16.113 -0.5699  0.5481  0.1070
 2406TIP3    H128633   5.794   0.435  16.023  0.1102  0.4495  0.3518
 2406TIP3    H228634   5.692   0.503  16.112  0.7146  1.9334 -0.0714
 2407TIP3   OH228635   3.924   5.735  12.680 -0.8025  0.2457  0.7811
 2407TIP3    H128636   3.985   5.806  12.659  1.6345 -2.2077 -1.2517
 2407TIP3    H228637   3.873   5.723  12.600 -0.1567 -1.1761  0.5529
 2408TIP3   OH228638   0.810   6.505   0.141 -0.1371  0.0757  0.1317
 2408TIP3    H128639   0.784   6.413   0.133 -1.2842  0.2961  1.0484
 2408TIP3    H228640   0.814   6.537   0.051 -1.8413 -0.3367 -0.1363
 2409TIP3   OH228641   3.330   3.219   0.119  0.0412  0.0496  0.1225
 2409TIP3    H128642   3.258   3.275   0.148  1.4245  1.7352  0.4101
 2409TIP3    H228643   3.408   3.274   0.124  1.2068 -1.3787 -1.2913
 2410TIP3   OH228644   5.561   1.452   0.868  0.0239 -0.0938  0.6211
 2410TIP3    H128645   5.583   1.460   0.775 -0.8857  0.4290  0.4373
 2410TIP3    H228646   5.629   1.396   0.904  0.0729 -0.7674 -0.4750
 2411TIP3   OH228647   3.999   4.588   3.685  0.4238 -0.4464 -0.3610
 2411TIP3    H128648   4.034   4.663   3.637 -0.2518  0.2304  0.1906
 2411TIP3    H228649   4.073   4.527   3.691  0.9011  0.0404 -1.0562
 2412TIP3   OH228650   0.188   3.859   0.412  0.1427 -0.1088 -0.1442
 2412TIP3    H128651   0.275   3.864   0.451 -0.1279 -0.7920  0.5983
 2412TIP3    H228652   0.177   3.766   0.389 -0.4154 -0.0488 -0.1518
 2413TIP3   OH228653   5.037   1.143  14.313  0.3092  0.2187 -0.0481
 2413TIP3    H128654   5.114   1.198  14.300 -0.2648  0.7898 -1.1920
 2413TIP3    H228655   4.964   1.204  14.317 -0.2118 -0.3909 -0.1298
 2414TIP3   OH228656   1.983   0.467   0.082 -0.0143 -0.1292 -0.5355
 2414TIP3    H128657   1.997   0.544   0.137 -0.5034  0.3995 -1.1250
 2414TIP3    H228658   1.892   0.442   0.098 -0.5254  0.7113 -1.8967
 2415TIP3   OH228659   2.261   6.438   0.175  0.5873  0.1375  0.7682
 2415TIP3    H128660   2.301   6.412   0.258  0.8002  2.0021  1.2805
 2415TIP3    H228661   2.288   6.370   0.113  0.0440 -1.5593  2.2873
 2416TIP3   OH228662   5.818   6.223  16.696 -0.2396  0.4225  0.1898
 2416TIP3    H128663   5.754   6.251  16.631 -0.3981 -0.5713 -0.1001
 2416TIP3    H228664   5.852   6.140  16.662  1.8403  1.3341 -0.0949
 2417TIP3   OH228665   2.294   5.281   2.545 -0.6520  0.2501  0.7106
 2417TIP3    H128666   2.215   5.227   2.539  0.8162 -1.8345 -2.8072
 2417TIP3    H228667   2.353   5.232   2.602 -1.4457  1.3540  2.5792
 2418TIP3   OH228668   0.513   5.888   2.395  0.0214  0.3643  0.5522
 2418TIP3    H128669   0.574   5.853   2.460  2.1128  1.2957 -0.8040
 2418TIP3    H228670   0.490   5.975   2.428 -0.8211 -0.0948  1.2010
 2419TIP3   OH228671   6.774   1.109  17.089  0.2016 -0.3823 -0.6429
 2419TIP3    H128672   6.828   1.057  17.148  0.3079  0.1715 -0.2444
 2419TIP3    H228673   6.684   1.080  17.107  0.0213  1.1484  1.2315
 2420TIP3   OH228674   3.877   6.422  13.704 -0.6562  0.1886  0.6811
 2420TIP3    H128675   3.965   6.429  13.666 -1.2543 -1.9025 -1.2629
 2420TIP3    H228676   3.849   6.513  13.716  1.6031  0.9071  1.0502
 2421TIP3   OH228677   3.509   3.242   4.606  0.6781  0.0651 -0.1835
 2421TIP3    H128678   3.418   3.213   4.600  0.0273  1.5819  1.5027
 2421TIP3    H228679   3.555   3.187   4.543 -1.2586 -1.2751 -0.5386
 2422TIP3   OH228680   3.375   0.095   5.075  0.4911  0.3949 -0.3795
 2422TIP3    H128681   3.361   0.167   5.137 -2.0529  1.1062 -1.6574
 2422TIP3    H228682   3.430   0.133   5.006  0.1139  0.7914 -0.4682
 2423TIP3   OH228683   5.750   1.383   5.028  0.1820  0.1487 -0.4344
 2423TIP3    H128684   5.666   1.338   5.037 -1.0574  0.9340 -5.2255
 2423TIP3    H228685   5.816   1.314   5.038 -1.1070 -0.9111  1.2242
 2424TIP3   OH228686   4.879   5.905  11.462  0.0889  0.0289 -0.2806
 2424TIP3    H128687   4.825   5.983  11.449 -0.9707 -0.6934 -0.3216
 2424TIP3    H228688   4.842   5.862  11.539  1.6058  0.3253  0.6558
 2425TIP3   OH228689   0.804   1.413   2.104 -0.0680 -0.4844 -0.3168
 2425TIP3    H128690   0.867   1.484   2.116 -0.1589 -0.2119 -1.3584
 2425TIP3    H228691   0.719   1.450   2.128 -0.0664 -0.3417 -0.5322
 2426TIP3   OH228692   2.080   1.741   0.076  0.9817  0.6043 -0.8635
 2426TIP3    H128693   2.108   1.653   0.101  3.3744  0.9707 -1.9277
 2426TIP3    H228694   2.007   1.727   0.017 -0.3163 -0.5157  0.8859
 2427TIP3   OH228695   0.992   4.887  14.465 -0.2475  1.0039 -0.0766
 2427TIP3    H128696   0.925   4.955  14.463 -1.4637 -0.1604 -0.6716
 2427TIP3    H228697   0.979   4.843  14.549  0.0145  1.0075 -0.0338
 2428TIP3   OH228698   0.207   4.923  13.125 -0.6347 -0.5345 -0.1969
 2428TIP3    H128699   0.178   4.910  13.035 -2.4943 -0.4709  0.3570
 2428TIP3    H228700   0.301   4.905  13.123 -0.7313 -0.9890 -2.0452
 2429TIP3   OH228701   2.309   3.492   2.805 -0.4316 -0.0055 -0.3733
 2429TIP3    H128702   2.338   3.410   2.846 -1.4770  0.5932  1.6897
 2429TIP3    H228703   2.381   3.553   2.819 -0.9022  0.2823  0.9265
 2430TIP3   OH228704   6.495   1.285  13.479  0.1380  0.3527  0.6286
 2430TIP3    H128705   6.465   1.363  13.524 -0.9786  1.3008 -1.5788
 2430TIP3    H228706   6.537   1.318  13.399  1.3625 -1.2537  0.5511
 2431TIP3   OH228707   2.120   5.738   1.429  0.0673  0.1343 -0.5661
 2431TIP3    H128708   2.093   5.647   1.436 -1.2281  0.5432  0.2820
 2431TIP3    H228709   2.045   5.788   1.464 -0.2131  1.6601 -3.0967
 2432TIP3   OH228710   5.613   5.797   3.309  0.6077  0.5682 -0.2008
 2432TIP3    H128711   5.551   5.734   3.272 -0.3672  1.6692 -0.4979
 2432TIP3    H228712   5.650   5.842   3.232 -0.9062  2.3781  0.0647
 2433TIP3   OH228713   3.214   1.417  11.373 -0.2864 -0.5691  0.2396
 2433TIP3    H128714   3.285   1.450  11.428  1.5611 -0.7681 -1.8713
 2433TIP3    H228715   3.204   1.325  11.399  0.8884 -0.7892 -0.0352
 2434TIP3   OH228716   1.170   2.632   2.312 -0.6330  0.2317 -0.0720
 2434TIP3    H128717   1.163   2.572   2.238 -0.4202 -0.0245  0.1137
 2434TIP3    H228718   1.105   2.600   2.375 -0.6847  0.3381 -0.0702
 2435TIP3   OH228719   0.785   3.174  15.818 -1.0645  0.0139  0.2812
 2435TIP3    H128720   0.809   3.082  15.805  1.0201  0.7272 -1.6936
 2435TIP3    H228721   0.744   3.199  15.735  1.1878  1.5759 -0.4712
 2436TIP3   OH228722   4.415   5.105  11.367 -0.0796 -0.3103  0.4404
 2436TIP3    H128723   4.443   5.185  11.323  1.4144  0.2012  2.2170
 2436TIP3    H228724   4.344   5.071  11.312  0.9455  0.8539 -1.7242
 2437TIP3   OH228725   5.902   0.600  14.489  0.2345 -0.1056 -0.4192
 2437TIP3    H128726   5.807   0.609  14.480  0.3991  1.5355 -0.9370
 2437TIP3    H228727   5.922   0.646  14.571  0.6157 -0.1035 -0.5114
 2438TIP3   OH228728   6.039   6.261  11.114  0.7259 -0.0616 -0.1067
 2438TIP3    H128729   6.002   6.323  11.176  1.9919  1.3993 -0.7384
 2438TIP3    H228730   6.073   6.316  11.043  0.6139 -1.5813 -1.3916
 2439TIP3   OH228731   4.639   4.470  13.811  0.6469  0.6502 -0.5425
 2439TIP3    H128732   4.599   4.499  13.730  2.7109  0.1457 -1.8077
 2439TIP3    H228733   4.621   4.376  13.815 -0.1205  0.8088  0.0168
 2440TIP3   OH228734   5.538   1.012   2.111  0.4933  0.1169  0.1108
 2440TIP3    H128735   5.616   0.956   2.110  0.5848  0.2340  0.4031
 2440TIP3    H228736   5.474   0.962   2.162  0.7830  0.5393  0.9148
 2441TIP3   OH228737   2.632   3.432   4.599  0.3411  0.0063 -0.1608
 2441TIP3    H128738   2.702   3.470   4.546 -0.0559 -0.5027 -1.0604
 2441TIP3    H228739   2.658   3.341   4.611  0.8027  0.2850  1.1756
 2442TIP3   OH228740   6.421   0.375   6.368 -0.3073  0.4222 -0.2928
 2442TIP3    H128741   6.420   0.296   6.314 -1.0235 -0.1068  0.4772
 2442TIP3    H228742   6.330   0.406   6.367 -0.0342  1.2483 -0.5915
 2443TIP3   OH228743   5.546   3.285   1.453 -0.0503  0.0817  0.4939
 2443TIP3    H128744   5.576   3.238   1.531 -1.5290  0.3288  1.2639
 2443TIP3    H228745   5.612   3.353   1.439  0.6125 -0.4233  1.1053
 2444TIP3   OH228746   3.286   0.311  15.954 -0.3605  0.1615  0.6862
 2444TIP3    H128747   3.339   0.231  15.965 -1.2974 -0.7015 -0.7314
 2444TIP3    H228748   3.196   0.280  15.949 -0.8041  1.3888  0.7428
 2445TIP3   OH228749   1.977   0.226  16.849  0.3791 -0.3877  0.2910
 2445TIP3    H128750   1.933   0.292  16.903 -0.2903 -0.7869  0.2422
 2445TIP3    H228751   1.917   0.210  16.776  1.2051  0.0355 -0.5143
 2446TIP3   OH228752   5.888   3.138   0.842 -0.4749 -0.9392  0.7745
 2446TIP3    H128753   5.950   3.201   0.880  1.7444 -2.3620 -0.2985
 2446TIP3    H228754   5.889   3.064   0.903 -1.7277 -0.7060  1.1153
 2447TIP3   OH228755   2.910   5.619   0.465  0.6300 -0.1946  0.1254
 2447TIP3    H128756   2.915   5.616   0.560  2.1665  0.8674  0.1159
 2447TIP3    H228757   2.827   5.577   0.444  0.6237 -1.1667  1.8818
 2448TIP3   OH228758   1.715   6.079   1.745  0.3305 -0.3845  0.3601
 2448TIP3    H128759   1.627   6.056   1.715  0.0929  1.1876 -0.2389
 2448TIP3    H228760   1.768   6.082   1.665  0.6558 -0.1695  0.5797
 2449TIP3   OH228761   5.304   4.584   3.124  0.5778 -0.5615  0.1395
 2449TIP3    H128762   5.236   4.563   3.060  0.3169  2.3600 -0.6847
 2449TIP3    H228763   5.383   4.544   3.089  0.4514  1.0044 -2.1121
 2450TIP3   OH228764   2.645   3.860   4.860  0.3761  0.3609  0.3589
 2450TIP3    H128765   2.556   3.825   4.850 -1.2563  4.1897 -0.0055
 2450TIP3    H228766   2.652   3.883   4.952  0.8189  0.5467  0.2840
 2451TIP3   OH228767   0.518   0.101   2.494  0.2353  0.0277  0.2020
 2451TIP3    H128768   0.495   0.053   2.573  2.5227 -0.7143  0.4726
 2451TIP3    H228769   0.528   0.034   2.427 -1.5002  0.6331 -0.7477
 2452TIP3   OH228770   0.898   6.511  12.054  0.4057 -0.2679  0.0022
 2452TIP3    H128771   0.826   6.513  11.991  0.4861 -0.1141 -0.0839
 2452TIP3    H228772   0.865   6.456  12.125  0.0417  0.1386  0.1553
 2453TIP3   OH228773   1.806   2.450  14.168  0.3775  0.3940  0.3333
 2453TIP3    H128774   1.765   2.405  14.242  0.9405  2.6107  2.0786
 2453TIP3    H228775   1.754   2.529  14.156  1.2128  0.8143 -0.6480
 2454TIP3   OH228776   4.004   1.533   2.288  0.0179 -0.5266  0.3332
 2454TIP3    H128777   3.930   1.498   2.336  0.7574 -1.5640  0.7550
 2454TIP3    H228778   4.059   1.574   2.355  1.2934 -2.3946  0.5196
 2455TIP3   OH228779   6.531   3.977  13.561 -0.1285  0.1582  0.7817
 2455TIP3    H128780   6.570   3.904  13.609 -2.4643 -1.8482 -0.1618
 2455TIP3    H228781   6.465   4.012  13.620  0.5658  1.1729  0.9884
 2456TIP3   OH228782   0.808   4.507  12.244 -0.0464  0.0434  0.0598
 2456TIP3    H128783   0.807   4.581  12.183  1.1749 -0.0134 -0.0456
 2456TIP3    H228784   0.895   4.468  12.233 -0.9379 -1.8910 -0.4562
 2457TIP3   OH228785   1.088   1.615   5.991  0.6948  0.1215  0.4156
 2457TIP3    H128786   1.009   1.630   6.044 -0.9098 -0.8853 -1.5496
 2457TIP3    H228787   1.104   1.698   5.946  0.1556  0.0503  0.0850
 2458TIP3   OH228788   4.220   2.654   1.602 -0.2050 -0.0653  0.2776
 2458TIP3    H128789   4.275   2.585   1.566 -0.3955  0.4004 -0.9433
 2458TIP3    H228790   4.259   2.736   1.571 -0.3745  0.3599  1.1473
 2459TIP3   OH228791   4.498   4.500   2.060  0.3797 -0.1829  0.0960
 2459TIP3    H128792   4.590   4.514   2.083  0.0702  2.1990  0.1291
 2459TIP3    H228793   4.463   4.451   2.135  1.3303 -0.0055  0.6842
 2460TIP3   OH228794   3.752   0.380  15.464  0.4586  0.2096  0.0586
 2460TIP3    H128795   3.667   0.421  15.450 -0.0864 -0.4925  1.1307
 2460TIP3    H228796   3.735   0.286  15.455  0.9389  0.0117  1.0542
 2461TIP3   OH228797   4.793   3.949   2.201 -0.4576 -0.1707 -0.4239
 2461TIP3    H128798   4.805   3.858   2.174 -0.7689 -0.0313 -1.0632
 2461TIP3    H228799   4.773   3.995   2.119  2.6336  1.0161 -0.6589
 2462TIP3   OH228800   4.640   3.117   4.534  0.0497 -0.3700  0.1553
 2462TIP3    H128801   4.703   3.116   4.606  1.4635  1.5688 -0.9517
 2462TIP3    H228802   4.650   3.031   4.494  0.5808 -0.8051  1.1760
 2463TIP3   OH228803   6.067   5.645  16.402  0.3404 -0.5489 -0.3110
 2463TIP3    H128804   6.000   5.708  16.428  0.0499 -0.1735 -1.8995
 2463TIP3    H228805   6.133   5.697  16.357  1.0443 -1.1121  0.0609
 2464TIP3   OH228806   5.077   4.027  11.074  1.1076 -0.5335  0.2665
 2464TIP3    H128807   5.116   4.006  11.159  1.5073 -0.4801  0.1007
 2464TIP3    H228808   5.059   3.941  11.034  1.7415 -0.5660  0.0393
 2465TIP3   OH228809   5.548   1.879   1.181 -0.4401  0.0806  0.4160
 2465TIP3    H128810   5.521   1.820   1.110 -0.2897  1.4509 -0.8274
 2465TIP3    H228811   5.489   1.857   1.253  0.1982 -2.2047  0.3382
 2466TIP3   OH228812   6.629   4.427  14.163 -0.0417 -0.5583 -0.2659
 2466TIP3    H128813   6.560   4.442  14.098  1.8155  1.0120 -2.0446
 2466TIP3    H228814   6.605   4.344  14.205 -2.3566 -0.6664 -1.6066
 2467TIP3   OH228815   3.130   5.517   6.114 -0.5676  0.2109 -0.4219
 2467TIP3    H128816   3.194   5.555   6.054 -0.4307 -0.7667 -0.9268
 2467TIP3    H228817   3.182   5.469   6.178 -0.7476  0.4045 -0.1332
 2468TIP3   OH228818   6.199   2.665   6.545  0.2259 -0.4515 -0.0330
 2468TIP3    H128819   6.271   2.647   6.604  0.7995 -0.0217 -0.5880
 2468TIP3    H228820   6.127   2.610   6.577 -0.2285  1.4325  2.4295
 2469TIP3   OH228821   2.271   4.471   0.407 -0.0853 -0.5112  0.0172
 2469TIP3    H128822   2.192   4.421   0.386 -0.2313  0.1395 -1.0166
 2469TIP3    H228823   2.241   4.561   0.415  0.5144 -0.2983 -0.0888
 2470TIP3   OH228824   5.623   4.877   2.721 -0.2359 -0.3229  0.2142
 2470TIP3    H128825   5.574   4.853   2.799 -1.0183 -0.1869 -0.2288
 2470TIP3    H228826   5.714   4.853   2.741 -0.4901 -0.6235  1.0181
 2471TIP3   OH228827   2.109   2.988   4.517 -0.6052  0.0460  0.3801
 2471TIP3    H128828   2.141   2.937   4.442 -1.3058  2.0869 -1.4236
 2471TIP3    H228829   2.188   3.012   4.565 -0.0997 -0.8876  0.0553
 2472TIP3   OH228830   1.154   5.719   0.907 -0.5921  0.3569 -0.2926
 2472TIP3    H128831   1.178   5.693   0.819  1.1408  1.1968 -0.1103
 2472TIP3    H228832   1.135   5.813   0.901  1.7051  0.9424  0.5671
 2473TIP3   OH228833   0.933   3.415  13.007  0.1656 -0.0950  0.1012
 2473TIP3    H128834   1.015   3.433  13.053 -0.4611  0.3560  1.0962
 2473TIP3    H228835   0.944   3.454  12.921  0.7392  0.5759  0.4723
 2474TIP3   OH228836   2.571   0.974   0.342 -0.2137 -0.2402 -0.2611
 2474TIP3    H128837   2.538   1.060   0.315 -0.8980 -0.0683  1.0539
 2474TIP3    H228838   2.505   0.912   0.311  0.9374 -0.4974 -2.4383
 2475TIP3   OH228839   4.218   6.086   5.233  0.6144 -0.4368 -0.4338
 2475TIP3    H128840   4.146   6.032   5.200 -0.8305  0.9574  0.2823
 2475TIP3    H228841   4.296   6.033   5.220 -0.6970 -2.5829  0.0246
 2476TIP3   OH228842   4.366   4.425  12.168 -0.3224  0.6447  0.8336
 2476TIP3    H128843   4.332   4.423  12.257 -1.1520 -0.0605  0.5139
 2476TIP3    H228844   4.413   4.508  12.162  3.2517 -0.9624  3.1809
 2477TIP3   OH228845   4.130   0.896  11.905 -0.2118  0.2933 -0.8849
 2477TIP3    H128846   4.105   0.806  11.883  1.9315 -0.1515 -1.7434
 2477TIP3    H228847   4.056   0.949  11.876 -1.9243 -1.2313  0.4872
 2478TIP3   OH228848   1.574   4.356   5.336 -0.0243  0.2754  0.0847
 2478TIP3    H128849   1.623   4.279   5.365 -1.2475 -0.8068 -0.6221
 2478TIP3    H228850   1.518   4.324   5.265  0.4466  2.1140 -1.2088
 2479TIP3   OH228851   6.665   4.562   0.754 -0.0501 -0.0663 -0.1708
 2479TIP3    H128852   6.677   4.467   0.765 -1.2029 -0.1576  0.4074
 2479TIP3    H228853   6.636   4.571   0.663  0.4055 -0.2246 -0.3376
 2480TIP3   OH228854   1.996   4.758   1.050 -0.2357  0.1839 -0.2007
 2480TIP3    H128855   1.947   4.798   0.979 -1.0941 -3.5853 -1.9815
 2480TIP3    H228856   1.947   4.782   1.129  0.2338  3.7126 -0.8127
 2481TIP3   OH228857   1.845   2.887  11.862  0.3670 -0.4972  0.1237
 2481TIP3    H128858   1.777   2.881  11.794 -1.0917  0.5846  1.4321
 2481TIP3    H228859   1.914   2.941  11.822 -0.0648 -0.6046 -0.7938
 2482TIP3   OH228860   4.280   3.429  16.319 -0.2371 -0.2003 -0.3066
 2482TIP3    H128861   4.307   3.350  16.366 -0.6828  0.2016  0.6640
 2482TIP3    H228862   4.342   3.496  16.348 -2.9690  1.1385  3.1957
 2483TIP3   OH228863   2.008   2.271   4.368  0.0563 -0.3591  0.0930
 2483TIP3    H128864   2.056   2.228   4.439 -1.2353 -1.7251  0.1916
 2483TIP3    H228865   1.947   2.329   4.412  0.8703  0.5937 -0.0022
 2484TIP3   OH228866   3.064   6.361  12.825 -0.7196  0.8992 -0.3488
 2484TIP3    H128867   3.102   6.348  12.738  0.4463 -0.5754  0.3364
 2484TIP3    H228868   3.133   6.335  12.886 -2.5927 -1.4368  0.9633
 2485TIP3   OH228869   6.692   2.989  12.469  1.0253 -0.5611  0.3597
 2485TIP3    H128870   6.678   3.024  12.557  1.8617 -2.0284  1.1030
 2485TIP3    H228871   6.787   2.992  12.457  0.9196 -0.3854 -0.5065
 2486TIP3   OH228872   3.926   5.574  12.250 -0.3818 -0.4388  0.7516
 2486TIP3    H128873   3.843   5.617  12.231  0.6387  0.9622 -0.7502
 2486TIP3    H228874   3.966   5.629  12.317 -0.4030 -0.7978  1.0626
 2487TIP3   OH228875   0.597   2.120   1.969 -0.4581 -0.3488 -0.3413
 2487TIP3    H128876   0.548   2.195   2.001  1.5873  0.5317  0.9780
 2487TIP3    H228877   0.616   2.068   2.048 -0.4322 -1.3691 -1.0016
 2488TIP3   OH228878   5.485   5.012  12.640 -0.4901  0.2635 -0.1364
 2488TIP3    H128879   5.576   4.995  12.614 -0.3705  0.7318 -0.0282
 2488TIP3    H228880   5.449   5.064  12.568 -0.3345  1.0557  0.3521
 2489TIP3   OH228881   3.163   6.388  15.063 -0.2042  0.8645 -0.7849
 2489TIP3    H128882   3.194   6.298  15.055  2.3991  1.6953 -0.7819
 2489TIP3    H228883   3.090   6.393  15.001 -0.1853 -1.1258 -1.0412
 2490TIP3   OH228884   4.335   6.724  12.946  0.0857 -0.1581  0.4807
 2490TIP3    H128885   4.273   6.683  12.886 -0.5819  0.8055  0.4967
 2490TIP3    H228886   4.371   6.651  12.997 -1.6996 -0.6508  1.0922
 2491TIP3   OH228887   6.664   2.880  16.252 -0.0900 -0.8207 -0.0040
 2491TIP3    H128888   6.757   2.902  16.250  0.0390 -1.3514 -0.1649
 2491TIP3    H228889   6.659   2.805  16.311 -0.0652 -2.3199 -1.8212
 2492TIP3   OH228890   4.564   1.727   1.144  0.0819 -0.6094  0.7193
 2492TIP3    H128891   4.482   1.773   1.125  1.3953  1.7984  0.4295
 2492TIP3    H228892   4.539   1.660   1.208 -2.4072 -1.2804 -0.7996
 2493TIP3   OH228893   3.665   6.244   0.029  0.9254  0.3925  0.5722
 2493TIP3    H128894   3.756   6.217   0.041  0.7531 -0.1310  0.7084
 2493TIP3    H228895   3.615   6.188   0.087  0.4118 -0.0154 -0.2522
 2494TIP3   OH228896   1.086   0.765   1.748 -0.0105  0.3271  0.0459
 2494TIP3    H128897   1.084   0.738   1.839  2.1641  0.8949  0.3154
 2494TIP3    H228898   1.170   0.733   1.715 -0.9482 -0.2955 -1.9225
 2495TIP3   OH228899   2.332   1.589   4.429 -0.1082 -0.1087  0.1427
 2495TIP3    H128900   2.372   1.612   4.346  0.5347  1.1046  0.7593
 2495TIP3    H228901   2.370   1.651   4.492 -2.3289  0.5783  0.9080
 2496TIP3   OH228902   3.919   5.842   1.151 -0.0914 -0.1202  0.3608
 2496TIP3    H128903   3.848   5.820   1.211 -2.0462 -1.2181 -2.1486
 2496TIP3    H228904   3.918   5.771   1.086 -0.7707  2.8184 -3.1777
 2497TIP3   OH228905   3.371   5.189  11.401 -0.3913 -0.3530  0.0771
 2497TIP3    H128906   3.435   5.258  11.415 -0.0824 -0.5828 -0.1881
 2497TIP3    H228907   3.391   5.154  11.314  0.4097 -1.7437  0.7643
 2498TIP3   OH228908   4.065   0.147  13.718  0.9505 -0.2884  0.5744
 2498TIP3    H128909   4.117   0.081  13.763  0.8947  0.6164  2.0602
 2498TIP3    H228910   4.054   0.217  13.783 -0.7958  0.2303 -0.2160
 2499TIP3   OH228911   3.089   1.879  14.280 -0.6373 -0.1614  0.1774
 2499TIP3    H128912   3.025   1.819  14.318 -0.3881  0.4715  1.6540
 2499TIP3    H228913   3.044   1.964  14.280 -0.2726  0.0329 -0.0465
 2500TIP3   OH228914   1.879   1.828  12.853  0.0040  0.8931 -0.2638
 2500TIP3    H128915   1.880   1.855  12.945 -0.4322  1.2214 -0.3508
 2500TIP3    H228916   1.934   1.893  12.809 -0.6202  1.3549 -0.3893
 2501TIP3   OH228917   4.939   4.528  15.185 -0.1108  0.4598 -0.1683
 2501TIP3    H128918   4.931   4.440  15.223  0.4609  0.6064  0.3026
 2501TIP3    H228919   4.979   4.514  15.099  0.6038  0.3164  0.1844
 2502TIP3   OH228920   6.586   0.124   6.459  0.4134  0.3627  0.1125
 2502TIP3    H128921   6.571   0.029   6.459  1.6802  0.1404 -0.6008
 2502TIP3    H228922   6.621   0.142   6.372  0.3381  1.4734  0.3068
 2503TIP3   OH228923   6.512   2.951   2.769  0.2503 -0.1423 -0.2916
 2503TIP3    H128924   6.534   3.037   2.804 -0.9467  0.0356  0.0569
 2503TIP3    H228925   6.416   2.947   2.772  0.2434 -1.1344 -1.1388
 2504TIP3   OH228926   6.302   3.679  14.263  0.9428 -0.1940  0.2988
 2504TIP3    H128927   6.337   3.625  14.334 -0.6961  0.3173  1.5473
 2504TIP3    H228928   6.301   3.768  14.298 -2.3609 -0.2750  0.7406
 2505TIP3   OH228929   1.845   2.874  14.911  0.4782 -0.1577 -0.1431
 2505TIP3    H128930   1.904   2.925  14.967  0.0943  0.2845 -0.1375
 2505TIP3    H228931   1.811   2.806  14.968  0.6329 -0.1339 -0.0216
 2506TIP3   OH228932   5.256   1.492  15.210  0.2071 -0.2813 -0.5723
 2506TIP3    H128933   5.319   1.420  15.217 -0.1658 -0.5063  1.0827
 2506TIP3    H228934   5.300   1.557  15.155  2.0757 -0.2620  0.8232
 2507TIP3   OH228935   0.412   0.254  11.582 -0.0509 -0.1200 -0.2286
 2507TIP3    H128936   0.440   0.337  11.619 -0.4775  0.4702 -1.2087
 2507TIP3    H228937   0.336   0.275  11.528 -1.0401 -1.3582  0.6068
 2508TIP3   OH228938   4.175   6.439  14.688  0.2213 -0.1719 -0.0884
 2508TIP3    H128939   4.103   6.501  14.678  0.2135 -0.2817 -0.7743
 2508TIP3    H228940   4.244   6.489  14.733  0.2404  0.3619 -0.6975
 2509TIP3   OH228941   4.612   0.274  11.673  0.1309  0.1415 -0.2093
 2509TIP3    H128942   4.619   0.196  11.727  3.2438 -0.2914 -1.0598
 2509TIP3    H228943   4.615   0.347  11.735 -2.1911 -0.2984  0.5343
 2510TIP3   OH228944   5.175   3.257   4.917  0.3440 -0.2600  0.1924
 2510TIP3    H128945   5.080   3.255   4.922  0.3382 -1.4911 -0.1238
 2510TIP3    H228946   5.203   3.170   4.947  1.3427 -0.0640 -0.1234
 2511TIP3   OH228947   4.512   5.296  15.304 -0.0506 -0.2176  0.0915
 2511TIP3    H128948   4.436   5.352  15.290  0.9974  1.5248  0.9545
 2511TIP3    H228949   4.517   5.242  15.225 -0.1019  2.1691 -1.6632
 2512TIP3   OH228950   1.443   0.612  13.636  0.1432  1.1598  0.1083
 2512TIP3    H128951   1.383   0.652  13.700 -0.7281  0.2347 -0.1118
 2512TIP3    H228952   1.461   0.525  13.672 -0.1747  0.7172 -0.7966
 2513TIP3   OH228953   4.532   6.330  14.883 -0.3593  0.0854  0.3946
 2513TIP3    H128954   4.623   6.302  14.898  0.0105  1.5348  0.9447
 2513TIP3    H228955   4.535   6.377  14.800 -0.4407  0.8850  0.8428
 2514TIP3   OH228956   2.411   0.082  16.069 -0.6943 -0.3667 -0.3507
 2514TIP3    H128957   2.406   0.092  15.974  0.0066  0.3893 -0.3224
 2514TIP3    H228958   2.397  -0.011  16.084 -0.2742 -0.5901 -1.2478
 2515TIP3   OH228959   4.617   1.196   1.995 -0.5376 -0.4067  0.1580
 2515TIP3    H128960   4.587   1.154   1.914 -0.9636 -1.5264  0.8782
 2515TIP3    H228961   4.709   1.172   2.002 -0.4873 -0.2707  0.0024
 2516TIP3   OH228962   3.840   2.369   2.283 -0.1617  0.4083  0.0177
 2516TIP3    H128963   3.784   2.318   2.225  0.2789  0.1944 -0.2187
 2516TIP3    H228964   3.928   2.356   2.250  0.3048 -0.9838  1.6671
 2517TIP3   OH228965   3.361   3.392   3.888  0.0793  0.5933  0.5814
 2517TIP3    H128966   3.368   3.470   3.943  4.4937  0.1594  1.0540
 2517TIP3    H228967   3.423   3.407   3.817 -1.6988 -1.0408 -1.4335
 2518TIP3   OH228968   0.504   1.159   2.937  0.1249  0.0485 -0.6629
 2518TIP3    H128969   0.470   1.208   2.862 -0.3459  1.4914  0.4622
 2518TIP3    H228970   0.593   1.193   2.949 -0.9716  2.4318  1.5404
 2519TIP3   OH228971   6.545   3.567   5.280 -0.4039  0.0727 -0.4985
 2519TIP3    H128972   6.480   3.620   5.325 -0.0244  0.2499 -0.1533
 2519TIP3    H228973   6.611   3.630   5.250  0.7579 -0.3118  1.1054
 2520TIP3   OH228974   1.394   1.882  12.537 -0.2818  0.7009 -0.1005
 2520TIP3    H128975   1.322   1.827  12.568  2.0337 -1.1094  2.6130
 2520TIP3    H228976   1.387   1.880  12.442 -2.3782 -1.3917  0.0162
 2521TIP3   OH228977   4.691   5.977   4.439  0.2606  0.3690  0.1108
 2521TIP3    H128978   4.637   6.045   4.478 -2.6344 -2.3957  1.3695
 2521TIP3    H228979   4.648   5.958   4.355  0.3378 -0.6632  0.2984
 2522TIP3   OH228980   1.431   4.587  17.081 -0.5171  0.1484 -0.3627
 2522TIP3    H128981   1.443   4.681  17.095 -0.6327  0.1245 -0.0956
 2522TIP3    H228982   1.469   4.570  16.995  1.4316  0.0686  0.4751
 2523TIP3   OH228983   4.348   5.828   1.164  0.2019 -0.1319 -0.7028
 2523TIP3    H128984   4.430   5.797   1.126  0.3633  0.6248 -0.9984
 2523TIP3    H228985   4.333   5.913   1.122 -1.0583 -0.5366 -1.1241
 2524TIP3   OH228986   3.102   1.385  12.716  0.2936 -0.0835 -0.1033
 2524TIP3    H128987   3.022   1.370  12.767  0.9705  0.3936  1.1407
 2524TIP3    H228988   3.083   1.464  12.664  0.6301  1.3048  1.7583
 2525TIP3   OH228989   4.581   5.914   2.526 -0.0737  0.1284  0.6752
 2525TIP3    H128990   4.567   5.845   2.590  0.0388  0.9785  1.6419
 2525TIP3    H228991   4.655   5.964   2.561 -0.3557  0.9243  0.1545
 2526TIP3   OH228992   4.111   1.290  11.899  0.1792 -0.2409  0.3366
 2526TIP3    H128993   4.204   1.296  11.879  0.2966 -0.0559  0.9112
 2526TIP3    H228994   4.072   1.367  11.857  0.2922 -0.3001  0.1241
 2527TIP3   OH228995   6.325   6.678   4.433  0.3457 -0.4482  0.3166
 2527TIP3    H128996   6.325   6.726   4.350  1.4983  0.5040  0.8427
 2527TIP3    H228997   6.418   6.668   4.454  0.0792 -1.5019  1.0346
 2528TIP3   OH228998   6.686   1.922   2.264 -0.5025 -0.2395 -0.7751
 2528TIP3    H128999   6.658   1.834   2.288 -1.6368 -0.0514 -1.3228
 2528TIP3    H229000   6.781   1.917   2.258 -0.2039 -0.6330  2.3506
 2529TIP3   OH229001   4.133   3.151  16.579  0.3821  0.5587 -0.7653
 2529TIP3    H129002   4.073   3.164  16.506  1.0513 -2.1210 -1.9119
 2529TIP3    H229003   4.077   3.125  16.652 -0.0382  0.4241 -1.1347
 2530TIP3   OH229004   5.755   6.287  13.440  0.2684  0.1409  0.0049
 2530TIP3    H129005   5.752   6.373  13.483 -0.0582 -1.3650  3.3987
 2530TIP3    H229006   5.683   6.239  13.482  1.0160 -2.0531 -1.1259
 2531TIP3   OH229007   6.063   5.258  12.861 -0.1049  0.5578 -0.0552
 2531TIP3    H129008   6.052   5.168  12.894 -1.7962  1.2490  1.4406
 2531TIP3    H229009   6.057   5.249  12.766  0.8483 -1.0272 -0.0093
 2532TIP3   OH229010   3.690   0.633   1.675 -0.4456  0.3006  0.1060
 2532TIP3    H129011   3.604   0.658   1.708  0.1651  0.2847  1.7781
 2532TIP3    H229012   3.712   0.702   1.612 -0.4096  1.9858  1.8697
 2533TIP3   OH229013   0.939   0.125   4.172  0.1770 -0.7002  0.0719
 2533TIP3    H129014   0.904   0.187   4.235 -1.5793  1.7577 -3.0027
 2533TIP3    H229015   1.032   0.149   4.165  0.7597 -1.9530  2.5704
 2534TIP3   OH229016   2.689   5.098  12.932 -0.3619  0.5137  0.5455
 2534TIP3    H129017   2.688   5.131  13.022 -0.6042 -0.1733  0.7967
 2534TIP3    H229018   2.598   5.102  12.904 -0.3272  0.4550  0.4250
 2535TIP3   OH229019   4.202   0.123   0.228  0.0084  0.3433 -0.0959
 2535TIP3    H129020   4.106   0.133   0.225 -0.1807 -0.0572  2.3933
 2535TIP3    H229021   4.236   0.207   0.200 -1.0959  0.8062 -0.1016
 2536TIP3   OH229022   4.418   3.952  15.471  0.1847 -0.2579  0.0191
 2536TIP3    H129023   4.443   3.865  15.441  0.5637 -0.3076  0.4595
 2536TIP3    H229024   4.334   3.940  15.514  0.5339 -0.5260  0.6393
 2537TIP3   OH229025   6.087   1.155   0.348  0.3022  0.0944 -0.5867
 2537TIP3    H129026   6.039   1.134   0.267  0.4167  0.6047 -0.7871
 2537TIP3    H229027   6.021   1.193   0.406  0.0790 -0.8523 -0.1970
 2538TIP3   OH229028   1.985   4.057  14.300 -0.3860  0.2334  0.5611
 2538TIP3    H129029   1.992   4.023  14.389  1.7593  1.1029  0.7864
 2538TIP3    H229030   2.071   4.042  14.261 -1.6332 -1.3100 -1.8707
 2539TIP3   OH229031   5.077   4.342   4.513  0.8433 -0.0310  0.3451
 2539TIP3    H129032   5.084   4.282   4.439 -0.3725  0.5376 -0.2687
 2539TIP3    H229033   5.117   4.423   4.481 -0.2609  0.4166  0.0606
 2540TIP3   OH229034   1.582   5.015  11.147 -0.0784 -0.1221  0.5386
 2540TIP3    H129035   1.504   4.997  11.200 -0.9541  0.1828 -0.6012
 2540TIP3    H229036   1.547   5.032  11.059  1.2750  0.1343  0.0363
 2541TIP3   OH229037   2.726   2.591  13.305  0.1158  0.4737 -0.2069
 2541TIP3    H129038   2.661   2.628  13.366 -0.1866 -0.1873 -0.1154
 2541TIP3    H229039   2.706   2.497  13.304  1.3024  0.2074  0.0894
 2542TIP3   OH229040   4.347   1.890   4.792  0.6574  0.1098 -0.5594
 2542TIP3    H129041   4.340   1.965   4.851  1.3732 -0.6177  0.4973
 2542TIP3    H229042   4.288   1.825   4.830  1.2819 -0.4376 -0.5177
 2543TIP3   OH229043   5.746   4.700  11.693  0.2047  0.2424  0.0298
 2543TIP3    H129044   5.735   4.673  11.601  1.9520  1.4252 -0.5857
 2543TIP3    H229045   5.779   4.622  11.737  0.3359 -0.0624 -0.5884
 2544TIP3   OH229046   3.516   1.749   4.101 -0.0941 -0.2172  0.1313
 2544TIP3    H129047   3.553   1.674   4.055  3.0344  0.7514  0.8018
 2544TIP3    H229048   3.441   1.713   4.148  0.8373 -2.7866 -0.1448
 2545TIP3   OH229049   2.031   6.458  14.486 -0.0091  0.5473  0.5767
 2545TIP3    H129050   2.004   6.413  14.566 -2.3582 -1.6048 -1.2418
 2545TIP3    H229051   1.956   6.513  14.462 -0.4820 -0.8205 -1.3950
 2546TIP3   OH229052   5.268   1.630  14.735  0.2480  0.0071 -0.5999
 2546TIP3    H129053   5.178   1.598  14.743  0.3067  0.1227  0.8360
 2546TIP3    H229054   5.322   1.552  14.747  0.3483 -0.1749 -2.1243
 2547TIP3   OH229055   1.188   1.145  14.531  0.3933 -0.2305 -0.7193
 2547TIP3    H129056   1.160   1.160  14.621  0.4113 -1.3033 -0.5150
 2547TIP3    H229057   1.281   1.167  14.531  0.0671  1.2128 -0.8578
 2548TIP3   OH229058   2.060   3.560   1.395  0.0440  0.3405  0.4465
 2548TIP3    H129059   2.111   3.479   1.390  0.9820  0.9337  0.0551
 2548TIP3    H229060   2.056   3.580   1.488  1.0971  0.6138  0.4527
 2549TIP3   OH229061   5.321   3.082   4.654  0.2738 -0.0138  0.3262
 2549TIP3    H129062   5.234   3.043   4.643  1.4265 -2.9106  0.5959
 2549TIP3    H229063   5.351   3.049   4.739  1.1431  2.0619  0.8873
 2550TIP3   OH229064   2.962   0.842   5.338 -0.7416 -0.4300 -0.3835
 2550TIP3    H129065   3.056   0.857   5.339 -0.5340 -1.4881 -1.3857
 2550TIP3    H229066   2.925   0.917   5.385  0.5704  0.1423 -0.2193
 2551TIP3   OH229067   4.701   4.357  11.822 -0.9487 -0.2661 -0.4161
 2551TIP3    H129068   4.648   4.434  11.805 -0.0928  0.3795 -0.2680
 2551TIP3    H229069   4.774   4.364  11.760  0.2944  0.2274  1.0153
 2552TIP3   OH229070   0.108   6.128   1.008 -0.2546  0.0686  0.0653
 2552TIP3    H129071   0.121   6.036   1.032  1.5299  0.3538  0.3081
 2552TIP3    H229072   0.026   6.152   1.051 -0.6739 -1.3524  0.1210
 2553TIP3   OH229073   0.008   3.733   5.938  0.2090  0.4462 -0.1107
 2553TIP3    H129074   0.054   3.804   5.983  0.2605  2.4512 -3.0260
 2553TIP3    H229075  -0.075   3.772   5.910 -1.3370 -1.7425  1.1034
 2554TIP3   OH229076   3.881   5.406  17.112 -0.2994 -0.3631  0.1155
 2554TIP3    H129077   3.887   5.418  17.207  0.3025  0.3908 -0.0095
 2554TIP3    H229078   3.959   5.357  17.088 -0.1168  0.0264 -0.0826
 2555TIP3   OH229079   4.004   3.690   6.079 -0.0236 -0.1594  0.1948
 2555TIP3    H129080   3.948   3.717   6.006  1.3688  1.9370 -0.1823
 2555TIP3    H229081   4.063   3.625   6.041 -0.3226 -0.2570 -0.1138
 2556TIP3   OH229082   0.216   1.925   0.513  0.8975 -0.3857 -0.2689
 2556TIP3    H129083   0.146   1.966   0.461  0.3845  1.0994  1.4850
 2556TIP3    H229084   0.249   1.855   0.458 -1.1469 -0.3268 -1.6656
 2557TIP3   OH229085   3.021   3.201  14.414  0.1156  0.3021  0.3019
 2557TIP3    H129086   2.966   3.241  14.482 -0.2133  0.6051 -0.1357
 2557TIP3    H229087   2.963   3.196  14.337  0.2770 -0.6288  0.2258
 2558TIP3   OH229088   3.904   4.842  15.869 -0.2682  0.5344 -0.0967
 2558TIP3    H129089   3.929   4.920  15.819  2.6369 -0.0661  0.2303
 2558TIP3    H229090   3.880   4.874  15.956  0.1177  1.1188 -0.2076
 2559TIP3   OH229091   6.009   6.294  16.886  0.1967 -0.4871  0.1733
 2559TIP3    H129092   5.961   6.255  16.813 -0.2784  1.6211 -0.7052
 2559TIP3    H229093   6.093   6.248  16.886 -1.4688 -3.9059  1.4130
 2560TIP3   OH229094   0.118   4.151  12.417  0.1841 -0.0975  0.2608
 2560TIP3    H129095   0.161   4.091  12.356  1.1288  0.9133 -0.1021
 2560TIP3    H229096   0.172   4.148  12.496 -1.4938 -2.0341  1.4264
 2561TIP3   OH229097   1.817   6.123   2.200  0.8333  0.2632  0.0877
 2561TIP3    H129098   1.819   6.114   2.104  0.5878 -1.2471  0.1920
 2561TIP3    H229099   1.739   6.175   2.218 -0.0146 -0.7914 -0.4716
 2562TIP3   OH229100   3.227   0.866  16.944 -0.0029 -0.1192 -0.7888
 2562TIP3    H129101   3.209   0.956  16.969  0.0533 -0.0878 -0.8625
 2562TIP3    H229102   3.236   0.819  17.028 -1.7031 -0.3944 -0.7122
 2563TIP3   OH229103   3.965   1.689  14.670  0.0862 -0.4056  0.2168
 2563TIP3    H129104   4.053   1.721  14.652  0.1643 -0.2257  0.8785
 2563TIP3    H229105   3.953   1.614  14.612  1.0977 -1.1171  0.9001
 2564TIP3   OH229106   4.848   1.440  13.409  0.4315 -0.1165 -0.0260
 2564TIP3    H129107   4.869   1.425  13.316  1.5499 -3.4113  0.6434
 2564TIP3    H229108   4.925   1.409  13.456 -1.4363 -1.8080  2.1207
 2565TIP3   OH229109   4.937   1.833  16.850  0.3363  0.3593 -0.0605
 2565TIP3    H129110   4.988   1.752  16.848  0.2022  0.2700 -2.1261
 2565TIP3    H229111   4.859   1.813  16.798  0.1650  1.7123 -0.3619
 2566TIP3   OH229112   4.345   1.014   0.089 -0.0424 -0.0659  0.3718
 2566TIP3    H129113   4.314   1.077   0.154  1.1252  1.1662 -0.2114
 2566TIP3    H229114   4.294   0.935   0.106 -0.0163  0.3223  2.5308
 2567TIP3   OH229115   0.416   3.452   3.460  0.1448 -0.0133 -0.4192
 2567TIP3    H129116   0.394   3.542   3.437  0.5763  0.1836 -0.0609
 2567TIP3    H229117   0.505   3.440   3.427  0.3453 -0.0899  0.1522
 2568TIP3   OH229118   2.071   0.273   5.915  0.4572 -0.4901  0.0670
 2568TIP3    H129119   2.099   0.295   6.004 -0.1459 -0.3073  0.2146
 2568TIP3    H229120   2.103   0.345   5.861  0.2302 -0.2563  0.2437
 2569TIP3   OH229121   1.977   6.723  13.129  0.4909  0.1405 -0.1139
 2569TIP3    H129122   2.028   6.801  13.108  0.6659  0.6916  2.0771
 2569TIP3    H229123   2.037   6.651  13.116  1.1275  0.5965  0.2610
 2570TIP3   OH229124   1.994   3.557   4.515  0.3169  0.3328  0.7862
 2570TIP3    H129125   2.079   3.533   4.479 -0.1363  1.1828 -0.9634
 2570TIP3    H229126   1.999   3.533   4.607  1.8198 -1.2492  0.3383
 2571TIP3   OH229127   5.697   3.222  17.138  0.1394 -0.6157 -0.3465
 2571TIP3    H129128   5.775   3.178  17.101  1.2500  0.2683  0.8489
 2571TIP3    H229129   5.632   3.218  17.068  1.2151 -1.5049 -1.3443
 2572TIP3   OH229130   5.189   3.651  12.299 -0.1499  0.4471  0.4148
 2572TIP3    H129131   5.208   3.668  12.207 -0.6386  1.2241  0.4424
 2572TIP3    H229132   5.266   3.684  12.345 -0.3676  1.0743  0.3466
 2573TIP3   OH229133   5.593   5.746  15.553 -0.2922  0.2222 -0.9528
 2573TIP3    H129134   5.645   5.670  15.577 -1.7068 -0.8467 -1.1685
 2573TIP3    H229135   5.614   5.812  15.620 -1.8689 -1.6342  1.5169
 2574TIP3   OH229136   3.138   3.720   1.741  0.8079 -0.9294 -0.0897
 2574TIP3    H129137   3.114   3.704   1.832  0.0989 -0.2774 -0.1453
 2574TIP3    H229138   3.101   3.806   1.722 -0.8814 -1.9294 -1.6183
 2575TIP3   OH229139   5.444   2.371   3.656 -0.2619  0.1108 -0.5458
 2575TIP3    H129140   5.482   2.417   3.731 -1.0060  0.4730 -0.3883
 2575TIP3    H229141   5.495   2.290   3.650  0.4921  0.5539 -0.3001
 2576TIP3   OH229142   6.777   1.026   1.690  0.0276  0.4493 -0.2524
 2576TIP3    H129143   6.768   0.933   1.713 -0.3240  0.1412 -1.5437
 2576TIP3    H229144   6.846   1.027   1.623 -0.4679  1.0145 -0.7630
 2577TIP3   OH229145   1.104   0.904   1.249  0.2366 -0.0281 -0.7956
 2577TIP3    H129146   1.191   0.887   1.213  0.7090 -0.8742  0.6391
 2577TIP3    H229147   1.061   0.961   1.185  2.4682  1.8868 -0.7285
 2578TIP3   OH229148   6.797   1.686   0.118 -0.8541  0.1972  0.1349
 2578TIP3    H129149   6.723   1.727   0.072  0.1164  1.4487 -0.3749
 2578TIP3    H229150   6.874   1.736   0.089  0.0472 -0.2890  1.5805
 2579TIP3   OH229151   5.097   5.722  11.303  0.0400 -0.2534 -0.1743
 2579TIP3    H129152   5.030   5.751  11.366  0.0970 -1.6006  0.5422
 2579TIP3    H229153   5.176   5.712  11.356  0.2727 -0.7120 -0.6082
 2580TIP3   OH229154   1.917   4.498  12.557  0.7998  0.2905  0.7961
 2580TIP3    H129155   1.876   4.563  12.500  2.2414  0.5765  0.0301
 2580TIP3    H229156   1.887   4.520  12.645 -0.5865  0.5283  0.2997
 2581TIP3   OH229157   1.501   6.706   6.160 -0.2538  0.7421 -0.0343
 2581TIP3    H129158   1.452   6.685   6.081  2.1350 -2.6564 -0.8383
 2581TIP3    H229159   1.464   6.650   6.228  0.4692  0.4753  0.1477
 2582TIP3   OH229160   4.079   4.285   4.009 -0.1087  0.2557 -0.1012
 2582TIP3    H129161   4.061   4.240   4.091 -1.0698 -0.5504 -0.7189
 2582TIP3    H229162   4.149   4.235   3.968 -0.8546 -0.4497 -0.5694
 2583TIP3   OH229163   5.423   0.433  13.810  0.4275 -0.0122  0.1893
 2583TIP3    H129164   5.459   0.428  13.899 -0.6655  2.2050  0.8295
 2583TIP3    H229165   5.430   0.525  13.786 -0.1378 -0.4153 -1.6770
 2584TIP3   OH229166   1.126   3.588   0.293  0.2715 -0.0600  0.4881
 2584TIP3    H129167   1.064   3.648   0.251  2.3442  1.9705  0.1569
 2584TIP3    H229168   1.078   3.505   0.299 -2.1518  1.1638 -0.5136
 2585TIP3   OH229169   3.027   0.170  16.266 -0.4554  0.7334 -0.2071
 2585TIP3    H129170   3.088   0.149  16.336 -1.9673  0.6941  1.1639
 2585TIP3    H229171   3.029   0.266  16.260 -1.6701  0.8963  1.2401
 2586TIP3   OH229172   5.627   2.790  16.680  0.0049 -0.1268 -0.2772
 2586TIP3    H129173   5.632   2.704  16.723  3.0084 -0.1207 -0.4438
 2586TIP3    H229174   5.684   2.782  16.604 -1.5094  1.3483 -1.6317
 2587TIP3   OH229175   4.004   6.552   5.196 -0.7850 -0.3801  0.1660
 2587TIP3    H129176   4.035   6.614   5.130 -1.9616 -1.8541 -1.9336
 2587TIP3    H229177   4.077   6.492   5.208 -0.6708 -0.2955 -0.0902
 2588TIP3   OH229178   4.566   1.785   2.713 -0.0892 -0.4598 -0.7035
 2588TIP3    H129179   4.562   1.744   2.800 -1.1094 -0.7452 -0.8739
 2588TIP3    H229180   4.493   1.847   2.713  0.3564  0.0651 -1.1003
 2589TIP3   OH229181   3.174   6.773   5.942  0.3725 -0.8941  0.0230
 2589TIP3    H129182   3.217   6.792   6.025  0.4636 -2.2432  0.3133
 2589TIP3    H229183   3.085   6.808   5.952  0.5722 -0.4941  0.4378
 2590TIP3   OH229184   0.419   0.503  12.682 -0.1502 -0.4458  0.6046
 2590TIP3    H129185   0.342   0.475  12.633 -0.3853 -0.5547  1.0355
 2590TIP3    H229186   0.393   0.584  12.724  0.2292 -0.0641  0.1214
 2591TIP3   OH229187   5.152   6.687  10.907  0.1242 -0.1753 -0.6379
 2591TIP3    H129188   5.214   6.724  10.844  0.4954  0.6880  0.1997
 2591TIP3    H229189   5.152   6.750  10.980 -0.9403 -0.7069 -0.1593
 2592TIP3   OH229190   2.392   5.289  15.635  0.2041  0.2694 -0.2061
 2592TIP3    H129191   2.392   5.315  15.727  0.0880 -0.2278 -0.0648
 2592TIP3    H229192   2.407   5.195  15.636  2.3315  0.5440 -0.7676
 2593TIP3   OH229193   2.402   2.705   1.974 -0.0947 -0.1279  0.0292
 2593TIP3    H129194   2.336   2.641   1.949  0.1125 -0.5841  0.6268
 2593TIP3    H229195   2.355   2.769   2.027  0.0759 -0.8634  1.0966
 2594TIP3   OH229196   3.524   3.840   4.268 -0.1937  0.7358 -0.3516
 2594TIP3    H129197   3.499   3.914   4.214  0.0598  2.0294  1.2253
 2594TIP3    H229198   3.613   3.860   4.298  0.4359 -0.8896 -1.0164
 2595TIP3   OH229199   4.658   3.967  16.931  0.2935  0.4431  0.6357
 2595TIP3    H129200   4.727   3.961  16.865 -0.1982  0.7105  0.0907
 2595TIP3    H229201   4.586   4.012  16.886 -0.7980 -1.1494  0.7273
 2596TIP3   OH229202   3.324   0.068   4.024 -0.5916  1.1487  0.1142
 2596TIP3    H129203   3.388   0.137   4.041  0.4017 -0.1321  1.9842
 2596TIP3    H229204   3.289   0.046   4.111 -2.0864  0.4064 -0.6315
 2597TIP3   OH229205   5.312   3.227   1.750  0.0944 -0.0387 -0.1428
 2597TIP3    H129206   5.381   3.215   1.816 -0.9733 -1.1135  0.8266
 2597TIP3    H229207   5.231   3.205   1.795 -0.8159  0.4201 -1.4841
 2598TIP3   OH229208   5.431   3.179  14.341  0.2681  0.2784  0.0310
 2598TIP3    H129209   5.360   3.158  14.280  0.0386 -1.4005  0.8446
 2598TIP3    H229210   5.463   3.095  14.371  1.4465  1.0531  1.0335
 2599TIP3   OH229211   5.419   3.841  15.602  0.3208  0.1765 -0.5960
 2599TIP3    H129212   5.398   3.933  15.620  0.7808  0.2496 -0.4089
 2599TIP3    H229213   5.483   3.845  15.531  0.8371  0.0365 -0.1449
 2600TIP3   OH229214   3.667   6.686   4.884  0.0538  0.0123  0.3078
 2600TIP3    H129215   3.745   6.720   4.840  1.0965 -1.6905  0.7594
 2600TIP3    H229216   3.599   6.751   4.864  1.5518  1.5477 -0.1010
 2601TIP3   OH229217   5.058   1.736   4.554 -0.1742  0.6766 -0.5231
 2601TIP3    H129218   5.088   1.646   4.542 -0.0581  0.8109 -1.2760
 2601TIP3    H229219   5.049   1.771   4.465  1.6743  2.0293 -0.2404
 2602TIP3   OH229220   3.421   4.512  14.415 -0.1982  0.2954  0.6369
 2602TIP3    H129221   3.383   4.535  14.330 -1.8641 -0.1045  1.2472
 2602TIP3    H229222   3.512   4.491  14.395 -0.6354 -0.1028 -1.1022
 2603TIP3   OH229223   3.536   2.996   5.404  0.1192  0.5178 -0.3143
 2603TIP3    H129224   3.604   2.956   5.350  0.6630 -0.2177  0.8785
 2603TIP3    H229225   3.463   2.933   5.400  0.1047  0.5336 -0.2994
 2604TIP3   OH229226   5.166   6.491   3.516  0.0237 -0.6446 -0.5446
 2604TIP3    H129227   5.224   6.536   3.577 -1.7725  0.3236  0.5499
 2604TIP3    H229228   5.159   6.550   3.441 -1.7221  0.6453  0.5575
 2605TIP3   OH229229   5.761   1.877  12.044  0.0112  0.2507  0.2181
 2605TIP3    H129230   5.853   1.903  12.050  0.0555  0.2208 -0.2734
 2605TIP3    H229231   5.755   1.832  11.960 -0.4749  0.3288  0.2116
 2606TIP3   OH229232   1.219   3.450  11.993  0.2993 -0.4630 -0.2141
 2606TIP3    H129233   1.250   3.407  11.913  0.5971  2.7460 -1.9577
 2606TIP3    H229234   1.209   3.542  11.969 -1.3141  0.3381  3.0027
 2607TIP3   OH229235   2.491   3.248  13.334 -0.3729  0.1866  0.1842
 2607TIP3    H129236   2.454   3.199  13.408 -0.1611  0.5801  0.5590
 2607TIP3    H229237   2.571   3.201  13.311 -0.5922 -0.1043  0.0140
 2608TIP3   OH229238   4.526   1.893   3.195  0.3736  0.0066 -0.3191
 2608TIP3    H129239   4.468   1.968   3.206  0.3783  0.0587 -0.6426
 2608TIP3    H229240   4.613   1.927   3.216  0.0986 -0.4982  1.9430
 2609TIP3   OH229241   1.049   4.948  16.532 -0.0388 -0.1764 -0.1076
 2609TIP3    H129242   1.061   4.879  16.468 -0.9122  0.3026 -0.8085
 2609TIP3    H229243   0.981   5.004  16.495 -0.6014  0.0875  1.2506
 2610TIP3   OH229244   5.729   1.435  15.722 -0.1826 -0.5203  0.2448
 2610TIP3    H129245   5.735   1.530  15.719  0.0080 -0.4755  1.5554
 2610TIP3    H229246   5.802   1.407  15.778 -0.8870 -1.3422  0.7995
 2611TIP3   OH229247   2.075   6.531   5.725  0.1272  0.4985  0.4955
 2611TIP3    H129248   1.981   6.539   5.741  0.4143  1.9839  1.7304
 2611TIP3    H229249   2.085   6.549   5.631 -0.5716  3.7781  0.9154
 2612TIP3   OH229250   3.999   6.209   1.673 -0.9842 -0.6722  0.0296
 2612TIP3    H129251   4.055   6.285   1.655  0.7056 -1.8260  0.1422
 2612TIP3    H229252   3.993   6.164   1.589 -1.8658 -0.5101 -0.0037
 2613TIP3   OH229253   0.699   3.269   4.456  0.4042  0.2124  0.1625
 2613TIP3    H129254   0.648   3.305   4.529  0.8386 -1.7123  1.4809
 2613TIP3    H229255   0.651   3.296   4.378 -1.0899  0.7990  1.2290
 2614TIP3   OH229256   2.074   5.727  13.133  0.6748  0.0769 -0.6322
 2614TIP3    H129257   2.083   5.806  13.079  0.8189 -0.5200 -1.5045
 2614TIP3    H229258   2.003   5.747  13.194 -0.7416  0.1451 -2.2222
 2615TIP3   OH229259   1.301   2.416   4.917 -0.2001 -0.2509  0.2687
 2615TIP3    H129260   1.318   2.480   4.987  2.2093 -0.9807  0.4517
 2615TIP3    H229261   1.230   2.362   4.951  0.2082  0.0610  1.7262
 2616TIP3   OH229262   3.692   0.728   4.434  0.4471  0.7835  0.3285
 2616TIP3    H129263   3.761   0.772   4.484  0.7818 -0.5295  1.0694
 2616TIP3    H229264   3.737   0.691   4.358  0.1597  1.7126 -0.3140
 2617TIP3   OH229265   6.552   3.777  16.730  0.0095  0.1951  0.4379
 2617TIP3    H129266   6.557   3.782  16.825 -1.1559  0.1765  0.5105
 2617TIP3    H229267   6.540   3.684  16.711  0.3305  0.1870  0.2591
 2618TIP3   OH229268   6.789   6.756  10.957 -0.4157  0.4634  0.6843
 2618TIP3    H129269   6.833   6.755  11.042  0.1822  1.5012  0.4058
 2618TIP3    H229270   6.775   6.663  10.936  2.6977 -0.0279  0.2693
 2619TIP3   OH229271   5.994   2.367  10.787  0.0954 -0.0948  0.1050
 2619TIP3    H129272   6.003   2.287  10.839 -0.1082 -0.7288 -0.8076
 2619TIP3    H229273   6.039   2.346  10.704  1.0063  1.1277  0.2737
 2620TIP3   OH229274   4.688   3.666  13.179  0.0023  0.1149  0.6933
 2620TIP3    H129275   4.742   3.718  13.118  0.4856 -1.6127 -0.4315
 2620TIP3    H229276   4.751   3.614  13.228 -0.5080  0.0270  1.2602
 2621TIP3   OH229277   2.756   4.183   3.121 -0.5339 -0.7208 -0.4475
 2621TIP3    H129278   2.724   4.261   3.166 -3.7351 -0.7193 -2.3975
 2621TIP3    H229279   2.751   4.114   3.187 -3.6542 -0.4118 -0.1779
 2622TIP3   OH229280   5.115   0.069   5.789  0.4460  0.0540 -0.1129
 2622TIP3    H129281   5.116   0.155   5.831 -0.0948  0.3514 -0.7051
 2622TIP3    H229282   5.153   0.010   5.855 -1.4410  0.3083  1.2805
 2623TIP3   OH229283   6.527   6.689   3.433 -0.0246 -0.0009 -0.4558
 2623TIP3    H129284   6.607   6.647   3.401  1.4085  0.2163  2.5261
 2623TIP3    H229285   6.524   6.668   3.526 -1.4372  3.0822  0.3333
 2624TIP3   OH229286   3.299   1.467  14.097  0.0789  0.3778 -0.4719
 2624TIP3    H129287   3.293   1.563  14.099  1.8639  0.5216  0.0291
 2624TIP3    H229288   3.371   1.449  14.037 -1.4346 -0.7670 -2.0217
 2625TIP3   OH229289   1.991   3.796   3.264 -0.1480  0.4998  0.7073
 2625TIP3    H129290   1.983   3.838   3.350  0.5237  2.3869 -0.0991
 2625TIP3    H229291   2.034   3.862   3.209  0.3781 -1.0414 -0.8184
 2626TIP3   OH229292   5.153   4.260  15.052  0.6524  0.3763  0.1074
 2626TIP3    H129293   5.090   4.189  15.048  0.1351  0.8633 -0.8972
 2626TIP3    H229294   5.161   4.280  15.145 -1.0993  0.6514  0.2416
 2627TIP3   OH229295   4.934   6.475   4.666 -0.1024  0.1037  0.5579
 2627TIP3    H129296   4.988   6.397   4.666  0.5460  0.5140  2.1442
 2627TIP3    H229297   4.997   6.548   4.661 -0.5992  0.5495  0.6869
 2628TIP3   OH229298   1.550   2.616  14.240  0.6350  0.4374  0.5940
 2628TIP3    H129299   1.485   2.597  14.308  2.5649  1.7025  2.9589
 2628TIP3    H229300   1.555   2.712  14.237  0.6778  0.4077 -1.3038
 2629TIP3   OH229301   3.427   3.413   4.358  0.0406  0.1304 -0.1613
 2629TIP3    H129302   3.512   3.403   4.401  0.1556 -0.1336 -0.4473
 2629TIP3    H229303   3.365   3.371   4.418  0.2315 -0.4297 -0.3509
 2630TIP3   OH229304   2.349   4.452   4.980  0.3859 -0.0000 -0.1539
 2630TIP3    H129305   2.342   4.486   5.069  3.5170  1.2145 -0.2405
 2630TIP3    H229306   2.430   4.490   4.946 -0.5379 -0.6244 -3.4588
 2631TIP3   OH229307   4.321   4.779  17.147  0.3425 -0.1337 -0.2525
 2631TIP3    H129308   4.227   4.782  17.132 -0.0095 -0.8682  1.5718
 2631TIP3    H229309   4.348   4.693  17.115 -0.0142 -0.7896  1.1239
 2632TIP3   OH229310   0.317   0.175   3.860 -0.1968  0.1508  0.1453
 2632TIP3    H129311   0.234   0.167   3.813 -0.8361  0.3100  1.2087
 2632TIP3    H229312   0.325   0.093   3.909  0.9150 -0.4125 -0.8904
 2633TIP3   OH229313   3.811   2.545   3.856 -0.2913 -0.1772 -0.5655
 2633TIP3    H129314   3.727   2.524   3.815 -0.2868  0.2293 -0.7900
 2633TIP3    H229315   3.872   2.556   3.784 -0.1924  0.1477 -0.4371
 2634TIP3   OH229316   6.115   2.734  12.971  0.2054  0.2463  0.0036
 2634TIP3    H129317   6.048   2.706  12.909 -0.6449  2.2393 -0.0755
 2634TIP3    H229318   6.116   2.830  12.963  1.8596  0.3813  1.2558
 2635TIP3   OH229319   6.627   0.023   5.634 -0.2784  0.3173  0.3277
 2635TIP3    H129320   6.614   0.103   5.582  0.5728  0.3905  0.2143
 2635TIP3    H229321   6.618   0.052   5.725 -1.4436  0.2503  0.2582
 2636TIP3   OH229322   3.240   5.792   4.451  0.0032  0.2849 -0.0181
 2636TIP3    H129323   3.305   5.841   4.500 -0.9402 -0.2769  1.8805
 2636TIP3    H229324   3.217   5.718   4.507 -1.7510  0.0711 -0.9334
 2637TIP3   OH229325   2.928   5.363   1.698 -0.4382 -0.6390  0.0504
 2637TIP3    H129326   2.895   5.276   1.722 -3.2871  0.2134 -0.4240
 2637TIP3    H229327   2.987   5.346   1.624 -0.0994 -2.2276  0.6343
 2638TIP3   OH229328   0.721   3.811  12.291 -0.6898 -0.6022 -0.1870
 2638TIP3    H129329   0.810   3.781  12.309  0.6596  2.5708 -0.8215
 2638TIP3    H229330   0.677   3.735  12.252  1.5630 -2.3942  0.5286
 2639TIP3   OH229331   1.970   4.978  12.138  0.3777 -0.3237 -0.8632
 2639TIP3    H129332   1.944   4.959  12.229  2.1124 -0.9848 -0.4644
 2639TIP3    H229333   1.961   5.073  12.130  0.2587 -0.2467  0.0248
 2640TIP3   OH229334   0.207   2.113   0.079  0.0417  0.3252 -0.3019
 2640TIP3    H129335   0.230   2.189   0.025 -1.9924  0.6432 -0.8127
 2640TIP3    H229336   0.138   2.145   0.136  0.6403 -0.6077  0.9873
 2641TIP3   OH229337   5.796   5.630  14.441  0.6271 -0.4603  0.0059
 2641TIP3    H129338   5.805   5.648  14.347 -0.4778 -0.0672 -0.0338
 2641TIP3    H229339   5.707   5.598  14.451  0.2316  0.8971  1.1310
 2642TIP3   OH229340   4.480   5.432  12.182  0.4805  0.1743 -0.4364
 2642TIP3    H129341   4.455   5.472  12.099  1.7383 -0.0179 -0.9190
 2642TIP3    H229342   4.531   5.500  12.227 -0.4459  0.3882  0.3236
 2643TIP3   OH229343   4.436   2.232  11.368 -0.4586  0.6139 -0.2697
 2643TIP3    H129344   4.509   2.241  11.307 -0.7217  0.5345 -0.5967
 2643TIP3    H229345   4.374   2.174  11.324 -0.1978 -0.2847  0.4973
 2644TIP3   OH229346   4.103   5.058   1.132 -0.2230 -0.7729 -0.2835
 2644TIP3    H129347   4.011   5.041   1.110 -0.4018 -0.3233  0.1013
 2644TIP3    H229348   4.148   4.976   1.110 -0.3294 -0.2776 -2.6237
 2645TIP3   OH229349   4.991   1.732   4.007 -0.5659 -0.2784 -0.6071
 2645TIP3    H129350   4.992   1.639   4.025  1.3216 -0.2475 -0.3240
 2645TIP3    H229351   4.984   1.738   3.911 -0.6625 -0.7083 -0.6260
 2646TIP3   OH229352   4.135   4.861  16.696 -0.6407 -0.0163 -0.6512
 2646TIP3    H129353   4.120   4.804  16.771 -2.0329 -0.2739 -1.1007
 2646TIP3    H229354   4.227   4.848  16.673 -0.2834 -0.1739  0.7970
 2647TIP3   OH229355   6.774   3.412   5.714 -0.2281  0.4045 -0.2648
 2647TIP3    H129356   6.741   3.414   5.624  1.2343  0.8942 -0.8267
 2647TIP3    H229357   6.870   3.417   5.704 -0.0032 -0.2979  1.2913
 2648TIP3   OH229358   4.905   3.118   1.380  0.5245  0.5897  0.1697
 2648TIP3    H129359   4.876   3.057   1.312  0.1765  0.3367  0.5439
 2648TIP3    H229360   4.891   3.205   1.341  1.6705  0.4340 -0.6308
 2649TIP3   OH229361   2.832   2.318  15.625  0.3291 -0.2221 -0.6127
 2649TIP3    H129362   2.826   2.413  15.624  1.6926 -0.1013  0.5352
 2649TIP3    H229363   2.919   2.299  15.658  0.3498 -1.8806 -1.4998
 2650TIP3   OH229364   1.620   3.184  10.730 -0.8039 -0.5224  0.1667
 2650TIP3    H129365   1.618   3.156  10.639 -0.1223 -0.1217  0.0258
 2650TIP3    H229366   1.670   3.116  10.776  1.5294  0.7679 -0.3082
 2651TIP3   OH229367   1.696   2.552   4.349 -0.2214 -0.4575 -0.1905
 2651TIP3    H129368   1.633   2.547   4.277 -1.5638  0.0768  0.9122
 2651TIP3    H229369   1.773   2.594   4.311 -1.3965  1.0591 -0.9926
 2652TIP3   OH229370   3.863   2.114   5.224 -0.0206  0.0253  0.1721
 2652TIP3    H129371   3.773   2.104   5.254 -0.1297  0.7922  0.1099
 2652TIP3    H229372   3.916   2.100   5.303 -0.3147  2.3759  0.8639
 2653TIP3   OH229373   6.018   1.442  15.778 -0.4246 -0.1825  0.1338
 2653TIP3    H129374   5.962   1.477  15.708 -1.1793  0.5341  1.0579
 2653TIP3    H229375   6.107   1.450  15.745 -0.8472 -1.2736 -1.3523
 2654TIP3   OH229376   1.085   0.166  13.557  0.5383 -0.2358  0.1360
 2654TIP3    H129377   1.044   0.146  13.473  1.9138 -0.4456 -0.5162
 2654TIP3    H229378   1.077   0.086  13.608  2.1434 -1.0857 -0.8496
 2655TIP3   OH229379   4.884   0.946   2.625  0.2376 -0.3074  0.7948
 2655TIP3    H129380   4.884   0.864   2.674  0.1972 -0.6788  0.1865
 2655TIP3    H229381   4.958   0.938   2.565  0.2312  0.1017  0.7296
 2656TIP3   OH229382   5.229   4.690  10.995  0.1670  0.2151 -0.7394
 2656TIP3    H129383   5.144   4.694  10.950  0.7708 -0.2978 -1.9628
 2656TIP3    H229384   5.285   4.639  10.937  1.3479  0.6145  0.0079
 2657TIP3   OH229385   3.489   0.137   3.636  0.0699  0.0137 -1.0725
 2657TIP3    H129386   3.399   0.148   3.606 -0.1654  0.4020 -0.2605
 2657TIP3    H229387   3.542   0.182   3.570 -0.5459  2.1384 -0.2203
 2658TIP3   OH229388   5.143   2.535  15.216  0.5522  0.0700  0.0840
 2658TIP3    H129389   5.060   2.569  15.249  0.9857  0.3916  0.8731
 2658TIP3    H229390   5.183   2.492  15.292  1.4205  0.5393 -0.0910
 2659TIP3   OH229391   6.683   6.624   0.897  0.1073 -0.2073 -0.2618
 2659TIP3    H129392   6.616   6.652   0.959 -0.0389  1.1040 -0.9721
 2659TIP3    H229393   6.639   6.560   0.841 -0.0239 -0.6995  0.3956
 2660TIP3   OH229394   4.568   2.167  12.159 -0.5682 -0.3372 -0.3511
 2660TIP3    H129395   4.565   2.169  12.254  0.1967  3.0973 -0.2568
 2660TIP3    H229396   4.589   2.077  12.137 -0.6231 -1.1985  2.7199
 2661TIP3   OH229397   5.019   0.767   3.215  0.1655  0.3573  0.6438
 2661TIP3    H129398   5.108   0.773   3.249  0.6689  0.3135 -0.6147
 2661TIP3    H229399   5.030   0.756   3.121 -1.1795  1.8177  0.2707
 2662TIP3   OH229400   0.933   3.239   5.473 -0.4440 -0.1043  0.3158
 2662TIP3    H129401   0.974   3.156   5.495  1.3406  0.7497  0.4044
 2662TIP3    H229402   0.954   3.297   5.546 -0.7791  0.6989 -0.2046
 2663TIP3   OH229403   3.404   4.821  16.903  0.2548  0.7490  0.7511
 2663TIP3    H129404   3.315   4.857  16.905  0.2079  0.6152  1.0424
 2663TIP3    H229405   3.457   4.892  16.866 -0.2013  0.3344 -0.7479
 2664TIP3   OH229406   2.195   5.675   3.366  0.0946  0.9519  0.6426
 2664TIP3    H129407   2.215   5.748   3.426  0.2242  2.3248 -0.9994
 2664TIP3    H229408   2.191   5.716   3.280 -3.1591 -0.3791  0.0000
 2665TIP3   OH229409   3.520   6.485  11.331 -0.7069 -0.2412 -0.0293
 2665TIP3    H129410   3.525   6.504  11.237 -1.0819 -1.1652 -0.2495
 2665TIP3    H229411   3.456   6.413  11.338 -0.5431 -0.3150  0.9104
 2666TIP3   OH229412   0.674   3.943  11.796  0.0089 -0.2770  0.0636
 2666TIP3    H129413   0.688   4.020  11.741  1.4073 -0.5970 -0.0726
 2666TIP3    H229414   0.651   3.873  11.734  0.6610 -0.4184 -0.0229
 2667TIP3   OH229415   4.422   6.297  11.588  0.0833  0.3753 -0.0367
 2667TIP3    H129416   4.412   6.367  11.523  1.7370 -0.7553 -1.6155
 2667TIP3    H229417   4.515   6.274  11.584 -0.2899 -1.4695  0.9114
 2668TIP3   OH229418   3.378   5.438   2.703 -0.0263  0.1295  0.4431
 2668TIP3    H129419   3.332   5.477   2.628  0.9895 -1.2595 -0.9618
 2668TIP3    H229420   3.470   5.435   2.675  0.6921  1.2574  2.5014
 2669TIP3   OH229421   4.666   2.410   5.853 -0.2806 -0.2982  0.0869
 2669TIP3    H129422   4.596   2.364   5.807 -0.0690 -0.0758 -0.4695
 2669TIP3    H229423   4.620   2.475   5.907 -0.5560 -0.8814  0.5780
 2670TIP3   OH229424   4.573   1.187   4.878 -0.3897 -0.6912  0.1730
 2670TIP3    H129425   4.639   1.157   4.815 -1.1772  0.6676 -1.3886
 2670TIP3    H229426   4.605   1.156   4.963  2.5021  0.2631 -0.4380
 2671TIP3   OH229427   2.612   6.568  13.606 -0.1529  0.0599  0.0593
 2671TIP3    H129428   2.656   6.489  13.637 -0.4560  0.4550  1.5843
 2671TIP3    H229429   2.519   6.545  13.602 -0.1925  0.2102  0.0871
 2672TIP3   OH229430   2.039   4.548   2.693  0.0283 -0.1577  0.4884
 2672TIP3    H129431   2.104   4.491   2.652 -0.3489 -0.1925 -0.0614
 2672TIP3    H229432   2.075   4.636   2.684 -0.8496  0.0360 -1.4806
 2673TIP3   OH229433   5.996   6.636   2.406  0.2477  0.5783 -0.1390
 2673TIP3    H129434   5.989   6.587   2.324  1.1743 -0.3203  0.2985
 2673TIP3    H229435   6.086   6.623   2.434  0.2015  1.6577  0.5544
 2674TIP3   OH229436   3.934   4.172   4.526  0.4708 -0.9550  0.2384
 2674TIP3    H129437   3.912   4.255   4.484  2.2033  0.4269  1.8937
 2674TIP3    H229438   3.865   4.159   4.591 -0.7029 -1.7036 -1.1040
 2675TIP3   OH229439   6.432   1.542   5.688 -0.1994 -0.1184  0.2895
 2675TIP3    H129440   6.420   1.637   5.685  1.8111  0.2200  0.9835
 2675TIP3    H229441   6.464   1.526   5.777 -1.7860 -1.6415  0.6172
 2676TIP3   OH229442   5.458   5.683   3.541  0.1061 -0.2420 -0.2530
 2676TIP3    H129443   5.532   5.625   3.561  1.0609  0.4018 -1.7216
 2676TIP3    H229444   5.496   5.752   3.488 -1.6928 -0.3033 -1.7270
 2677TIP3   OH229445   0.278   2.728  10.766  0.0348  0.0681  0.5097
 2677TIP3    H129446   0.301   2.792  10.699  0.0664  0.6573  1.0654
 2677TIP3    H229447   0.344   2.741  10.835  1.2553 -1.9473 -0.2255
 2678TIP3   OH229448   1.497   2.585  10.907  0.3067 -0.5460  0.0379
 2678TIP3    H129449   1.413   2.566  10.865 -0.1009  1.5641 -0.2216
 2678TIP3    H229450   1.476   2.593  11.000 -0.1761  1.7662 -0.2277
 2679TIP3   OH229451   2.370   3.401   5.431 -0.2473  0.0758 -0.1394
 2679TIP3    H129452   2.451   3.352   5.443  0.2647  1.1712  1.2608
 2679TIP3    H229453   2.399   3.486   5.397 -0.6058  0.9826  1.6806
 2680TIP3   OH229454   5.862   6.090  12.975  0.1575 -0.0934 -0.0552
 2680TIP3    H129455   5.892   6.098  12.884 -0.3076 -0.0343 -0.2056
 2680TIP3    H229456   5.858   6.180  13.007  2.5812 -0.2220  0.7840
 2681TIP3   OH229457   3.707   2.294   4.335 -0.5166 -0.6652 -0.3285
 2681TIP3    H129458   3.716   2.364   4.271 -1.0271 -0.8242 -0.5791
 2681TIP3    H229459   3.797   2.272   4.360 -0.3495 -0.0291 -0.3599
 2682TIP3   OH229460   3.061   4.207  13.525  0.1513  0.1962 -0.1724
 2682TIP3    H129461   3.117   4.233  13.451  2.4247 -0.0819  1.3742
 2682TIP3    H229462   3.101   4.249  13.601 -0.5535 -1.6542  1.2868
 2683TIP3   OH229463   2.094   2.222   1.290  0.0344 -0.2278 -0.1526
 2683TIP3    H129464   2.104   2.282   1.364 -4.0748 -0.1140  0.5375
 2683TIP3    H229465   2.120   2.137   1.324 -1.1162 -0.0482  1.2596
 2684TIP3   OH229466   4.805   4.157  13.614 -0.4236 -0.4777 -0.5268
 2684TIP3    H129467   4.887   4.106  13.615  0.0094  0.2102 -0.4781
 2684TIP3    H229468   4.833   4.247  13.597 -0.9335  0.1839  1.7604
 2685TIP3   OH229469   0.239   5.033   4.826 -0.4836  0.6966  0.4167
 2685TIP3    H129470   0.200   5.074   4.903 -0.4917  2.0396 -0.2781
 2685TIP3    H229471   0.308   4.977   4.861 -0.4782  1.3027  1.4036
 2686TIP3   OH229472   0.122   1.266   1.283 -0.0371 -0.2111 -0.1025
 2686TIP3    H129473   0.118   1.359   1.306 -0.6738 -0.7441  2.1625
 2686TIP3    H229474   0.195   1.260   1.221  0.0899  1.7805 -0.2031
 2687TIP3   OH229475   1.221   0.912   0.815  0.6574  0.3368 -0.4196
 2687TIP3    H129476   1.147   0.898   0.756 -1.0453 -0.2014  1.7396
 2687TIP3    H229477   1.244   0.825   0.847 -1.2011  0.8579  2.7858
 2688TIP3   OH229478   4.861   0.654  11.298  0.0507  0.1344  0.1025
 2688TIP3    H129479   4.881   0.578  11.244  1.8980  0.2463  0.5781
 2688TIP3    H229480   4.836   0.618  11.383  1.3650  0.0417  0.4676
 2689TIP3   OH229481   5.994   1.956   4.007 -0.0934  0.1214 -0.6043
 2689TIP3    H129482   5.940   2.015   4.060 -2.4849 -2.6087  0.2971
 2689TIP3    H229483   5.941   1.939   3.929  1.3774  0.5631 -1.7294
 2690TIP3   OH229484   4.658   1.580  12.265  0.5833  0.1759  0.3749
 2690TIP3    H129485   4.690   1.568  12.175  1.2887 -0.4690  0.6954
 2690TIP3    H229486   4.651   1.491  12.299 -0.9122  0.3454  0.5607
 2691TIP3   OH229487   1.861   2.202  15.361  0.2218 -0.0926  0.0149
 2691TIP3    H129488   1.769   2.180  15.346 -0.0233  1.0424 -0.2707
 2691TIP3    H229489   1.891   2.139  15.427 -1.9175  1.9300  3.2239
 2692TIP3   OH229490   1.824   5.192   0.067  1.0488  0.4408 -0.0129
 2692TIP3    H129491   1.736   5.219   0.093  0.4402 -0.6627 -0.8513
 2692TIP3    H229492   1.830   5.217  -0.025  1.0628 -0.7501 -0.3553
 2693TIP3   OH229493   1.677   2.577   1.355 -0.6217 -0.2786 -0.0808
 2693TIP3    H129494   1.739   2.579   1.282 -0.4394 -1.1273  0.0389
 2693TIP3    H229495   1.635   2.491   1.349 -0.3041 -0.5361  1.0572
 2694TIP3   OH229496   3.919   3.989   2.617  0.4981 -0.5878 -0.3016
 2694TIP3    H129497   3.997   3.934   2.617  0.1592 -1.1339  1.3210
 2694TIP3    H229498   3.846   3.928   2.622  0.0550 -0.0358  0.1326
 2695TIP3   OH229499   5.739   6.603  16.115  0.1669  0.1298 -0.4346
 2695TIP3    H129500   5.662   6.610  16.172  1.1002 -0.9085  1.0279
 2695TIP3    H229501   5.709   6.637  16.031 -1.7144  0.3110  0.2438
 2696TIP3   OH229502   2.969   1.813   5.376 -0.0446  0.0407  0.0446
 2696TIP3    H129503   2.885   1.818   5.420 -0.4625  1.4985 -0.8544
 2696TIP3    H229504   3.005   1.728   5.402 -2.0867 -0.9323 -0.0949
 2697TIP3   OH229505   4.046   6.499   2.082  0.0145 -0.8039  0.6104
 2697TIP3    H129506   3.994   6.512   2.162  0.2142  0.3009  0.5758
 2697TIP3    H229507   3.985   6.518   2.011  0.3633  0.1773  0.5614
 2698TIP3   OH229508   2.919   1.399  12.401  0.0575 -0.4966  0.0028
 2698TIP3    H129509   2.878   1.357  12.476 -0.3786  0.1272  0.1234
 2698TIP3    H229510   2.848   1.451  12.361  0.7025  0.5207  0.1561
 2699TIP3   OH229511   3.722   5.591  10.824 -0.9593 -0.1143  0.0607
 2699TIP3    H129512   3.631   5.611  10.847 -0.7378  0.7570  0.2223
 2699TIP3    H229513   3.715   5.532  10.749 -1.6718 -1.6973  1.3159
 2700TIP3   OH229514   0.621   1.475  14.349 -0.4106  0.4625  0.2708
 2700TIP3    H129515   0.596   1.543  14.411 -0.6203  0.1741  0.5049
 2700TIP3    H229516   0.586   1.394  14.386  1.7204 -0.1250  1.1166
 2701TIP3   OH229517   5.158   3.395   2.464 -0.3667  0.3463 -0.8750
 2701TIP3    H129518   5.076   3.400   2.514  0.3856 -0.0176  0.4239
 2701TIP3    H229519   5.203   3.319   2.499  1.7569  2.0663  0.3647
 2702TIP3   OH229520   3.865   1.754  15.810  0.1738  0.1197  0.4286
 2702TIP3    H129521   3.930   1.690  15.780  0.0801  0.0019  0.4774
 2702TIP3    H229522   3.871   1.825  15.746 -1.6816 -1.1579 -1.2860
 2703TIP3   OH229523   6.664   3.852   1.791  0.1352 -0.3309 -0.5885
 2703TIP3    H129524   6.684   3.866   1.884  0.8597 -1.7049 -0.5085
 2703TIP3    H229525   6.695   3.931   1.747 -1.0148  0.7203  0.4294
 2704TIP3   OH229526   0.461   2.828  16.208  0.7097 -0.3006  0.0428
 2704TIP3    H129527   0.545   2.786  16.187  0.0307 -1.9176  0.4494
 2704TIP3    H229528   0.460   2.832  16.303  0.6895  0.5317  0.0148
 2705TIP3   OH229529   0.178   2.505  13.546 -0.6560 -0.6651  0.0981
 2705TIP3    H129530   0.243   2.533  13.610 -3.2066  0.5526  2.3660
 2705TIP3    H229531   0.164   2.582  13.491  0.5583 -1.2905 -1.1516
 2706TIP3   OH229532   0.302   1.689   6.271  0.0924  0.2605 -0.0298
 2706TIP3    H129533   0.388   1.672   6.310 -0.9950  0.3699  2.5981
 2706TIP3    H229534   0.248   1.717   6.344 -2.8348 -1.9798 -1.1362
 2707TIP3   OH229535   0.078   2.225   1.262 -0.1350  0.6758  0.4605
 2707TIP3    H129536   0.097   2.131   1.263  1.1859  0.9155  0.0391
 2707TIP3    H229537   0.021   2.239   1.337 -1.2309 -0.6261 -0.0822
 2708TIP3   OH229538   5.483   4.009  16.125 -0.3371 -0.1980  0.3251
 2708TIP3    H129539   5.488   3.914  16.110 -0.7468 -0.1463 -0.1577
 2708TIP3    H229540   5.519   4.021  16.213 -2.1875 -1.0412  1.2466
 2709TIP3   OH229541   6.705   3.862  11.506 -0.6410 -0.0682  1.0480
 2709TIP3    H129542   6.784   3.814  11.531 -0.4221 -0.9054 -1.0330
 2709TIP3    H229543   6.698   3.849  11.412 -1.1827  3.1667  0.5274
 2710TIP3   OH229544   2.154   0.564   1.001  0.2893 -0.0585  0.2014
 2710TIP3    H129545   2.061   0.587   0.992  0.2204 -0.9303 -1.8820
 2710TIP3    H229546   2.190   0.574   0.912  2.4100  1.0469  1.1003
 2711TIP3   OH229547   4.074   1.946   2.169  0.1216 -0.0320  0.0754
 2711TIP3    H129548   4.009   1.972   2.234 -0.0479 -0.6824  0.1724
 2711TIP3    H229549   4.149   2.004   2.185 -1.4049  2.7055 -1.8338
 2712TIP3   OH229550   0.331   5.313  14.766 -0.6122 -0.0667 -0.1986
 2712TIP3    H129551   0.270   5.358  14.707  0.3329  1.8249  0.1869
 2712TIP3    H229552   0.275   5.257  14.820 -1.6035 -1.0181 -2.1157
 2713TIP3   OH229553   0.438   1.002  11.897  0.4601 -0.0197 -0.7541
 2713TIP3    H129554   0.528   1.031  11.912  0.6107 -0.3100 -1.0882
 2713TIP3    H229555   0.394   1.016  11.981  0.6335  0.7845 -0.7864
 2714TIP3   OH229556   4.568   6.155  12.814 -0.0262  0.0985  0.2678
 2714TIP3    H129557   4.477   6.160  12.783  0.1407  2.2547 -0.0827
 2714TIP3    H229558   4.609   6.091  12.757 -1.1971 -0.4946  0.0552
 2715TIP3   OH229559   4.871   4.965   6.487 -0.1953  0.0046 -0.3180
 2715TIP3    H129560   4.930   4.915   6.544 -0.2867 -0.2381 -0.4329
 2715TIP3    H229561   4.921   5.043   6.465  0.3686 -0.5245 -0.9771
 2716TIP3   OH229562   3.062   4.604  15.403  0.1363 -0.0896  0.0582
 2716TIP3    H129563   3.093   4.693  15.421 -1.4931  1.0751 -2.2474
 2716TIP3    H229564   3.015   4.578  15.481 -0.8431  1.8354  0.1709
 2717TIP3   OH229565   6.678   3.481   0.261  0.0025  0.1437  0.2622
 2717TIP3    H129566   6.706   3.548   0.323 -2.4838  2.0521 -0.5546
 2717TIP3    H229567   6.615   3.428   0.310 -1.6303  1.3841 -0.4324
 2718TIP3   OH229568   3.405   5.371   3.571  0.4838 -0.2742  0.3631
 2718TIP3    H129569   3.365   5.446   3.528  0.9689 -0.5300 -0.5521
 2718TIP3    H229570   3.477   5.346   3.513  0.8613 -0.9119  1.0944
 2719TIP3   OH229571   4.974   3.445   5.554 -0.1077  0.1382 -0.0187
 2719TIP3    H129572   5.060   3.478   5.527  0.4205 -0.4416  0.9294
 2719TIP3    H229573   4.973   3.354   5.526 -0.5186  0.2092 -0.2446
 2720TIP3   OH229574   3.206   5.022   3.658 -0.2940 -0.4132  0.2409
 2720TIP3    H129575   3.203   4.959   3.730 -0.1122 -0.3129  0.3362
 2720TIP3    H229576   3.218   5.107   3.700  2.8926 -0.6406 -0.0157
 2721TIP3   OH229577   5.387   2.416  13.436  0.4719  0.0794 -0.2017
 2721TIP3    H129578   5.467   2.466  13.448  0.1733  0.1843  1.7007
 2721TIP3    H229579   5.330   2.473  13.384  0.9555  0.7643  0.0098
 2722TIP3   OH229580   2.195   1.547  13.406  0.7907  0.0534 -0.1374
 2722TIP3    H129581   2.206   1.605  13.482  1.2967 -2.2879  1.6946
 2722TIP3    H229582   2.155   1.468  13.442  2.5910 -1.8009 -1.9924
 2723TIP3   OH229583   2.158   1.049   4.818 -0.0671  0.2902  0.1526
 2723TIP3    H129584   2.099   0.984   4.779 -2.0135  1.1848  1.3996
 2723TIP3    H229585   2.164   1.024   4.910 -0.2400  1.4206  0.4885
 2724TIP3   OH229586   2.711   0.001   3.944  0.1136  0.0601  0.3296
 2724TIP3    H129587   2.712   0.071   3.878  1.3141 -1.7394 -1.6644
 2724TIP3    H229588   2.784   0.022   4.002  1.8570 -0.6074 -1.5201
 2725TIP3   OH229589   0.697   1.336   0.809  0.0593  0.0224  0.3243
 2725TIP3    H129590   0.634   1.375   0.869 -1.1475 -1.1366 -0.1474
 2725TIP3    H229591   0.657   1.346   0.723  2.0861  2.3182 -0.4482
 2726TIP3   OH229592   4.830   6.669   6.475 -0.3113 -0.1830 -0.3963
 2726TIP3    H129593   4.810   6.626   6.392 -3.2206 -1.5790  0.8751
 2726TIP3    H229594   4.787   6.754   6.468 -0.5110 -0.2794 -0.3598
 2727TIP3   OH229595   0.595   6.662  15.933 -0.3932 -0.2434 -0.8586
 2727TIP3    H129596   0.648   6.648  16.011 -0.9302  1.2353 -0.1881
 2727TIP3    H229597   0.506   6.637  15.958 -0.5134 -0.0451 -1.0783
 2728TIP3   OH229598   1.576   1.280   3.534  0.2883  0.5701 -0.1172
 2728TIP3    H129599   1.648   1.216   3.535 -0.5913 -0.4270  0.8220
 2728TIP3    H229600   1.613   1.357   3.577  0.4877 -0.3039  1.3335
 2729TIP3   OH229601   3.708   4.753   2.114  0.8929 -0.0041 -0.2770
 2729TIP3    H129602   3.715   4.701   2.194  0.6327  2.5268  1.5255
 2729TIP3    H229603   3.793   4.796   2.105  0.7795  0.0573 -1.1279
 2730TIP3   OH229604   0.200   6.414   4.345 -0.0801  0.4868  0.5118
 2730TIP3    H129605   0.167   6.365   4.421 -1.5900  0.1656 -0.3068
 2730TIP3    H229606   0.267   6.357   4.308 -0.9792 -0.4449  0.2691
 2731TIP3   OH229607   0.833   5.944   3.053  0.1148  0.6964 -0.0814
 2731TIP3    H129608   0.874   5.976   3.134 -0.1458  0.6834  0.0554
 2731TIP3    H229609   0.759   5.892   3.083  0.8966 -0.5608 -0.2789
 2732TIP3   OH229610   5.457   1.686  12.663 -0.4733 -0.4287  0.0391
 2732TIP3    H129611   5.443   1.704  12.570  0.4444  0.6032  0.0671
 2732TIP3    H229612   5.551   1.701  12.676 -0.6573 -0.1610  1.2097
 2733TIP3   OH229613   6.603   3.505   3.310 -0.3560 -0.0186  0.7936
 2733TIP3    H129614   6.640   3.428   3.268 -0.1293 -0.4082  1.6935
 2733TIP3    H229615   6.673   3.570   3.308 -0.5534  0.1832  0.0198
 2734TIP3   OH229616   3.425   2.764   2.001  0.7306  0.3455 -0.0350
 2734TIP3    H129617   3.510   2.733   1.971 -0.2909 -3.6988  0.7594
 2734TIP3    H229618   3.437   2.783   2.094  0.9770  0.9078 -0.1736
 2735TIP3   OH229619   2.062   2.664  16.343 -0.0951  0.3429  1.0323
 2735TIP3    H129620   2.118   2.617  16.281 -0.2072  1.1266  0.3191
 2735TIP3    H229621   2.012   2.725  16.288 -1.1474  0.1345  1.7430
 2736TIP3   OH229622   5.779   3.367  11.462  0.5899 -0.1788 -0.2549
 2736TIP3    H129623   5.822   3.336  11.541 -1.7641 -0.4955  1.0012
 2736TIP3    H229624   5.787   3.295  11.400  1.5464 -0.3368  0.0308
 2737TIP3   OH229625   3.823   3.133  13.492 -0.0775  0.4330  0.0977
 2737TIP3    H129626   3.879   3.142  13.569 -0.3625  0.3747  0.3121
 2737TIP3    H229627   3.875   3.169  13.420  2.2302 -3.7846 -0.6993
 2738TIP3   OH229628   2.675   2.099   2.972 -0.0133  0.1017 -0.4016
 2738TIP3    H129629   2.641   2.046   3.044 -0.3192  0.5975 -0.1766
 2738TIP3    H229630   2.686   2.037   2.900 -0.3723 -0.2688 -0.1451
 2739TIP3   OH229631   1.245   4.792   0.486 -0.1571 -0.0337 -0.0849
 2739TIP3    H129632   1.266   4.747   0.404  1.0515  1.5264 -0.6798
 2739TIP3    H229633   1.150   4.796   0.488 -0.2172 -0.8199 -1.0034
 2740TIP3   OH229634   2.657   1.983   3.224 -0.5692  0.2188 -0.0114
 2740TIP3    H129635   2.706   2.060   3.255 -1.4315  0.6583  0.2964
 2740TIP3    H229636   2.725   1.923   3.193  0.1347  1.0236 -0.0838
 2741TIP3   OH229637   4.680   3.379  16.165 -0.1168  0.0061  0.2252
 2741TIP3    H129638   4.668   3.465  16.125 -1.4258  0.6983  1.9733
 2741TIP3    H229639   4.594   3.337  16.157  0.1231 -0.5735  0.6085
 2742TIP3   OH229640   5.965   6.332   1.767  0.3481 -1.0280  0.4824
 2742TIP3    H129641   5.983   6.329   1.861  0.2797 -1.0685  0.4946
 2742TIP3    H229642   6.032   6.390   1.731  1.1291 -1.9725  0.3760
 2743TIP3   OH229643   3.601   2.225   1.844 -0.1294  0.7967 -0.2285
 2743TIP3    H129644   3.579   2.180   1.762 -1.4363  1.2581 -0.1600
 2743TIP3    H229645   3.696   2.234   1.842 -0.1295  0.7267 -1.6599
 2744TIP3   OH229646   1.659   5.118  16.578 -0.2104  0.2630  0.2925
 2744TIP3    H129647   1.685   5.095  16.489  1.7874  0.8664  0.6628
 2744TIP3    H229648   1.582   5.174  16.567 -1.2879 -1.3761 -0.9032
 2745TIP3   OH229649   5.846   0.240   1.286 -0.3809  0.2375  0.4876
 2745TIP3    H129650   5.856   0.274   1.197  0.0040 -0.1402  0.3847
 2745TIP3    H229651   5.778   0.295   1.325 -0.0232  0.8935  0.2019
 2746TIP3   OH229652   0.776   4.611  12.693  0.2115 -0.2850  0.2473
 2746TIP3    H129653   0.777   4.705  12.677 -1.2360 -0.2546  0.1951
 2746TIP3    H229654   0.764   4.571  12.607 -1.5762 -0.3916  0.5187
 2747TIP3   OH229655   0.546   4.060   4.501 -0.4221 -0.1778  0.0138
 2747TIP3    H129656   0.628   4.034   4.461  0.0169 -0.7652  1.2341
 2747TIP3    H229657   0.479   4.038   4.436  0.3948  0.7302 -1.1785
 2748TIP3   OH229658   6.400   5.296  11.909  0.5516  0.1786  0.2588
 2748TIP3    H129659   6.315   5.253  11.907  1.5405 -2.1846  2.4711
 2748TIP3    H229660   6.389   5.376  11.857 -1.7044 -2.2292 -3.3818
 2749TIP3   OH229661   5.919   4.909  13.674  0.0282  0.2038  0.8400
 2749TIP3    H129662   5.851   4.976  13.683 -0.2523  0.0039  0.3070
 2749TIP3    H229663   5.992   4.941  13.727  0.1670  1.2795  0.0344
 2750TIP3   OH229664   4.750   5.814  14.110 -0.2546 -0.5128 -0.4291
 2750TIP3    H129665   4.686   5.870  14.155  0.4606 -0.1961  0.2183
 2750TIP3    H229666   4.761   5.855  14.024  0.4296  0.5088  0.1163
 2751TIP3   OH229667   5.764   0.165   1.712  0.0546 -0.6159 -0.3066
 2751TIP3    H129668   5.819   0.095   1.677  3.4190  1.1532  1.0830
 2751TIP3    H229669   5.765   0.150   1.807 -0.9334  0.1616 -0.1597
 2752TIP3   OH229670   1.280   5.108   0.732 -0.2390 -0.1362  0.2048
 2752TIP3    H129671   1.284   5.151   0.646 -1.0913  0.8846  0.6612
 2752TIP3    H229672   1.359   5.054   0.735 -0.3876 -0.4930 -1.3760
 2753TIP3   OH229673   3.222   3.520   6.394  0.1096  0.1149  0.2868
 2753TIP3    H129674   3.234   3.554   6.306 -0.4769 -0.7514 -0.1547
 2753TIP3    H229675   3.306   3.482   6.418  0.0981 -0.2119 -0.1724
 2754TIP3   OH229676   1.244   0.005   5.034  0.2226 -0.2533  0.0841
 2754TIP3    H129677   1.202   0.007   5.120  0.8965 -0.1206  0.4158
 2754TIP3    H229678   1.190  -0.055   4.983  0.2643 -0.9570  0.8397
 2755TIP3   OH229679   6.676   1.738  16.845  0.0112 -0.4852  0.0955
 2755TIP3    H129680   6.754   1.793  16.848 -0.6002  0.5616 -1.8574
 2755TIP3    H229681   6.609   1.790  16.889 -0.7832  0.8210 -2.4656
 2756TIP3   OH229682   0.883   1.549  15.349 -0.0975 -0.2972  0.1250
 2756TIP3    H129683   0.971   1.576  15.378  0.4158 -1.9969  0.2249
 2756TIP3    H229684   0.891   1.456  15.330 -2.1970 -0.8265  1.4257
 2757TIP3   OH229685   5.396   6.436  15.043 -0.0297 -0.5284 -0.7517
 2757TIP3    H129686   5.317   6.487  15.061  1.8366  2.6927 -0.7798
 2757TIP3    H229687   5.451   6.449  15.121  1.5114 -0.3250 -1.8155
 2758TIP3   OH229688   2.534   2.176  13.799  0.4476 -0.0849  0.2302
 2758TIP3    H129689   2.516   2.260  13.842 -0.1528 -0.2293  0.2788
 2758TIP3    H229690   2.517   2.110  13.866  1.4979 -0.2261  0.3687
 2759TIP3   OH229691   6.451   4.622  16.327  0.7538  0.1251 -0.0388
 2759TIP3    H129692   6.529   4.664  16.365  1.5667 -2.6180  1.5750
 2759TIP3    H229693   6.427   4.555  16.390 -1.9011 -0.2928 -1.3730
 2760TIP3   OH229694   1.219   2.175   2.893  0.0703  0.0956  0.1023
 2760TIP3    H129695   1.223   2.261   2.934 -0.0329  1.5591 -2.7492
 2760TIP3    H229696   1.272   2.183   2.814 -0.5599 -2.2256 -0.6396
 2761TIP3   OH229697   5.474   0.931  12.787  0.6742  1.1229  0.1800
 2761TIP3    H129698   5.499   0.896  12.873 -1.4933  0.1662  0.4993
 2761TIP3    H229699   5.433   0.856  12.743 -1.5733  2.5175 -0.2295
 2762TIP3   OH229700   0.761   6.079   1.225  0.0717  0.5229 -0.3707
 2762TIP3    H129701   0.737   6.057   1.315 -2.7508  0.7934 -0.9595
 2762TIP3    H229702   0.750   6.173   1.219 -0.4842  0.4206 -1.1532
 2763TIP3   OH229703   6.743   1.572   5.530 -0.1328 -0.3422  0.5829
 2763TIP3    H129704   6.690   1.542   5.456  1.7839 -2.1201 -0.1748
 2763TIP3    H229705   6.773   1.659   5.504  0.0524 -0.7124 -0.5355
 2764TIP3   OH229706   3.808   5.116  15.039 -0.0564  0.1560 -0.3300
 2764TIP3    H129707   3.824   5.175  15.112 -0.1835 -0.3375  0.0989
 2764TIP3    H229708   3.768   5.172  14.972 -0.4100  0.5094  0.1656
 2765TIP3   OH229709   2.284   0.645   1.724  0.0270  0.3128  0.3871
 2765TIP3    H129710   2.333   0.706   1.779 -1.0485  1.0242  0.5939
 2765TIP3    H229711   2.259   0.697   1.648 -2.4492  0.7316  1.3872
 2766TIP3   OH229712   4.988   0.782   3.717  0.3998 -0.0794  0.0482
 2766TIP3    H129713   4.932   0.814   3.646 -0.3877 -0.8750  0.2894
 2766TIP3    H229714   4.928   0.763   3.789  0.8063 -2.0641 -0.0838
 2767TIP3   OH229715   2.720   1.886  11.283  0.1248  0.0191 -0.2803
 2767TIP3    H129716   2.753   1.888  11.193 -0.5131 -1.6207 -0.5808
 2767TIP3    H229717   2.799   1.896  11.337  1.0134 -2.2961 -1.0013
 2768TIP3   OH229718   0.886   0.035   1.357  0.0298  0.6170 -0.1987
 2768TIP3    H129719   0.925  -0.015   1.428  1.3878 -0.3074 -1.5348
 2768TIP3    H229720   0.912  -0.011   1.278  0.2824  2.7415 -1.4308
 2769TIP3   OH229721   1.391   0.961  13.761 -0.2403 -0.6073 -0.4986
 2769TIP3    H129722   1.346   0.964  13.677 -1.0593  0.9527 -0.0516
 2769TIP3    H229723   1.337   1.016  13.819  1.4218  0.0736  0.4694
 2770TIP3   OH229724   5.767   2.250   0.889 -0.1444  0.7964 -0.4774
 2770TIP3    H129725   5.691   2.208   0.929 -1.0505  1.3940 -1.4866
 2770TIP3    H229726   5.757   2.343   0.912  1.7116  0.5676  1.5520
 2771TIP3   OH229727   3.162   4.985  15.238 -0.0584  0.5847 -0.3775
 2771TIP3    H129728   3.135   4.962  15.327  0.7143 -1.6475 -0.6680
 2771TIP3    H229729   3.131   5.075  15.227 -0.2543  0.9007  2.0985
 2772TIP3   OH229730   3.249   3.991   4.455 -0.2188 -0.3111  0.1907
 2772TIP3    H129731   3.154   4.002   4.445 -0.5584 -1.6501  1.6732
 2772TIP3    H229732   3.265   3.899   4.434  0.8082 -0.0270 -0.3210
 2773TIP3   OH229733   6.341   1.803   1.713 -0.0281  0.1650 -0.0875
 2773TIP3    H129734   6.249   1.783   1.731 -0.0930  0.2519 -0.3111
 2773TIP3    H229735   6.337   1.877   1.652  0.1706 -0.5751 -1.0260
 2774TIP3   OH229736   3.370   6.172   0.147 -0.4768  0.2137  0.8073
 2774TIP3    H129737   3.397   6.103   0.086 -0.8275  0.4052  0.4331
 2774TIP3    H229738   3.415   6.151   0.228  0.5479  0.3343  0.2940
 2775TIP3   OH229739   3.974   4.064  15.380 -0.1033  0.3923 -0.0848
 2775TIP3    H129740   4.032   4.062  15.304  1.2020 -0.3428  0.8814
 2775TIP3    H229741   3.888   4.040  15.346  0.5906 -0.6036 -1.2103
 2776TIP3   OH229742   3.430   4.734  13.579 -0.1030  0.2162 -0.2766
 2776TIP3    H129743   3.476   4.814  13.604  2.3239 -0.4248 -2.2571
 2776TIP3    H229744   3.337   4.755  13.589  0.5001  2.7429  0.7104
 2777TIP3   OH229745   5.692   5.111  11.566 -0.1666  0.5553 -0.3593
 2777TIP3    H129746   5.641   5.181  11.525 -0.3835  1.2636  1.0701
 2777TIP3    H229747   5.627   5.057  11.611  0.2540  1.0571  0.8836
 2778TIP3   OH229748   4.130   6.761   5.947  0.0055  0.8599  0.2310
 2778TIP3    H129749   4.179   6.706   6.008  0.6386  1.4131  0.2280
 2778TIP3    H229750   4.145   6.850   5.978 -1.6310  1.0114  0.6975
 2779TIP3   OH229751   0.471   0.992   1.033  0.7120  1.0968  0.1619
 2779TIP3    H129752   0.430   0.963   0.951 -0.3720 -0.0889  1.0831
 2779TIP3    H229753   0.555   0.947   1.035  0.4777  0.6491  0.0001
 2780TIP3   OH229754   3.378   5.695   6.178 -0.7528 -0.2765  0.4332
 2780TIP3    H129755   3.427   5.688   6.259 -1.6157 -0.8932  0.9136
 2780TIP3    H229756   3.418   5.769   6.132  1.0023 -1.1041  0.5321
 2781TIP3   OH229757   5.548   6.594   5.756 -0.0725  0.0564 -0.2432
 2781TIP3    H129758   5.621   6.578   5.815  0.6739 -2.4370 -1.6853
 2781TIP3    H229759   5.471   6.561   5.803  0.5642 -2.2525 -0.7143
 2782TIP3   OH229760   3.262   4.263  13.333 -0.0822  0.3017  0.2358
 2782TIP3    H129761   3.274   4.304  13.248 -1.5186  0.5664  0.1417
 2782TIP3    H229762   3.322   4.189  13.333 -0.5236 -0.0822 -1.2626
 2783TIP3   OH229763   3.871   0.086   1.488 -0.7161 -0.6251 -0.8137
 2783TIP3    H129764   3.837   0.032   1.560  0.0991  0.2645  0.2588
 2783TIP3    H229765   3.794   0.103   1.433 -1.2283 -1.8462 -0.5135
 2784TIP3   OH229766   3.006   3.563   2.473  0.1450  0.2431  0.2483
 2784TIP3    H129767   3.089   3.566   2.424  0.5334  0.0292  0.8845
 2784TIP3    H229768   2.959   3.641   2.445  0.9254  0.8220  0.5227
 2785TIP3   OH229769   1.734   2.983   4.477  0.5632 -1.3083 -0.2428
 2785TIP3    H129770   1.790   3.039   4.423 -0.1715 -1.2906 -1.0162
 2785TIP3    H229771   1.761   3.001   4.567 -0.0148  0.7153 -0.4251
 2786TIP3   OH229772   3.452   6.788   2.449 -0.0517  0.7313 -0.4233
 2786TIP3    H129773   3.422   6.797   2.539 -1.3664 -1.3934 -0.6011
 2786TIP3    H229774   3.540   6.827   2.449 -0.4741  1.7806  1.4755
 2787TIP3   OH229775   4.703   2.814   3.809  0.3891  0.2882 -0.4423
 2787TIP3    H129776   4.614   2.843   3.829  0.6017 -1.3304  3.7593
 2787TIP3    H229777   4.755   2.895   3.809 -0.7531  1.0583 -1.1595
 2788TIP3   OH229778   5.439   6.676   3.267 -0.0984 -0.4010  0.1563
 2788TIP3    H129779   5.355   6.722   3.260  0.2789  0.0683 -1.9831
 2788TIP3    H229780   5.415   6.583   3.275 -0.8226 -0.2483 -0.1982
 2789TIP3   OH229781   3.086   5.798  10.797  0.1789 -0.3208  0.0109
 2789TIP3    H129782   3.126   5.748  10.726  0.7410 -0.0414  0.1226
 2789TIP3    H229783   3.029   5.860  10.753  1.0563  0.3261 -0.2584
 2790TIP3   OH229784   6.342   0.332   0.080  0.3615  0.0086  0.1085
 2790TIP3    H129785   6.391   0.278   0.142  0.4002  0.8909  0.8736
 2790TIP3    H229786   6.252   0.301   0.087  0.3872  0.0277  0.5312
 2791TIP3   OH229787   5.538   1.649   0.282 -0.0520  0.2500 -0.3936
 2791TIP3    H129788   5.528   1.669   0.189 -1.4400 -0.0314 -0.3155
 2791TIP3    H229789   5.494   1.721   0.328 -1.1127 -0.6129 -0.0147
 2792TIP3   OH229790   0.818   0.855  15.267  0.1119 -0.0624 -0.2424
 2792TIP3    H129791   0.798   0.780  15.323  0.0086 -0.2637 -0.5456
 2792TIP3    H229792   0.737   0.905  15.263  0.0703 -0.1372 -0.3458
 2793TIP3   OH229793   1.907   4.798   3.560  1.3646 -0.5124 -0.4702
 2793TIP3    H129794   1.849   4.728   3.592  1.1171 -0.0348  0.1477
 2793TIP3    H229795   1.948   4.833   3.640 -0.8479  2.1207 -0.3484
 2794TIP3   OH229796   5.047   0.714  13.965  0.1684 -0.6704  0.4445
 2794TIP3    H129797   5.035   0.705  14.060  0.0312  0.6543  0.5760
 2794TIP3    H229798   4.959   0.726  13.931  0.1266 -2.0015  0.0144
 2795TIP3   OH229799   3.010   2.603   3.417 -0.0749  0.1091  0.0108
 2795TIP3    H129800   3.082   2.649   3.374  0.2610 -0.3751  0.0462
 2795TIP3    H229801   2.974   2.545   3.350  0.5890 -0.8051  0.4305
 2796TIP3   OH229802   1.042   3.929   0.527  0.1054  0.2835 -0.0133
 2796TIP3    H129803   1.103   3.999   0.503  0.4325 -0.0417 -0.1365
 2796TIP3    H229804   1.071   3.900   0.614 -2.2283  2.7638  1.7515
 2797TIP3   OH229805   6.377   2.503   5.532  0.2037  0.0284  0.0981
 2797TIP3    H129806   6.299   2.481   5.481  1.0783  0.5316 -1.5277
 2797TIP3    H229807   6.396   2.424   5.583  0.8234 -1.5212 -2.3881
 2798TIP3   OH229808   0.700   4.527   4.480 -0.5820  0.2986 -0.1823
 2798TIP3    H129809   0.696   4.456   4.416 -0.6950  1.3068 -1.3199
 2798TIP3    H229810   0.784   4.570   4.462 -1.3955  1.6604 -0.8449
 2799TIP3   OH229811   2.604   4.253  16.235 -0.0249  0.0798  0.6749
 2799TIP3    H129812   2.622   4.188  16.302 -0.6592  0.6562  1.4140
 2799TIP3    H229813   2.560   4.205  16.165  1.2015 -0.6501  0.3675
 2800TIP3   OH229814   5.282   1.428   5.722  0.0262  0.4747 -0.6522
 2800TIP3    H129815   5.234   1.403   5.644 -2.2013  2.8300 -0.1723
 2800TIP3    H229816   5.370   1.449   5.691  0.2219 -1.8953 -1.9057
 2801TIP3   OH229817   4.444   2.216  14.142  0.1973 -0.6264  0.3025
 2801TIP3    H129818   4.491   2.138  14.111  1.4011  0.1389  0.1223
 2801TIP3    H229819   4.418   2.194  14.232  0.6872 -1.1735  0.3199
 2802TIP3   OH229820   0.500   3.879   4.087 -0.0796  0.0536  0.0865
 2802TIP3    H129821   0.447   3.951   4.120  0.2578  0.7164 -0.7793
 2802TIP3    H229822   0.439   3.826   4.035 -0.3737 -0.4042  0.8952
 2803TIP3   OH229823   5.209   3.123  14.185  0.0309 -0.1859 -0.0994
 2803TIP3    H129824   5.206   3.200  14.128 -2.6316 -0.2570 -0.1711
 2803TIP3    H229825   5.118   3.096  14.193  0.6132 -1.7130  2.1616
 2804TIP3   OH229826   4.131   2.018  12.561 -0.6207 -0.2064  0.2788
 2804TIP3    H129827   4.116   2.038  12.469  0.6867 -2.0082 -0.3736
 2804TIP3    H229828   4.044   1.997  12.596 -1.2142  1.0809 -0.3617
 2805TIP3   OH229829   4.275   4.955  15.127  0.2046  0.3978  0.3232
 2805TIP3    H129830   4.295   5.033  15.075 -0.9286  0.4532 -0.0570
 2805TIP3    H229831   4.265   4.885  15.062 -1.4596  0.5179  0.3971
 2806TIP3   OH229832   5.240   2.056   3.259  0.2902  0.2453  0.6135
 2806TIP3    H129833   5.146   2.069   3.267  0.1475 -1.6322  2.6058
 2806TIP3    H229834   5.269   2.130   3.204 -2.2757  0.9228  0.0257
 2807TIP3   OH229835   4.694   0.677   1.316 -0.5846 -0.1707  0.0319
 2807TIP3    H129836   4.679   0.605   1.255 -1.3450  0.0830 -0.0900
 2807TIP3    H229837   4.672   0.756   1.266  0.3597  0.1646  0.1236
 2808TIP3   OH229838   4.588   1.376  16.739 -0.0198  0.4470 -0.2231
 2808TIP3    H129839   4.512   1.322  16.761  0.1276  0.3352  0.0255
 2808TIP3    H229840   4.569   1.412  16.653  0.4451 -1.0126 -0.9603
 2809TIP3   OH229841   6.553   4.174  14.257 -0.2955 -0.3414  0.3240
 2809TIP3    H129842   6.480   4.193  14.316 -0.4515 -1.2522  0.4428
 2809TIP3    H229843   6.584   4.088  14.284 -0.0456 -0.5598 -0.6055
 2810TIP3   OH229844   2.298   5.224  15.334 -0.1697 -0.1891  0.2578
 2810TIP3    H129845   2.283   5.291  15.267  2.1838 -0.8796 -1.0538
 2810TIP3    H229846   2.382   5.246  15.373  1.9695 -3.6182 -1.9538
 2811TIP3   OH229847   5.103   5.095   2.754  0.0404 -0.1079  0.6459
 2811TIP3    H129848   5.148   5.112   2.672 -0.5430 -0.8754  0.1429
 2811TIP3    H229849   5.025   5.045   2.729  0.3700 -1.2433  1.7558
 2812TIP3   OH229850   4.884   6.004   0.271  0.7619 -0.0555 -0.5487
 2812TIP3    H129851   4.829   5.937   0.312 -1.6269  0.5378 -2.5520
 2812TIP3    H229852   4.863   6.084   0.318 -0.3535  0.2205 -1.4803
 2813TIP3   OH229853   2.502   2.632  14.818 -0.1564  0.0625 -0.2335
 2813TIP3    H129854   2.420   2.592  14.847  1.0227 -2.2572  0.1236
 2813TIP3    H229855   2.474   2.708  14.767 -2.5470 -0.9584 -0.6196
 2814TIP3   OH229856   4.430   5.799  12.365 -0.2440 -0.6662  0.3203
 2814TIP3    H129857   4.387   5.881  12.389 -0.8453 -1.0646  0.6361
 2814TIP3    H229858   4.360   5.746  12.328  0.3045 -0.7458 -0.6296
 2815TIP3   OH229859   1.328   2.447  11.584  0.0772 -0.9044 -0.5202
 2815TIP3    H129860   1.417   2.460  11.616  0.7554 -1.5189 -2.0803
 2815TIP3    H229861   1.294   2.536  11.574  0.2219 -0.6732  0.7632
 2816TIP3   OH229862   5.883   3.059  16.975  0.3202  0.1338 -0.5924
 2816TIP3    H129863   5.836   2.985  16.936 -0.6150  1.0256 -1.2299
 2816TIP3    H229864   5.916   3.109  16.900 -2.2425  2.3469 -0.3970
 2817TIP3   OH229865   4.378   2.003   2.698  0.3804  0.0295 -0.7031
 2817TIP3    H129866   4.419   2.076   2.651  1.3858 -0.2183 -0.2376
 2817TIP3    H229867   4.301   2.041   2.739  0.7285  0.7696 -0.7208
 2818TIP3   OH229868   4.783   6.389   1.652 -0.0862  0.2813 -0.7036
 2818TIP3    H129869   4.816   6.453   1.715 -0.1932  0.8523 -1.2323
 2818TIP3    H229870   4.763   6.312   1.706  1.1865  0.2556 -0.2400
 2819TIP3   OH229871   5.072   3.335  10.780 -0.5691 -0.1180 -0.3196
 2819TIP3    H129872   5.084   3.295  10.694 -1.1092  0.2861 -0.5884
 2819TIP3    H229873   5.129   3.285  10.838 -0.3070 -0.4826 -0.8861
 2820TIP3   OH229874   0.661   5.805   5.948 -0.3179 -0.5242 -0.0826
 2820TIP3    H129875   0.626   5.746   5.881 -0.3441 -0.2925 -0.2746
 2820TIP3    H229876   0.589   5.816   6.009 -0.7462  0.3018 -0.7105
 2821TIP3   OH229877   5.903   3.501  14.573 -0.0993  0.4566 -0.3382
 2821TIP3    H129878   5.968   3.433  14.554 -0.4601  0.4716 -1.6953
 2821TIP3    H229879   5.912   3.563  14.501 -0.1712  1.5646  0.5903
 2822TIP3   OH229880   4.417   4.337   5.155  0.0610 -0.0037 -0.0946
 2822TIP3    H129881   4.480   4.306   5.089  1.9786  2.3686  0.4614
 2822TIP3    H229882   4.331   4.321   5.115  0.9680 -2.5457 -1.2767
 2823TIP3   OH229883   6.046   2.312  12.135 -0.2948  0.2214 -0.2483
 2823TIP3    H129884   5.998   2.294  12.054  1.9469 -0.8357 -1.4158
 2823TIP3    H229885   6.012   2.397  12.164 -0.8537  0.8450 -2.5226
 2824TIP3   OH229886   2.172   4.175  12.650  0.5417 -0.4278  0.4281
 2824TIP3    H129887   2.181   4.268  12.671 -0.7716  0.0384 -0.8915
 2824TIP3    H229888   2.228   4.162  12.574 -1.4523  0.0056 -1.1866
 2825TIP3   OH229889   3.817   5.748  11.622 -0.1214  0.2327 -0.6016
 2825TIP3    H129890   3.863   5.719  11.544  0.2111 -0.4293 -0.1766
 2825TIP3    H229891   3.882   5.741  11.692 -0.4861  0.5701 -0.2194
 2826TIP3   OH229892   5.653   5.943  15.737  0.5556 -0.0940 -0.4069
 2826TIP3    H129893   5.587   5.974  15.800  0.2645  1.2941 -1.3443
 2826TIP3    H229894   5.733   5.933  15.789 -0.0540 -0.5130  0.4834
 2827TIP3   OH229895   0.896   6.421   3.324 -0.1606  0.4980  0.3619
 2827TIP3    H129896   0.941   6.388   3.245 -1.9251 -0.7728 -0.1844
 2827TIP3    H229897   0.896   6.516   3.313 -1.3366  0.3227 -1.7788
 2828TIP3   OH229898   4.344   4.591   4.973 -0.0843 -0.2282 -0.2958
 2828TIP3    H129899   4.382   4.514   4.930  0.6069  0.2829 -0.6258
 2828TIP3    H229900   4.250   4.576   4.971 -0.1894  0.3738 -3.1628
 2829TIP3   OH229901   6.035   6.745   0.571  0.0078  0.4298 -0.5691
 2829TIP3    H129902   5.983   6.664   0.578  0.3304  0.2547 -0.1988
 2829TIP3    H229903   5.977   6.806   0.525 -0.3834  0.1109 -0.5079
 2830TIP3   OH229904   0.313   6.729   3.978  0.0901  0.7510  0.1093
 2830TIP3    H129905   0.239   6.679   3.943  1.5316 -0.2032 -1.7316
 2830TIP3    H229906   0.298   6.731   4.073 -1.2862 -1.0611 -0.0211
 2831TIP3   OH229907   2.854   3.119  16.564  0.1249 -0.5041  0.7648
 2831TIP3    H129908   2.893   3.170  16.492 -1.6492  0.2665  0.2824
 2831TIP3    H229909   2.852   3.180  16.638 -1.2696 -0.1078  0.4195
 2832TIP3   OH229910   4.333   1.593  15.769  0.3601 -0.0902 -0.2003
 2832TIP3    H129911   4.367   1.660  15.711 -1.2457  2.2500  1.3793
 2832TIP3    H229912   4.381   1.513  15.745  1.1362  1.1755 -3.3121
 2833TIP3   OH229913   2.043   6.633  11.187  0.5280  0.1884  0.1760
 2833TIP3    H129914   1.977   6.657  11.252 -0.8617 -0.7651 -0.8049
 2833TIP3    H229915   2.073   6.546  11.214  0.5150  0.1234 -0.0133
 2834TIP3   OH229916   2.051   0.908   3.279 -0.0122  0.5565  0.8052
 2834TIP3    H129917   2.141   0.942   3.275 -0.0234  0.4503 -0.6325
 2834TIP3    H229918   2.034   0.873   3.192 -0.9631 -0.7186  1.4616
 2835TIP3   OH229919   1.535   0.453  11.041 -0.3427 -0.1950 -0.5489
 2835TIP3    H129920   1.572   0.372  11.077 -0.9235  0.2491  1.1466
 2835TIP3    H229921   1.446   0.429  11.016 -0.1971 -0.3138 -0.9544
 2836TIP3   OH229922   2.179   5.508   4.610 -0.6216  0.5603  0.4553
 2836TIP3    H129923   2.270   5.481   4.600 -1.0794 -1.2156  0.7286
 2836TIP3    H229924   2.166   5.574   4.542  0.6720  0.3414 -0.0364
 2837TIP3   OH229925   0.064   6.318  12.126  0.6141 -0.4584 -0.2446
 2837TIP3    H129926   0.087   6.338  12.035  0.2076  0.1746 -0.2103
 2837TIP3    H229927   0.082   6.224  12.135  3.6057  0.0077 -0.1121
 2838TIP3   OH229928   4.752   1.329  13.004 -0.4841 -0.7788  0.0173
 2838TIP3    H129929   4.766   1.383  12.925  1.0900 -2.4083 -0.8900
 2838TIP3    H229930   4.833   1.337  13.053 -0.5241 -1.7196  0.2451
 2839TIP3   OH229931   1.405   0.311   1.556 -0.6960 -0.8642 -0.5497
 2839TIP3    H129932   1.472   0.369   1.519 -0.9060 -0.6471 -0.5939
 2839TIP3    H229933   1.423   0.226   1.517 -1.1814 -0.5447 -1.5135
 2840TIP3   OH229934   4.242   2.264   5.182  0.0134 -0.1690 -0.1383
 2840TIP3    H129935   4.268   2.210   5.256  0.1317 -0.2334 -0.2250
 2840TIP3    H229936   4.185   2.331   5.219  0.1111 -0.1726  0.0182
 2841TIP3   OH229937   5.825   5.124  15.893 -0.5690 -0.8423 -0.0069
 2841TIP3    H129938   5.755   5.065  15.921 -2.2428  1.4537  0.9436
 2841TIP3    H229939   5.794   5.159  15.809  0.3440 -1.1894 -0.4998
 2842TIP3   OH229940   4.211   3.953   2.519  0.0136  0.2152  0.1046
 2842TIP3    H129941   4.294   3.940   2.474 -1.0726  0.2915 -2.0570
 2842TIP3    H229942   4.200   4.048   2.524 -1.2038  0.2793 -2.2755
 2843TIP3   OH229943   2.500   4.471  11.797 -0.2104  0.3152  0.2520
 2843TIP3    H129944   2.439   4.485  11.870 -0.2054  0.6498  0.1952
 2843TIP3    H229945   2.581   4.512  11.826 -0.3159  0.7702 -0.0904
 2844TIP3   OH229946   4.197   2.634  12.406  0.9118 -0.7098 -0.2164
 2844TIP3    H129947   4.168   2.545  12.385  1.5737 -0.4881 -2.2974
 2844TIP3    H229948   4.190   2.639  12.501 -3.2632 -1.5330 -0.2935
 2845TIP3   OH229949   5.861   3.868   6.145  0.3124 -0.3951  0.2345
 2845TIP3    H129950   5.872   3.949   6.195  2.0077 -0.3632 -0.1343
 2845TIP3    H229951   5.785   3.825   6.185 -1.0451  1.6472  0.0244
 2846TIP3   OH229952   4.383   1.016   4.966  0.0628  0.2220  0.3209
 2846TIP3    H129953   4.422   1.095   4.928  0.5912  0.3577  1.1194
 2846TIP3    H229954   4.410   0.945   4.907  2.2264  0.1942  1.2576
 2847TIP3   OH229955   4.074   4.624   5.034 -0.6894 -0.1809  0.1627
 2847TIP3    H129956   3.997   4.655   4.986  0.3886  2.2775 -0.0945
 2847TIP3    H229957   4.070   4.671   5.118  0.1959 -0.5230  0.4037
 2848TIP3   OH229958   1.593   5.197  11.937 -0.0699 -0.3272  0.1289
 2848TIP3    H129959   1.658   5.138  11.898  0.8045  0.0965  0.9105
 2848TIP3    H229960   1.617   5.201  12.030 -0.8287  0.3426  0.3065
 2849TIP3   OH229961   3.431   3.161  13.766  0.3505 -0.3869  0.6816
 2849TIP3    H129962   3.468   3.250  13.770  0.3675 -0.3525 -0.0857
 2849TIP3    H229963   3.352   3.170  13.713  0.8400 -0.9774 -0.1911
 2850TIP3   OH229964   0.550   1.645  17.003 -0.0144 -0.6328  0.0606
 2850TIP3    H129965   0.578   1.673  16.916  0.3082 -2.9571 -0.6493
 2850TIP3    H229966   0.472   1.591  16.987 -1.6932  1.2067  1.5176
 2851TIP3   OH229967   5.244   0.187   0.660 -0.9464 -0.1899 -0.3829
 2851TIP3    H129968   5.250   0.196   0.755  1.9458  0.2420 -0.5262
 2851TIP3    H229969   5.161   0.229   0.638 -2.0553 -0.9454  1.9818
 2852TIP3   OH229970   3.456   5.118   5.839 -0.6691  0.0383 -0.0128
 2852TIP3    H129971   3.414   5.145   5.921  0.6980 -2.8795  1.8454
 2852TIP3    H229972   3.390   5.067   5.794 -0.8141 -0.0575  0.3016
 2853TIP3   OH229973   2.424   2.859   1.462 -0.7360 -0.4464  0.4645
 2853TIP3    H129974   2.359   2.793   1.484 -0.9581 -0.4846 -0.2813
 2853TIP3    H229975   2.506   2.824   1.497 -0.9771 -0.7812  0.6968
 2854TIP3   OH229976   3.432   5.727   0.174 -0.4009 -0.1198 -0.1514
 2854TIP3    H129977   3.410   5.765   0.259 -0.0940 -0.7453  0.2123
 2854TIP3    H229978   3.524   5.702   0.182 -0.8819 -1.9569  0.0097
 2855TIP3   OH229979   1.431   0.350  12.927 -0.3360  0.0370 -0.2069
 2855TIP3    H129980   1.346   0.343  12.884  0.0757  1.4625 -1.3413
 2855TIP3    H229981   1.423   0.425  12.985 -0.3261 -0.8040  0.9227
 2856TIP3   OH229982   5.014   2.037   2.932 -0.4292 -0.4390 -0.5341
 2856TIP3    H129983   4.963   1.999   2.861  0.5997 -0.4869 -1.2788
 2856TIP3    H229984   5.073   2.099   2.888 -1.2104  1.1264  0.5158
 2857TIP3   OH229985   1.142   1.802  15.645 -0.1651  0.5313 -0.2972
 2857TIP3    H129986   1.163   1.890  15.616  0.4225 -0.1482 -2.0651
 2857TIP3    H229987   1.047   1.800  15.648 -0.1787  1.2814 -0.0376
 2858TIP3   OH229988   2.626   2.852   2.036  0.5197  0.1406 -0.1459
 2858TIP3    H129989   2.548   2.797   2.023  0.5993  0.3656 -1.8895
 2858TIP3    H229990   2.596   2.941   2.019  1.3311  0.1253 -1.9144
 2859TIP3   OH229991   5.688   4.178   2.343 -0.2728  0.3793  0.2232
 2859TIP3    H129992   5.592   4.179   2.336 -0.2189 -1.5458 -2.0439
 2859TIP3    H229993   5.715   4.262   2.305 -1.0294  0.8526  0.6905
 2860TIP3   OH229994   1.337   5.490   4.623  0.2729 -0.2826 -0.0673
 2860TIP3    H129995   1.301   5.481   4.711  0.6103  0.6664  0.1814
 2860TIP3    H229996   1.265   5.528   4.572  0.3552 -0.0106  0.0156
 2861TIP3   OH229997   3.314   1.394   5.456  0.0536 -0.1246 -0.1416
 2861TIP3    H129998   3.293   1.392   5.550  0.9119 -0.4709  0.0513
 2861TIP3    H229999   3.373   1.320   5.443 -0.8335 -0.6743 -1.1588
 2862TIP3   OH230000   0.189   6.456   0.360  0.0331  0.5095  0.3054
 2862TIP3    H130001   0.160   6.385   0.303  1.7141  0.0014  0.0069
 2862TIP3    H230002   0.234   6.412   0.432  2.1869  1.2140 -0.5052
 2863TIP3   OH230003   5.735   5.654  11.400  0.0501 -0.2141  0.7334
 2863TIP3    H130004   5.730   5.616  11.488  1.8653 -1.6292  0.2831
 2863TIP3    H230005   5.766   5.583  11.344 -3.2077 -0.0282 -1.5698
 2864TIP3   OH230006   0.940   5.980   5.333 -0.0660 -0.3428  0.2911
 2864TIP3    H130007   0.969   6.068   5.309  2.2570 -0.7269  1.4546
 2864TIP3    H230008   0.915   5.986   5.425 -0.1195 -0.8598  0.3155
 2865TIP3   OH230009   4.455   1.361   6.467 -0.0842 -0.0659  0.4599
 2865TIP3    H130010   4.499   1.277   6.457 -0.9892 -0.4706 -0.1933
 2865TIP3    H230011   4.381   1.344   6.525  0.3432  0.5250  1.2093
 2866TIP3   OH230012   4.433   1.903  15.122 -0.9239 -0.0332  0.3038
 2866TIP3    H130013   4.517   1.937  15.151 -1.2084  0.7628  0.2057
 2866TIP3    H230014   4.454   1.849  15.045 -0.3025 -1.2731  1.3093
 2867TIP3   OH230015   3.308   0.286   4.258  0.1063 -0.4103 -0.4677
 2867TIP3    H130016   3.238   0.229   4.290 -0.1844  0.0632 -0.2472
 2867TIP3    H230017   3.387   0.254   4.302 -0.2745  0.1724  0.6780
 2868TIP3   OH230018   1.951   6.058  11.150  0.1890  0.3081  0.4173
 2868TIP3    H130019   1.997   6.125  11.098  1.8435 -0.5669  0.6959
 2868TIP3    H230020   1.976   5.975  11.110  0.3740 -0.3033  1.7504
 2869TIP3   OH230021   3.585   6.254   0.405 -0.2180 -0.3967  0.2624
 2869TIP3    H130022   3.610   6.180   0.460 -0.4070 -0.0719  0.7875
 2869TIP3    H230023   3.667   6.280   0.361  0.0269 -0.3620  0.7386
 2870TIP3   OH230024   0.163   6.723  16.707  0.1865  0.0121  0.0241
 2870TIP3    H130025   0.100   6.668  16.754  1.4654 -1.8275 -0.2979
 2870TIP3    H230026   0.231   6.662  16.679  0.4018  1.3372 -2.6237
 2871TIP3   OH230027   3.956   5.980   5.323  0.1671  0.0232 -0.6085
 2871TIP3    H130028   3.983   6.072   5.317 -0.7235  0.4904  1.5705
 2871TIP3    H230029   3.862   5.981   5.307  0.3217 -0.7155 -1.7313
 2872TIP3   OH230030   3.222   0.974  16.191  0.7341 -0.2956  0.1770
 2872TIP3    H130031   3.311   0.968  16.157  0.6490 -0.3348 -0.0365
 2872TIP3    H230032   3.174   1.025  16.126  0.5222 -0.5453  0.1340
 2873TIP3   OH230033   5.103   0.820   5.361 -1.4225 -0.0694  0.0085
 2873TIP3    H130034   5.042   0.813   5.287 -0.0591  0.9179 -1.2822
 2873TIP3    H230035   5.175   0.762   5.338 -1.8931 -1.3259  1.5765
 2874TIP3   OH230036   4.509   6.706  12.305  0.3132  0.9289  0.3706
 2874TIP3    H130037   4.486   6.796  12.328  2.3406  1.3707  0.8450
 2874TIP3    H230038   4.530   6.710  12.212 -1.9421  0.3862 -0.2369
 2875TIP3   OH230039   2.530   5.570  12.957 -0.1427  0.1983  0.5244
 2875TIP3    H130040   2.469   5.638  12.985  0.0993  0.4054  0.5588
 2875TIP3    H230041   2.479   5.490  12.956 -0.4307  0.3829  0.4846
 2876TIP3   OH230042   2.208   0.954  12.509  0.7987  0.0994  0.0054
 2876TIP3    H130043   2.226   0.955  12.603 -2.9168  1.1154  0.8644
 2876TIP3    H230044   2.169   0.868  12.494  2.2231 -0.4202 -0.8519
 2877TIP3   OH230045   1.724   5.655   2.587  0.4426 -0.0641  0.2451
 2877TIP3    H130046   1.773   5.698   2.657 -0.4579 -1.1421  1.5906
 2877TIP3    H230047   1.635   5.689   2.594  0.0469 -1.0901  0.4540
 2878TIP3   OH230048   0.994   6.574   4.668  0.9236 -0.3173  0.1846
 2878TIP3    H130049   0.907   6.562   4.706  0.2958 -0.9051 -1.3302
 2878TIP3    H230050   0.983   6.646   4.606  1.1120 -1.3156 -1.0614
 2879TIP3   OH230051   4.052   5.920  14.489 -0.0944 -0.0840 -0.4138
 2879TIP3    H130052   4.145   5.936  14.470  0.2360 -2.0014 -0.6259
 2879TIP3    H230053   4.006   5.956  14.414  0.8252 -2.6949 -2.4217
 2880TIP3   OH230054   2.022   6.722  16.129 -0.1338  0.4523 -0.0390
 2880TIP3    H130055   1.934   6.720  16.167 -0.1270 -0.9883 -0.0479
 2880TIP3    H230056   2.071   6.781  16.186 -1.3704  2.1670 -0.6726
 2881TIP3   OH230057   5.271   0.982  11.077  0.0807 -0.5234  0.3260
 2881TIP3    H130058   5.258   1.077  11.075 -1.7201 -0.7471 -0.3797
 2881TIP3    H230059   5.190   0.946  11.042  0.3706 -2.3742  1.4295
 2882TIP3   OH230060   4.003   5.198   0.421 -0.7711  0.3840 -0.6378
 2882TIP3    H130061   4.026   5.130   0.357  0.3112 -0.3808  0.5065
 2882TIP3    H230062   4.082   5.251   0.429 -1.3621  1.3298 -0.9501
 2883TIP3   OH230063   2.617   2.455  16.717 -0.0664 -0.2831 -0.1947
 2883TIP3    H130064   2.568   2.405  16.782 -0.8758  0.4240 -0.2391
 2883TIP3    H230065   2.586   2.545  16.728  1.9322  0.3840  0.4348
 2884TIP3   OH230066   6.408   5.260  12.826  0.2898 -0.1977  0.2923
 2884TIP3    H130067   6.384   5.348  12.798  2.6637  0.2825 -0.4328
 2884TIP3    H230068   6.424   5.213  12.744 -1.3054 -1.4590  0.6545
 2885TIP3   OH230069   1.948   1.949  16.500  0.2374 -0.0376  0.0541
 2885TIP3    H130070   1.984   1.860  16.501  0.8292  0.1825 -0.9347
 2885TIP3    H230071   1.860   1.939  16.535  0.3049 -1.0130 -0.0162
 2886TIP3   OH230072   4.208   0.236   5.795  0.1271 -0.4047 -0.0260
 2886TIP3    H130073   4.124   0.267   5.829  1.2089 -0.6851  3.2646
 2886TIP3    H230074   4.184   0.165   5.735 -1.9901 -0.1201  0.3739
 2887TIP3   OH230075   5.439   4.477  13.503  0.5468  0.2491  0.3768
 2887TIP3    H130076   5.410   4.526  13.580 -0.2114 -0.6050  0.6614
 2887TIP3    H230077   5.459   4.390  13.537 -2.0267 -0.8611 -0.6927
 2888TIP3   OH230078   4.742   4.501   1.561  0.2903 -0.4997  0.5817
 2888TIP3    H130079   4.741   4.512   1.656 -0.2657 -0.0113  0.5251
 2888TIP3    H230080   4.692   4.422   1.545  0.1062 -0.4014  0.6749
 2889TIP3   OH230081   2.182   5.992   0.716 -0.5175 -0.7632 -0.3889
 2889TIP3    H130082   2.151   5.954   0.798 -1.2841 -1.1416 -0.8367
 2889TIP3    H230083   2.146   6.081   0.716  0.4001 -0.3780  0.1769
 2890TIP3   OH230084   5.652   3.575   2.792  0.0234  0.1365  0.5761
 2890TIP3    H130085   5.716   3.607   2.856 -1.1527  1.7146  0.9989
 2890TIP3    H230086   5.702   3.572   2.710  1.4330 -1.5086  1.4190
 2891TIP3   OH230087   1.988   1.579   0.677 -0.7173 -0.1696  0.0075
 2891TIP3    H130088   1.929   1.646   0.711  0.3298  0.7579  0.0445
 2891TIP3    H230089   2.024   1.616   0.597 -0.7247 -1.0261 -0.4086
 2892TIP3   OH230090   0.217   6.547  10.847  0.1283 -0.1090 -0.4214
 2892TIP3    H130091   0.219   6.632  10.804  1.4964  1.9626  3.2996
 2892TIP3    H230092   0.129   6.539  10.884  0.3085  0.2175  0.0923
 2893TIP3   OH230093   3.714   4.592   4.317 -0.2779  0.0766  0.3021
 2893TIP3    H130094   3.738   4.641   4.238 -0.4108  1.4709  1.1049
 2893TIP3    H230095   3.624   4.617   4.335 -0.0782  0.1850  1.1941
 2894TIP3   OH230096   5.648   6.153   5.325 -0.0637  0.2196 -0.0367
 2894TIP3    H130097   5.556   6.150   5.348 -0.1134 -0.2058 -0.2876
 2894TIP3    H230098   5.650   6.185   5.234 -0.1751 -2.6832 -1.1711
 2895TIP3   OH230099   1.286   1.203   0.131  0.1457 -0.4405 -0.2135
 2895TIP3    H130100   1.293   1.297   0.120 -1.7551 -0.5130 -2.9332
 2895TIP3    H230101   1.208   1.191   0.186  0.6754 -0.4539  0.5542
 2896TIP3   OH230102   4.443   1.737  12.143 -0.5737 -0.1130  0.1176
 2896TIP3    H130103   4.428   1.762  12.234 -0.0319  0.6354  0.0031
 2896TIP3    H230104   4.465   1.644  12.147 -0.4219 -0.0516  0.7665
 2897TIP3   OH230105   2.442   1.559  12.211  0.6916  0.5131 -0.3378
 2897TIP3    H130106   2.485   1.597  12.135  0.7806 -1.7804 -1.5334
 2897TIP3    H230107   2.362   1.519  12.176  0.9186 -0.8981  0.6702
 2898TIP3   OH230108   3.615   6.531  11.584  0.1957  0.5504 -0.0590
 2898TIP3    H130109   3.592   6.444  11.617  1.7316  0.0516 -0.1860
 2898TIP3    H230110   3.591   6.528  11.491 -0.7070  0.6332  0.1678
 2899TIP3   OH230111   4.291   2.398  15.435  0.4557 -0.2620 -0.1060
 2899TIP3    H130112   4.298   2.303  15.441  1.7595 -0.3511 -2.1274
 2899TIP3    H230113   4.284   2.428  15.526 -1.5420 -2.3527  0.5161
 2900TIP3   OH230114   5.637   3.893   3.476  0.5116  0.7744 -0.2272
 2900TIP3    H130115   5.562   3.929   3.524 -0.0869  0.5369 -0.9748
 2900TIP3    H230116   5.697   3.865   3.545 -1.2102 -1.5007  0.4794
 2901TIP3   OH230117   3.876   0.782   2.367  0.6022  0.0098  0.5418
 2901TIP3    H130118   3.786   0.768   2.338  1.3047  0.1284 -1.9068
 2901TIP3    H230119   3.914   0.694   2.372  0.2303 -0.0970  2.2099
 2902TIP3   OH230120   2.895   3.133  16.050 -0.5066  0.4394  0.5665
 2902TIP3    H130121   2.820   3.119  16.107 -1.2104  0.8050 -0.2489
 2902TIP3    H230122   2.872   3.091  15.968  0.0874  0.7421  0.2336
 2903TIP3   OH230123   2.412   1.652   0.431 -0.0974  0.0311 -0.0686
 2903TIP3    H130124   2.478   1.599   0.386 -0.5143 -0.2984 -0.2997
 2903TIP3    H230125   2.446   1.741   0.424  0.2377 -0.1110 -0.3420
 2904TIP3   OH230126   5.844   4.565  12.123 -0.5025  0.1721  0.1542
 2904TIP3    H130127   5.759   4.535  12.155  0.0491 -1.7935 -0.0807
 2904TIP3    H230128   5.907   4.530  12.186  0.2651 -0.0144 -0.7019
 2905TIP3   OH230129   2.470   0.690   5.593 -0.1609  0.5048  0.4645
 2905TIP3    H130130   2.517   0.638   5.659  2.4398  1.4516 -0.5151
 2905TIP3    H230131   2.421   0.625   5.543 -0.1096 -0.5317  1.6752
 2906TIP3   OH230132   0.885   4.533   0.218  0.3835  0.7062  0.3371
 2906TIP3    H130133   0.834   4.596   0.167  1.1559  1.0838  0.0205
 2906TIP3    H230134   0.976   4.559   0.205  0.6898 -0.2123  0.5594
 2907TIP3   OH230135   0.826   5.340   0.975  0.0817 -0.0265 -0.5796
 2907TIP3    H130136   0.867   5.398   0.911 -0.7119  0.8964 -0.2818
 2907TIP3    H230137   0.862   5.367   1.059  0.3439 -0.5426 -0.5218
 2908TIP3   OH230138   5.462   5.185  13.597 -0.0334 -0.0623  0.0960
 2908TIP3    H130139   5.394   5.153  13.538  0.0473  0.4301 -0.2720
 2908TIP3    H230140   5.515   5.243  13.543  0.4120 -0.0900  0.4972
 2909TIP3   OH230141   5.738   5.299   3.936 -0.0733 -0.3806  0.1485
 2909TIP3    H130142   5.655   5.268   3.899  0.3925 -0.4409 -0.8682
 2909TIP3    H230143   5.718   5.384   3.973 -0.5960 -0.4044 -0.0770
 2910TIP3   OH230144   4.256   2.677  13.721  0.3062  0.1630  0.1116
 2910TIP3    H130145   4.208   2.619  13.662 -1.3101  2.6305 -1.1857
 2910TIP3    H230146   4.258   2.629  13.805 -1.2369 -1.5885 -0.7685
 2911TIP3   OH230147   3.829   5.144   4.308  0.5693 -0.0198  0.3753
 2911TIP3    H130148   3.745   5.134   4.353  0.8652 -0.6641  0.8055
 2911TIP3    H230149   3.823   5.083   4.233 -0.0257  1.2443 -0.6418
 2912TIP3   OH230150   4.184   2.917   0.829  0.3272  0.2827  0.2684
 2912TIP3    H130151   4.251   2.926   0.761  0.9654  2.6258  1.1225
 2912TIP3    H230152   4.101   2.935   0.784  0.4136 -0.8764 -0.4110
 2913TIP3   OH230153   6.649   4.766   5.647 -0.2764 -0.7785 -0.1191
 2913TIP3    H130154   6.601   4.700   5.696  1.3215 -0.4501  2.0327
 2913TIP3    H230155   6.731   4.723   5.622  1.4744  0.7040  2.6400
 2914TIP3   OH230156   6.539   4.934   6.154 -0.3286  0.4652  0.4723
 2914TIP3    H130157   6.610   4.994   6.176  1.3580 -0.8422 -1.1414
 2914TIP3    H230158   6.493   4.921   6.237  1.7258  0.8492  1.7455
 2915TIP3   OH230159   4.863   0.542   4.520 -0.1025 -0.4909  0.2017
 2915TIP3    H130160   4.917   0.463   4.512  0.0251 -0.3251 -0.6883
 2915TIP3    H230161   4.824   0.553   4.433 -0.7928 -0.0517  0.5586
 2916TIP3   OH230162   2.559   1.174   0.636 -0.3083  0.3544  0.0075
 2916TIP3    H130163   2.498   1.194   0.565 -0.3097 -0.9877 -0.3962
 2916TIP3    H230164   2.504   1.169   0.714 -0.6079 -0.1113 -0.2301
 2917TIP3   OH230165   6.619   3.250   4.230  0.1652  0.1418 -0.4472
 2917TIP3    H130166   6.629   3.345   4.240 -0.3618 -0.0130  2.6037
 2917TIP3    H230167   6.700   3.213   4.265 -0.1873 -0.5565 -0.3428
 2918TIP3   OH230168   4.697   4.755  13.784 -0.2816 -0.3824  0.1551
 2918TIP3    H130169   4.672   4.679  13.732  0.1187 -1.0652  0.9493
 2918TIP3    H230170   4.721   4.720  13.869  0.5352  0.5715  0.3387
 2919TIP3   OH230171   4.212   1.424   5.952  0.1530  0.5925  0.0384
 2919TIP3    H130172   4.202   1.432   6.047  2.0205 -0.8691  0.3994
 2919TIP3    H230173   4.283   1.484   5.930  2.1420 -1.6079  0.1485
 2920TIP3   OH230174   4.430   0.578   3.692  0.5623 -0.0745  0.5134
 2920TIP3    H130175   4.336   0.587   3.677  0.4858 -0.5402  0.6936
 2920TIP3    H230176   4.457   0.662   3.728 -0.0820 -0.4611  1.9655
 2921TIP3   OH230177   6.757   5.281   2.291 -0.3297  0.3450  0.0744
 2921TIP3    H130178   6.666   5.288   2.260 -0.4405 -0.0240  0.3017
 2921TIP3    H230179   6.780   5.189   2.273  0.0799  0.5007 -0.2010
 2922TIP3   OH230180   3.855   5.588  16.894  0.3926 -0.2591 -0.2435
 2922TIP3    H130181   3.840   5.522  16.962  1.7724  0.9007  1.2349
 2922TIP3    H230182   3.946   5.614  16.905 -0.4241  2.7826  0.0192
 2923TIP3   OH230183   4.556   2.466   3.646 -0.2880  0.0003  0.5017
 2923TIP3    H130184   4.639   2.514   3.641 -1.1376  1.4535 -0.3277
 2923TIP3    H230185   4.489   2.532   3.631 -1.4862 -1.6399 -2.1409
 2924TIP3   OH230186   3.147   2.347   4.697  0.3455  0.4759  0.1400
 2924TIP3    H130187   3.204   2.320   4.770  0.0006 -0.6243  0.0187
 2924TIP3    H230188   3.062   2.309   4.717  0.6203 -1.2069 -1.5915
 2925TIP3   OH230189   4.556   1.742   2.987 -0.1906 -0.4887  0.1559
 2925TIP3    H130190   4.553   1.655   3.026  1.4244  0.1272  1.7991
 2925TIP3    H230191   4.544   1.802   3.061 -0.3525  0.7077 -0.8013
 2926TIP3   OH230192   4.132   6.429  13.577 -0.8425  0.6630  0.1606
 2926TIP3    H130193   4.098   6.383  13.501 -0.3911  0.4928  0.0581
 2926TIP3    H230194   4.218   6.389  13.594  0.2345  2.4057 -0.8193
 2927TIP3   OH230195   2.322   2.038  14.211  0.3540  0.5070  0.0615
 2927TIP3    H130196   2.306   2.011  14.301 -0.3583  1.0726  0.1160
 2927TIP3    H230197   2.390   2.105  14.218  1.1669 -0.3008  0.0524
 2928TIP3   OH230198   4.067   2.486  10.999 -0.1457  0.4900  0.2955
 2928TIP3    H130199   4.063   2.485  11.095 -2.8324  0.2118  0.2579
 2928TIP3    H230200   4.087   2.577  10.977 -2.9852  1.4562  1.1658
 2929TIP3   OH230201   1.274   3.540   5.610 -0.1129  0.5072  0.0383
 2929TIP3    H130202   1.304   3.631   5.607  0.0491  0.5200  1.2969
 2929TIP3    H230203   1.246   3.528   5.701  1.1080 -1.0958  0.2357
 2930TIP3   OH230204   5.248   3.542   6.400 -0.6944  0.4259  0.0917
 2930TIP3    H130205   5.209   3.463   6.438 -0.4281  0.0053 -0.4957
 2930TIP3    H230206   5.318   3.566   6.461  0.3862 -0.8182 -0.6326
 2931TIP3   OH230207   4.968   5.727  11.785  0.0381  0.1052  0.3141
 2931TIP3    H130208   4.874   5.726  11.768  0.0344 -1.4469  0.2337
 2931TIP3    H230209   4.977   5.692  11.874  0.5550 -0.0698  0.1972
 2932TIP3   OH230210   3.457   4.653  15.027  0.6277  0.5909 -0.0192
 2932TIP3    H130211   3.519   4.674  15.097  2.0922 -0.5617 -0.9035
 2932TIP3    H230212   3.487   4.704  14.952  0.5957 -0.0707 -0.4942
 2933TIP3   OH230213   0.623   4.392   0.234  0.3810 -0.6335  0.1854
 2933TIP3    H130214   0.707   4.432   0.211  0.1326 -0.8409 -1.1600
 2933TIP3    H230215   0.644   4.299   0.249  0.9485 -0.1154  3.2577
 2934TIP3   OH230216   0.725   5.563   4.090  0.2398 -0.2563 -0.7946
 2934TIP3    H130217   0.721   5.568   3.995  1.5294 -0.9066 -0.9157
 2934TIP3    H230218   0.709   5.470   4.110  0.8981 -0.3104 -0.4668
 2935TIP3   OH230219   4.829   4.185  14.432 -0.3007  0.4712 -0.3632
 2935TIP3    H130220   4.768   4.147  14.368  0.3815  0.3903 -0.9753
 2935TIP3    H230221   4.790   4.269  14.456 -0.3340  0.7054 -1.2285
 2936TIP3   OH230222   0.568   5.608  15.912 -0.0150 -0.3795 -0.1009
 2936TIP3    H130223   0.635   5.662  15.869  1.0492 -0.6151  1.2045
 2936TIP3    H230224   0.565   5.528  15.860 -1.0372  0.5666 -1.5838
 2937TIP3   OH230225   0.565   5.196   5.398 -0.5847  0.5920 -0.6250
 2937TIP3    H130226   0.543   5.171   5.309 -1.9745  1.8636 -0.6677
 2937TIP3    H230227   0.657   5.224   5.394 -0.3723 -0.1997 -1.4546
 2938TIP3   OH230228   3.525   6.671   5.154 -0.1560  0.3060  0.2990
 2938TIP3    H130229   3.482   6.756   5.145 -1.3131 -0.4685 -2.3141
 2938TIP3    H230230   3.600   6.676   5.095  0.4922 -0.0737  1.0801
 2939TIP3   OH230231   6.018   5.975   4.431 -0.0850 -0.2456 -0.2939
 2939TIP3    H130232   6.035   6.052   4.484  0.8260 -1.0993  0.6913
 2939TIP3    H230233   5.962   6.007   4.360  0.0064  1.2411  0.2672
 2940TIP3   OH230234   3.064   2.201  11.384 -0.4236  0.3193 -0.0794
 2940TIP3    H130235   3.015   2.243  11.455  0.6636  1.2349  0.1608
 2940TIP3    H230236   3.111   2.273  11.342 -0.0393 -0.3985 -0.9049
 2941TIP3   OH230237   3.874   6.102  15.910 -0.4315 -0.0337 -0.0679
 2941TIP3    H130238   3.940   6.106  15.979 -1.0808  1.7192  0.5243
 2941TIP3    H230239   3.832   6.017  15.921  1.9244 -1.3907 -0.7211
 2942TIP3   OH230240   4.117   2.761  14.661 -0.7715  0.5890  0.0526
 2942TIP3    H130241   4.166   2.707  14.599  1.7666  1.7387  0.9267
 2942TIP3    H230242   4.031   2.773  14.620 -0.0378 -0.7327 -2.0189
 2943TIP3   OH230243   6.137   5.421   5.400 -0.1654  0.2249  0.1642
 2943TIP3    H130244   6.177   5.499   5.439  1.7256 -1.4881  1.9546
 2943TIP3    H230245   6.186   5.407   5.319 -0.0283  0.4982  0.1975
 2944TIP3   OH230246   3.184   6.514  14.184 -0.2450 -0.2394 -0.2732
 2944TIP3    H130247   3.239   6.435  14.187 -1.5332 -1.1644  2.1279
 2944TIP3    H230248   3.117   6.499  14.251 -3.4237  0.8480 -2.9231
 2945TIP3   OH230249   1.560   6.797   1.680 -0.5412  0.1078 -0.3750
 2945TIP3    H130250   1.600   6.783   1.594 -1.9193  1.1511 -1.2284
 2945TIP3    H230251   1.632   6.825   1.736  0.3303 -0.3356 -1.2524
 2946TIP3   OH230252   2.350   3.604   3.471  0.4629 -0.1550  0.6752
 2946TIP3    H130253   2.306   3.555   3.401  0.1606 -0.6610  1.2151
 2946TIP3    H230254   2.282   3.621   3.535  1.0331 -0.9081  1.5012
 2947TIP3   OH230255   2.350   3.681  12.151 -0.0516  0.2492 -0.1904
 2947TIP3    H130256   2.319   3.767  12.124  0.8173  0.4669 -0.5239
 2947TIP3    H230257   2.394   3.646  12.074  1.7215  0.5315  0.6350
 2948TIP3   OH230258   5.909   2.273   3.506 -0.1763 -0.3128 -0.1569
 2948TIP3    H130259   5.967   2.310   3.572 -0.9003  1.0126 -0.2257
 2948TIP3    H230260   5.825   2.261   3.551 -0.8618  1.2197 -0.9773
 2949TIP3   OH230261   4.356   0.840  13.176 -0.6416 -0.0035  0.5139
 2949TIP3    H130262   4.432   0.886  13.213  0.0487 -0.1115 -0.7172
 2949TIP3    H230263   4.376   0.833  13.083 -0.6787 -2.8328  0.6325
 2950TIP3   OH230264   2.069   2.270   0.652 -0.6961 -0.1271  0.6165
 2950TIP3    H130265   1.983   2.231   0.663 -0.2664 -0.9765  1.0060
 2950TIP3    H230266   2.115   2.212   0.591 -0.1547 -0.0772  0.9690
 2951TIP3   OH230267   1.638   2.681   3.576  0.0326  0.1490 -0.5957
 2951TIP3    H130268   1.697   2.750   3.546  0.7310  0.7802  2.0147
 2951TIP3    H230269   1.589   2.656   3.497  2.3464  0.9933 -2.4233
 2952TIP3   OH230270   4.713   6.325   4.797  0.4806  0.0897 -0.6854
 2952TIP3    H130271   4.690   6.299   4.887  2.4113 -0.5445 -0.3380
 2952TIP3    H230272   4.754   6.412   4.807  0.2317  0.2483 -1.0250
 2953TIP3   OH230273   1.832   6.364  13.029 -0.6662 -0.6284  0.0590
 2953TIP3    H130274   1.806   6.353  13.121  1.7355 -0.1559  0.8553
 2953TIP3    H230275   1.800   6.451  13.005  0.4996  0.1307  1.1521
 2954TIP3   OH230276   6.464   6.035  12.868 -1.0196 -0.0165 -0.1346
 2954TIP3    H130277   6.455   6.089  12.790  0.8473 -1.6186 -1.5502
 2954TIP3    H230278   6.461   6.097  12.941 -1.1461  1.7142 -1.5553
 2955TIP3   OH230279   5.965   6.589  15.797  0.1591 -0.1429 -0.2452
 2955TIP3    H130280   5.997   6.523  15.736  0.7325 -0.1822  0.0855
 2955TIP3    H230281   6.039   6.604  15.857  0.2469  1.2164 -0.6626
 2956TIP3   OH230282   2.682   2.574   2.804 -0.4647  0.0849 -0.3414
 2956TIP3    H130283   2.722   2.488   2.793  0.5153  0.4930 -0.1428
 2956TIP3    H230284   2.677   2.585   2.899  0.3060  0.6250 -0.3518
 2957TIP3   OH230285   0.826   4.729  12.097  0.2880 -0.2736 -0.6177
 2957TIP3    H130286   0.920   4.739  12.087  0.7505 -2.8333  0.4431
 2957TIP3    H230287   0.801   4.797  12.161  1.9321 -1.2603  1.1863
 2958TIP3   OH230288   2.894   5.229   4.297  0.2537 -0.6922  0.5961
 2958TIP3    H130289   2.881   5.272   4.382  1.6345 -1.1496  1.0677
 2958TIP3    H230290   2.892   5.135   4.318 -0.5848 -0.8355 -0.0807
 2959TIP3   OH230291   6.159   5.378  13.848 -0.0675  0.2284 -0.0845
 2959TIP3    H130292   6.138   5.369  13.941  1.2543  1.6172  0.3934
 2959TIP3    H230293   6.169   5.288  13.817  1.4292 -0.2660  1.6193
 2960TIP3   OH230294   2.792   2.042  16.765 -0.2622 -0.3157  0.0992
 2960TIP3    H130295   2.788   2.122  16.713  1.0929  0.1093  0.6111
 2960TIP3    H230296   2.813   1.973  16.702  0.5356  0.0627 -0.0636
 2961TIP3   OH230297   1.678   3.213   4.014 -0.4816  0.2380 -0.4634
 2961TIP3    H130298   1.663   3.120   4.003 -2.6314  0.4103  0.4502
 2961TIP3    H230299   1.723   3.221   4.099  0.3355  0.0195 -0.8645
 2962TIP3   OH230300   6.365   4.432  14.636 -0.0806  0.2529 -0.0496
 2962TIP3    H130301   6.284   4.388  14.660  0.3445 -0.0116  0.9445
 2962TIP3    H230302   6.431   4.393  14.693  0.5301  1.3059 -0.0134
 2963TIP3   OH230303   3.588   3.831  12.477 -0.8247 -0.6465 -0.0568
 2963TIP3    H130304   3.637   3.817  12.396  2.4109 -1.5668  1.8800
 2963TIP3    H230305   3.565   3.923  12.475  0.7225 -0.2400 -1.2755
 2964TIP3   OH230306   4.528   5.612   5.653 -0.1042  0.2241 -0.3090
 2964TIP3    H130307   4.527   5.517   5.665 -0.9665  0.1108 -1.2118
 2964TIP3    H230308   4.536   5.647   5.742 -0.0752 -0.6848  0.0552
 2965TIP3   OH230309   2.644   0.539   1.684  0.1254 -0.2073 -0.4573
 2965TIP3    H130310   2.609   0.466   1.733  0.0535  0.8088  1.0878
 2965TIP3    H230311   2.620   0.617   1.735  0.0957  0.9158 -2.0852
 2966TIP3   OH230312   0.256   4.137   0.672  0.0042  0.3061  0.0694
 2966TIP3    H130313   0.212   4.219   0.696 -0.8282 -0.3642  0.9149
 2966TIP3    H230314   0.190   4.087   0.624  0.0273 -0.4336  0.7688
 2967TIP3   OH230315   3.566   2.834  14.386  0.0270 -0.2012  0.2679
 2967TIP3    H130316   3.494   2.795  14.435  0.3614  0.0089  0.9319
 2967TIP3    H230317   3.601   2.763  14.333 -1.2574 -0.1000 -0.7769
 2968TIP3   OH230318   2.429   2.106   4.651 -0.0989  0.7497  0.2421
 2968TIP3    H130319   2.463   2.045   4.716 -0.8394  1.1142  0.9983
 2968TIP3    H230320   2.502   2.123   4.592  0.4727  0.1069  0.7592
 2969TIP3   OH230321   6.011   3.285   3.145  0.3326  0.1176 -0.8891
 2969TIP3    H130322   6.063   3.239   3.211 -0.1055 -1.4249 -1.5898
 2969TIP3    H230323   6.028   3.239   3.063 -2.6021 -0.9013 -1.0539
 2970TIP3   OH230324   2.048   4.477   3.854  0.2446  0.2715 -0.1570
 2970TIP3    H130325   2.092   4.539   3.911  0.0953  1.9130 -1.7166
 2970TIP3    H230326   1.954   4.495   3.868  0.2109  1.1294 -1.3001
 2971TIP3   OH230327   0.563   4.144   2.780  0.1289 -0.3678  0.0375
 2971TIP3    H130328   0.475   4.149   2.819  0.7230  0.6521  1.3524
 2971TIP3    H230329   0.559   4.201   2.704  0.0849  1.0936  1.0841
 2972TIP3   OH230330   5.124   1.014   4.565  0.1861 -0.1749 -0.1422
 2972TIP3    H130331   5.135   1.054   4.479  0.8286 -1.3671 -0.6471
 2972TIP3    H230332   5.036   1.038   4.592  0.4108  1.2294 -0.5792
 2973TIP3   OH230333   2.054   5.524   2.921 -0.1865  0.0481  0.9629
 2973TIP3    H130334   2.126   5.488   2.972 -0.2122  0.5213  1.3464
 2973TIP3    H230335   2.063   5.484   2.834  1.7982  1.6323  0.3555
 2974TIP3   OH230336   1.159   4.269  15.744  0.1312  0.0592 -0.5366
 2974TIP3    H130337   1.068   4.278  15.717  0.2868  1.4402 -0.6301
 2974TIP3    H230338   1.205   4.341  15.702  1.1610 -0.2460  0.0113
 2975TIP3   OH230339   0.666   0.590  16.559  0.3058  0.6217 -0.2210
 2975TIP3    H130340   0.628   0.548  16.482  0.4293  1.0282 -0.5053
 2975TIP3    H230341   0.620   0.549  16.633  0.5267 -0.1132 -0.4792
 2976TIP3   OH230342   2.531   4.306  13.426  0.6022 -0.4984  0.0191
 2976TIP3    H130343   2.555   4.214  13.415 -0.5379 -0.7204 -0.8200
 2976TIP3    H230344   2.477   4.326  13.349 -1.5205  0.0539  1.5567
 2977TIP3   OH230345   3.629   6.790  11.331 -0.0773 -0.2018 -0.0703
 2977TIP3    H130346   3.581   6.708  11.334  0.3712 -0.5390 -1.3569
 2977TIP3    H230347   3.562   6.858  11.340 -0.5363 -0.6976  0.2498
 2978TIP3   OH230348   5.344   6.299  11.759  0.1887  0.1398 -0.5279
 2978TIP3    H130349   5.393   6.256  11.689  0.4246  0.9197 -0.8484
 2978TIP3    H230350   5.257   6.315  11.722  0.5009  1.1183 -0.8833
 2979TIP3   OH230351   4.943   2.377   3.704 -0.4281 -0.2005  0.2190
 2979TIP3    H130352   4.879   2.434   3.661 -0.5065  0.5136  1.2531
 2979TIP3    H230353   5.027   2.400   3.663 -0.4284  0.8113  0.7476
 2980TIP3   OH230354   6.057   4.600  14.597 -0.2931  0.6751 -0.2347
 2980TIP3    H130355   6.096   4.519  14.630 -0.5925 -0.7012 -2.9506
 2980TIP3    H230356   6.011   4.637  14.672  1.7859 -0.4187  1.6995
 2981TIP3   OH230357   6.542   3.559  13.095  0.2649 -0.0394  0.2279
 2981TIP3    H130358   6.496   3.623  13.041 -0.3891  0.2804  1.1403
 2981TIP3    H230359   6.603   3.611  13.148 -1.8881  0.1778  2.6658
 2982TIP3   OH230360   4.736   0.716   5.156 -0.4577 -0.2536 -0.4345
 2982TIP3    H130361   4.715   0.735   5.247 -0.7845  0.3383 -0.6256
 2982TIP3    H230362   4.756   0.623   5.154 -2.2983 -0.6829 -0.0929
 2983TIP3   OH230363   3.706   3.819   2.735  0.4068 -0.2090  0.6070
 2983TIP3    H130364   3.618   3.821   2.697  0.8285  0.7509 -0.4105
 2983TIP3    H230365   3.714   3.732   2.774 -1.3474  0.0429  1.6262
 2984TIP3   OH230366   4.046   2.197  12.909  0.4804 -0.0873  0.3720
 2984TIP3    H130367   4.023   2.288  12.887  0.0074 -0.2127  0.3352
 2984TIP3    H230368   3.972   2.146  12.877  0.4647 -0.4254  0.9357
 2985TIP3   OH230369   5.865   4.522   0.392 -0.6846  0.2582 -0.2264
 2985TIP3    H130370   5.872   4.427   0.394  1.4344  0.2884 -1.9478
 2985TIP3    H230371   5.810   4.541   0.316  0.0065  0.3913 -0.7075
 2986TIP3   OH230372   2.536   4.462   0.303 -0.5888 -0.3201  0.6673
 2986TIP3    H130373   2.442   4.448   0.305 -0.5210 -1.0040 -0.1923
 2986TIP3    H230374   2.573   4.382   0.341 -0.3281 -0.6603 -0.2585
 2987TIP3   OH230375   2.583   0.262   2.764  0.0879 -0.0546  0.7825
 2987TIP3    H130376   2.516   0.245   2.697 -1.7986 -1.1693  2.8462
 2987TIP3    H230377   2.633   0.181   2.768  1.0086  0.4435 -0.0753
 2988TIP3   OH230378   3.253   6.083  12.123  0.3088  0.6553 -0.5414
 2988TIP3    H130379   3.254   6.000  12.076  2.5600  0.7179 -0.7019
 2988TIP3    H230380   3.167   6.085  12.166 -0.2867 -1.1551 -1.5428
 2989TIP3   OH230381   2.538   3.176   2.607  0.8970  0.2941 -0.3119
 2989TIP3    H130382   2.446   3.201   2.606  1.0471  0.9574 -2.7151
 2989TIP3    H230383   2.537   3.080   2.607  0.2589  0.2837  0.4501
 2990TIP3   OH230384   5.532   0.039   4.195 -0.4573 -0.7677 -0.3415
 2990TIP3    H130385   5.553   0.075   4.108  2.0863  0.0834  0.5021
 2990TIP3    H230386   5.444   0.005   4.187 -1.4754  1.9649 -2.4476
 2991TIP3   OH230387   1.967   3.229   1.478  0.3190  0.0228  0.9419
 2991TIP3    H130388   1.933   3.140   1.476  1.1320 -0.2993 -1.2846
 2991TIP3    H230389   1.893   3.283   1.451  0.7374 -0.3879 -1.1681
 2992TIP3   OH230390   3.526   2.574   2.406 -0.0402  0.4676  0.2115
 2992TIP3    H130391   3.461   2.589   2.475 -0.9048 -0.9968 -0.2369
 2992TIP3    H230392   3.539   2.479   2.406 -0.5651  0.3363 -2.0722
 2993TIP3   OH230393   1.442   2.399   1.853 -0.0661  0.4498 -0.0748
 2993TIP3    H130394   1.492   2.318   1.868 -1.2796 -0.4419 -0.6454
 2993TIP3    H230395   1.375   2.374   1.789 -1.3570  1.5473  0.8030
 2994TIP3   OH230396   3.782   2.004   0.085 -0.0514  0.0046 -0.6612
 2994TIP3    H130397   3.703   2.039   0.128 -0.3300 -0.3257 -0.9020
 2994TIP3    H230398   3.848   2.003   0.154 -0.7236 -1.2991 -0.0097
 2995TIP3   OH230399   2.012   6.374   0.980 -0.1436  0.0958 -0.5392
 2995TIP3    H130400   2.072   6.330   1.041  0.2519 -0.9913 -1.6579
 2995TIP3    H230401   1.977   6.448   1.029  0.9730 -0.1274  0.6413
 2996TIP3   OH230402   6.026   6.328  16.099 -0.3543 -0.2607 -0.2423
 2996TIP3    H130403   6.118   6.324  16.075 -0.5273 -0.6302 -0.8694
 2996TIP3    H230404   6.026   6.341  16.194  0.3355 -1.0789 -0.1220
 2997TIP3   OH230405   2.045   4.794   6.247  0.4910 -0.0200  0.3278
 2997TIP3    H130406   2.052   4.752   6.332 -0.3680 -0.8353  0.0077
 2997TIP3    H230407   1.956   4.777   6.218  0.1397  1.9332  0.1146
 2998TIP3   OH230408   2.247   4.399  12.172  0.1954 -0.1081 -0.0182
 2998TIP3    H130409   2.338   4.374  12.184 -0.3942 -2.6993 -0.3717
 2998TIP3    H230410   2.207   4.387  12.258 -0.2557 -1.1323 -0.3598
 2999TIP3   OH230411   0.073   5.482   3.875 -0.0646 -0.3260  0.4179
 2999TIP3    H130412   0.116   5.412   3.824  0.1479  1.0720 -1.4099
 2999TIP3    H230413   0.090   5.562   3.825 -1.1222  0.9158  1.9585
 3000TIP3   OH230414   4.292   2.951   2.987  0.0430 -0.2926 -0.0585
 3000TIP3    H130415   4.200   2.952   3.012  0.6834 -1.5601  2.8569
 3000TIP3    H230416   4.330   3.027   3.031  0.7427 -0.9938  0.5861
 3001TIP3   OH230417   1.488   0.253  14.472  0.5363 -0.3320 -0.0046
 3001TIP3    H130418   1.395   0.232  14.467  0.5737 -0.3668 -0.6285
 3001TIP3    H230419   1.492   0.349  14.465  0.7041 -0.4688 -3.0419
 3002TIP3   OH230420   4.421   5.143  13.980  0.1973 -0.1028  0.3535
 3002TIP3    H130421   4.511   5.123  14.005 -0.6152 -0.8013  3.0856
 3002TIP3    H230422   4.387   5.061  13.944  0.6348  0.1897 -0.7758
 3003TIP3   OH230423   4.375   2.485  12.143  0.2470  0.2015 -0.1107
 3003TIP3    H130424   4.322   2.563  12.163 -0.9214 -0.8373  1.0150
 3003TIP3    H230425   4.408   2.456  12.228  1.1266 -0.2278 -0.5886
 3004TIP3   OH230426   2.979   5.106  14.975  0.7371  0.1380  0.2645
 3004TIP3    H130427   2.939   5.176  15.026  2.9555  1.2448  0.6134
 3004TIP3    H230428   2.919   5.032  14.984  0.6972  0.4182  4.0544
 3005TIP3   OH230429   2.600   6.295  13.962 -0.0276 -0.2116  0.4147
 3005TIP3    H130430   2.675   6.353  13.979  0.6337 -0.6748 -0.8282
 3005TIP3    H230431   2.525   6.342  13.998  0.9685 -0.1950  2.6576
 3006TIP3   OH230432   3.448   5.010   0.408 -0.6452 -0.2367 -0.3296
 3006TIP3    H130433   3.375   5.064   0.439 -0.0976 -1.6591  4.0544
 3006TIP3    H230434   3.521   5.033   0.465  0.4755 -3.3508 -0.3042
 3007TIP3   OH230435   2.537   1.952  16.558  0.0570 -0.0492  0.5198
 3007TIP3    H130436   2.591   2.029  16.548 -0.6349  0.3565 -0.2479
 3007TIP3    H230437   2.455   1.974  16.513 -0.5385 -0.8419  1.1753
 3008TIP3   OH230438   1.194   3.662   5.157 -0.7358 -0.3101 -0.0729
 3008TIP3    H130439   1.160   3.693   5.073 -1.5070 -1.7957 -0.3549
 3008TIP3    H230440   1.132   3.694   5.222 -0.9975 -0.4543 -0.2490
 3009TIP3   OH230441   0.052   1.278   1.905  0.3240  0.3023  0.3415
 3009TIP3    H130442   0.096   1.286   1.821  2.8381  1.5823  1.6760
 3009TIP3    H230443  -0.031   1.325   1.893  0.1019 -0.4909 -1.6787
 3010TIP3   OH230444   1.228   1.911   0.920  0.0662 -0.0834  0.1351
 3010TIP3    H130445   1.277   1.831   0.903 -0.0868 -0.5835  1.8040
 3010TIP3    H230446   1.295   1.979   0.933  0.1912  0.1614 -1.5300
 3011TIP3   OH230447   0.566   4.635   3.691 -0.4102 -0.2774 -0.1841
 3011TIP3    H130448   0.587   4.727   3.675 -1.4317 -0.2876 -1.9033
 3011TIP3    H230449   0.471   4.633   3.698 -0.3548 -1.1306  0.5077
 3012TIP3   OH230450   3.371   0.381   1.325 -0.0022  0.5102  0.8226
 3012TIP3    H130451   3.286   0.422   1.338 -0.1185  0.8686 -0.8570
 3012TIP3    H230452   3.434   0.443   1.362 -0.1770  2.2732 -1.5967
 3013TIP3   OH230453   3.688   5.607  14.810  0.6248 -0.3183 -0.1837
 3013TIP3    H130454   3.705   5.555  14.888  0.5367 -1.7248 -1.0596
 3013TIP3    H230455   3.612   5.564  14.769  0.1166  0.9205 -0.5852
 3014TIP3   OH230456   3.103   0.937  14.994 -0.3411  0.2019 -0.2970
 3014TIP3    H130457   3.051   1.010  14.961 -0.4104  1.2599  1.9548
 3014TIP3    H230458   3.071   0.924  15.083  0.6629 -1.6711 -0.1582
 3015TIP3   OH230459   3.583   1.296  14.211 -0.0458 -0.0647 -0.0737
 3015TIP3    H130460   3.554   1.376  14.169  4.6997  2.5349  0.8707
 3015TIP3    H230461   3.629   1.248  14.142  4.0552  2.1649  0.8029
 3016TIP3   OH230462   0.295   6.781   5.757 -0.1301  1.2235  0.4324
 3016TIP3    H130463   0.337   6.792   5.672  0.4628 -0.8981  0.3907
 3016TIP3    H230464   0.317   6.860   5.805  1.1945  1.5929 -0.7290
 3017TIP3   OH230465   5.434   4.510   1.904 -0.1521 -0.1959 -0.4804
 3017TIP3    H130466   5.406   4.513   1.996  0.5357 -0.0723 -0.2723
 3017TIP3    H230467   5.355   4.532   1.854 -0.7114 -0.9559  0.0459
 3018TIP3   OH230468   3.405   0.389   2.253  0.5504 -0.4822  0.2239
 3018TIP3    H130469   3.314   0.418   2.254  0.0993 -1.7296 -0.9168
 3018TIP3    H230470   3.435   0.402   2.343 -0.0277  2.0452  0.1170
 3019TIP3   OH230471   2.002   2.729   4.498  0.7212 -0.1806 -0.2630
 3019TIP3    H130472   2.089   2.739   4.460  0.0151 -0.6055 -2.1117
 3019TIP3    H230473   1.973   2.819   4.516  2.2155 -0.0918  2.1611
 3020TIP3   OH230474   3.365   0.139   1.505  0.4800  0.0937 -0.3729
 3020TIP3    H130475   3.354   0.196   1.429  0.7759 -0.3842 -0.7834
 3020TIP3    H230476   3.275   0.120   1.534  0.3427  2.9773  1.5010
 3021TIP3   OH230477   4.490   6.728  16.353 -0.2280 -0.1121 -0.0138
 3021TIP3    H130478   4.407   6.709  16.308 -0.5775  0.5432  0.3378
 3021TIP3    H230479   4.557   6.717  16.286 -0.4552 -1.9457  0.0036
 3022TIP3   OH230480   3.512   0.908  14.938 -0.2196 -0.0888 -0.4914
 3022TIP3    H130481   3.499   0.814  14.954 -1.4991  0.0763 -0.4674
 3022TIP3    H230482   3.493   0.950  15.022  2.5004  0.0665  0.1332
 3023TIP3   OH230483   1.230   5.060   3.590  0.1321 -0.2255 -0.3361
 3023TIP3    H130484   1.176   4.985   3.564 -0.7283  0.3007 -0.0999
 3023TIP3    H230485   1.213   5.070   3.684  1.3070 -0.5756 -0.0693
 3024TIP3   OH230486   3.922   5.335   1.304  0.2250 -0.0368  0.0109
 3024TIP3    H130487   3.969   5.322   1.221 -1.1810 -0.4322 -0.7589
 3024TIP3    H230488   3.947   5.423   1.332  1.1933 -0.1297 -0.5111
 3025TIP3   OH230489   3.040   2.933  13.624  0.0842 -0.2750 -0.3848
 3025TIP3    H130490   2.975   2.864  13.617  0.2564 -0.4554 -0.2021
 3025TIP3    H230491   3.118   2.890  13.659  1.5318 -0.8861 -3.8774
 3026TIP3   OH230492   5.760   3.472  16.388  0.3680 -0.1489 -0.2323
 3026TIP3    H130493   5.689   3.411  16.369 -0.6902  0.6913  0.9108
 3026TIP3    H230494   5.736   3.552  16.342  1.6118 -0.4392 -1.4916
 3027TIP3   OH230495   2.320   4.901  10.635 -0.9364  0.5400  0.3501
 3027TIP3    H130496   2.290   4.811  10.628 -0.8659  0.6306 -1.6002
 3027TIP3    H230497   2.411   4.894  10.667 -0.7547 -0.1161 -0.2847
 3028TIP3   OH230498   2.087   6.372  10.641 -0.4204  0.0997 -0.0033
 3028TIP3    H130499   2.062   6.367  10.549 -1.0569  0.1360  0.1655
 3028TIP3    H230500   2.119   6.284  10.661  1.7243  0.6226 -0.8017
 3029TIP3   OH230501   4.439   0.982   0.943  0.1751  0.0920  0.2035
 3029TIP3    H130502   4.479   1.069   0.936 -1.4099  1.0337  2.0507
 3029TIP3    H230503   4.422   0.956   0.852  2.6849  0.6775 -0.5078
 3030TIP3   OH230504   3.230   5.499  15.887  0.6659  0.3398 -0.4191
 3030TIP3    H130505   3.200   5.416  15.849  0.0415  0.6867 -0.6898
 3030TIP3    H230506   3.319   5.510  15.852  1.1961 -0.7692  0.5100
 3031TIP3   OH230507   3.667   2.628   1.306 -0.3067 -0.0243 -0.0336
 3031TIP3    H130508   3.640   2.554   1.360 -0.4556  0.3060  0.3466
 3031TIP3    H230509   3.761   2.615   1.291 -0.3854 -0.4225 -0.1814
 3032TIP3   OH230510   1.140   4.916  11.572  0.1270  0.2127  0.1528
 3032TIP3    H130511   1.095   4.856  11.512  0.0067 -0.5898  1.0344
 3032TIP3    H230512   1.071   4.944  11.633  0.3666  0.6161  0.2411
 3033TIP3   OH230513   0.290   1.086  16.543 -0.4539 -0.0334  0.0519
 3033TIP3    H130514   0.352   1.015  16.561 -2.1251 -0.9655  2.8644
 3033TIP3    H230515   0.305   1.149  16.613 -2.0937  0.1092  0.3118
 3034TIP3   OH230516   2.595   4.996  12.601  0.3794 -0.3509  0.2631
 3034TIP3    H130517   2.596   5.087  12.628  2.4273 -0.9215  2.4720
 3034TIP3    H230518   2.682   4.980  12.565 -0.3728 -1.1350 -1.3010
 3035TIP3   OH230519   5.437   1.636  15.878  1.0018 -0.1431 -0.3111
 3035TIP3    H130520   5.492   1.654  15.954 -0.4823 -0.6690  0.9317
 3035TIP3    H230521   5.422   1.542  15.881 -0.0947  0.0175 -0.5453
 3036TIP3   OH230522   4.397   4.974   2.397 -0.4599 -0.2910 -0.0819
 3036TIP3    H130523   4.367   5.042   2.337 -1.7922 -0.0301  0.8338
 3036TIP3    H230524   4.412   4.898   2.341 -0.6220  0.2594 -0.8895
 3037TIP3   OH230525   1.231   0.115   0.201  0.6843  0.4194  0.5883
 3037TIP3    H130526   1.203   0.188   0.255  0.7544 -0.1196  1.3680
 3037TIP3    H230527   1.322   0.101   0.225  0.3668 -0.6027  1.2231
 3038TIP3   OH230528   4.644   1.996  13.966 -0.3148  0.5480  0.0185
 3038TIP3    H130529   4.610   2.046  13.892  2.4260  1.4269 -0.7895
 3038TIP3    H230530   4.652   1.906  13.932 -0.9730  0.5102 -0.0487
 3039TIP3   OH230531   6.435   4.518  16.753  0.1140  0.3468 -0.5503
 3039TIP3    H130532   6.430   4.430  16.792  0.8377 -0.1167 -1.4455
 3039TIP3    H230533   6.466   4.574  16.823  0.0700 -0.2064 -0.0800
 3040TIP3   OH230534   2.489   4.216   4.207  0.6009 -0.2161 -0.0174
 3040TIP3    H130535   2.482   4.290   4.147  1.4976  0.0655  0.2102
 3040TIP3    H230536   2.467   4.252   4.293  2.3455  0.1370  0.3215
 3041TIP3   OH230537   2.640   0.036  13.164 -0.4594  0.3662  0.4622
 3041TIP3    H130538   2.644   0.088  13.244 -0.1105  1.0121  0.0353
 3041TIP3    H230539   2.712  -0.027  13.172 -1.6827 -0.9379  1.5665
 3042TIP3   OH230540   4.108   0.065   3.927 -0.5209  0.0738  0.0097
 3042TIP3    H130541   4.192   0.098   3.895  0.4450 -1.0351  1.2731
 3042TIP3    H230542   4.043   0.105   3.870  0.8828  0.7092 -1.2080
 3043TIP3   OH230543   4.030   5.659  11.399  0.1068 -0.3173 -0.1967
 3043TIP3    H130544   3.956   5.606  11.371  1.8781 -2.4450 -1.2383
 3043TIP3    H230545   4.105   5.623  11.350  1.8863  1.4719  1.0412
 3044TIP3   OH230546   1.649   3.012   2.778  0.1146  0.1068  0.9789
 3044TIP3    H130547   1.585   2.949   2.744 -0.1422  0.8998 -0.0381
 3044TIP3    H230548   1.731   2.989   2.733 -0.0644  0.7152  0.3235
 3045TIP3   OH230549   3.295   4.108   5.017  0.1904  0.3262 -0.3414
 3045TIP3    H130550   3.295   4.199   4.985 -0.5900  2.1346  4.1322
 3045TIP3    H230551   3.383   4.077   4.997  0.3134  1.7792 -2.4970
 3046TIP3   OH230552   5.922   1.756  11.455  0.2079  0.2278  0.1068
 3046TIP3    H130553   5.858   1.783  11.389 -1.7192 -2.5181  0.6829
 3046TIP3    H230554   5.904   1.813  11.530 -0.0840  0.9168 -0.4742
 3047TIP3   OH230555   5.805   4.184   5.501 -0.0054 -0.2957  0.2286
 3047TIP3    H130556   5.829   4.167   5.592  0.0533  0.3744  0.3424
 3047TIP3    H230557   5.850   4.265   5.479 -1.1825  0.3246  0.0572
 3048TIP3   OH230558   3.247   5.063  14.899 -0.2646  0.0240  0.2839
 3048TIP3    H130559   3.248   5.117  14.820  0.5580  0.2124  0.4109
 3048TIP3    H230560   3.163   5.083  14.941  0.6658  2.4876  1.1771
 3049TIP3   OH230561   3.262   4.304  13.052  0.3706 -0.2291  0.3680
 3049TIP3    H130562   3.303   4.367  12.992 -0.4127 -0.3906 -0.3559
 3049TIP3    H230563   3.258   4.223  13.002 -0.6962 -0.2523  0.4609
 3050TIP3   OH230564   3.486   5.263   5.052  0.5909  0.6868 -0.4331
 3050TIP3    H130565   3.531   5.345   5.033  0.8139  0.8715  0.7912
 3050TIP3    H230566   3.546   5.195   5.023 -0.1146  0.9149 -2.6135
 3051TIP3   OH230567   1.382   1.039   6.313 -0.1250 -0.3497 -0.0914
 3051TIP3    H130568   1.292   1.051   6.283  0.2543 -0.7081 -1.4185
 3051TIP3    H230569   1.435   1.041   6.234  1.0720  0.0391  0.6839
 3052TIP3   OH230570   5.234   1.597   2.363  0.2429 -0.1807  0.3389
 3052TIP3    H130571   5.263   1.623   2.275 -1.0589 -1.2663 -0.4420
 3052TIP3    H230572   5.307   1.545   2.398  0.9661  0.6555  0.1128
 3053TIP3   OH230573   2.722   3.134  16.261 -0.3369 -0.6150  0.6310
 3053TIP3    H130574   2.780   3.207  16.283  0.8741 -1.2727 -0.2752
 3053TIP3    H230575   2.639   3.155  16.305  0.4694  0.5212  1.6680
 3054TIP3   OH230576   1.564   3.186  10.441 -0.6765  0.1618  0.1245
 3054TIP3    H130577   1.603   3.273  10.450  0.3885 -0.1024 -1.5889
 3054TIP3    H230578   1.502   3.194  10.369 -0.9123 -0.3962  0.2542
 3055TIP3   OH230579   5.921   2.449   4.588  0.1089 -0.4693 -0.1979
 3055TIP3    H130580   6.012   2.449   4.617 -0.0314 -0.2636  0.2639
 3055TIP3    H230581   5.871   2.468   4.668 -0.3278 -0.4606 -0.4702
 3056TIP3   OH230582   2.466   2.174   2.308  0.1363  0.6625 -0.7015
 3056TIP3    H130583   2.457   2.177   2.404 -0.5463  0.0255 -0.7306
 3056TIP3    H230584   2.375   2.173   2.276  0.3506 -0.3024 -1.3058
 3057TIP3   OH230585   3.786   3.883  16.321  0.3951 -0.1739  0.4667
 3057TIP3    H130586   3.752   3.973  16.328  0.0329 -0.2950  0.3019
 3057TIP3    H230587   3.717   3.836  16.273  0.0411 -0.8360  1.6030
 3058TIP3   OH230588   5.234   4.415  12.620 -0.3583 -0.2005 -0.5346
 3058TIP3    H130589   5.275   4.493  12.584 -2.0781  1.6499  1.2433
 3058TIP3    H230590   5.143   4.419  12.588 -0.3740 -1.7315 -0.7675
 3059TIP3   OH230591   2.775   4.352   3.759 -0.0904  0.2927 -0.9559
 3059TIP3    H130592   2.827   4.430   3.777  0.2387  0.3212 -2.0206
 3059TIP3    H230593   2.778   4.341   3.664 -0.1837 -0.9856 -0.8298
 3060TIP3   OH230594   0.418   5.313  12.988 -0.3852 -0.1963  0.2069
 3060TIP3    H130595   0.344   5.271  12.944 -0.1179 -0.5724  0.1204
 3060TIP3    H230596   0.484   5.245  12.997  1.1067  0.7742 -2.2623
 3061TIP3   OH230597   3.611   3.898  16.883 -0.4039  0.7500  0.2495
 3061TIP3    H130598   3.537   3.959  16.876  0.5929  2.1097  1.1690
 3061TIP3    H230599   3.677   3.946  16.932  0.0785 -1.4156  1.8456
 3062TIP3   OH230600   5.638   1.174   6.604 -0.0872  0.0738 -0.3644
 3062TIP3    H130601   5.647   1.173   6.699 -1.6595  0.8783 -0.1782
 3062TIP3    H230602   5.679   1.092   6.575 -0.5779 -0.7288  1.1039
 3063TIP3   OH230603   6.540   3.092   1.929 -0.1158 -0.6495  0.4514
 3063TIP3    H130604   6.463   3.107   1.875  1.8533  2.4126 -1.8220
 3063TIP3    H230605   6.577   3.010   1.897 -0.6242 -0.4162 -0.7701
 3064TIP3   OH230606   6.136   2.843  12.088  0.3496  0.4020 -0.5412
 3064TIP3    H130607   6.195   2.825  12.014 -0.3960  0.4601 -1.1696
 3064TIP3    H230608   6.140   2.938  12.099  2.0365  0.2315  0.8671
 3065TIP3   OH230609   0.343   1.703  11.101 -0.3088 -0.4685  0.4161
 3065TIP3    H130610   0.258   1.670  11.075 -0.6003 -0.2897  1.0989
 3065TIP3    H230611   0.323   1.775  11.162  0.3292 -0.8579  1.1019
 3066TIP3   OH230612   5.597   1.308  14.132  0.1575 -0.4006  0.0073
 3066TIP3    H130613   5.566   1.316  14.222  1.9909  0.1799  0.6231
 3066TIP3    H230614   5.592   1.215  14.113 -0.3696 -0.5106  0.6503
 3067TIP3   OH230615   2.782   4.763  14.774  0.2936  0.5566 -0.1982
 3067TIP3    H130616   2.820   4.769  14.862 -3.1053 -0.4657  1.5160
 3067TIP3    H230617   2.695   4.726  14.788 -0.7710  1.2300 -3.9418
 3068TIP3   OH230618   4.274   4.001  13.419 -0.1523  0.3916  0.1401
 3068TIP3    H130619   4.356   4.016  13.372 -0.3269 -1.1061 -0.6921
 3068TIP3    H230620   4.290   3.925  13.473 -1.7308 -1.6711 -2.0795
 3069TIP3   OH230621   0.629   5.219  15.507 -0.4469  0.2961  0.4900
 3069TIP3    H130622   0.693   5.220  15.578  0.2399  0.8177 -0.1192
 3069TIP3    H230623   0.545   5.205  15.550  0.0613 -0.2916  1.3113
 3070TIP3   OH230624   3.209   0.890  11.636  0.4231 -0.1033  0.2534
 3070TIP3    H130625   3.253   0.806  11.620  0.0169 -0.6166  1.6917
 3070TIP3    H230626   3.116   0.872  11.625  0.3192  0.1036  0.7312
 3071TIP3   OH230627   0.287   1.923   6.141  0.3405 -0.6390  0.3109
 3071TIP3    H130628   0.303   1.837   6.179 -0.7490 -0.8724  0.2621
 3071TIP3    H230629   0.259   1.977   6.216  0.0891 -0.5839  0.1781
 3072TIP3   OH230630   3.256   3.373  15.707  0.2607 -0.2838 -0.3705
 3072TIP3    H130631   3.229   3.465  15.709  0.9565 -0.0729  0.9618
 3072TIP3    H230632   3.297   3.359  15.792 -1.0422 -2.2104  0.0065
 3073TIP3   OH230633   3.861   0.877  12.173  0.2693 -0.1298  0.0357
 3073TIP3    H130634   3.855   0.788  12.138  2.0029 -0.7343  1.1110
 3073TIP3    H230635   3.771   0.902  12.193 -0.2924 -1.4468 -0.7271
 3074TIP3   OH230636   2.495   3.626  11.910 -0.2473 -0.4973  0.0385
 3074TIP3    H130637   2.526   3.572  11.838 -2.1664 -0.7829 -0.6425
 3074TIP3    H230638   2.533   3.713  11.893  0.1410 -0.8139 -0.7591
 3075TIP3   OH230639   5.456   4.746  13.746 -0.0960  0.1102 -0.4884
 3075TIP3    H130640   5.454   4.779  13.836  0.5889 -0.5506 -0.2267
 3075TIP3    H230641   5.495   4.660  13.752 -0.6687 -0.2267 -1.3449
 3076TIP3   OH230642   6.622   5.311  14.643 -0.2462  0.2268  0.2586
 3076TIP3    H130643   6.674   5.258  14.582  0.8435  0.9794  0.5042
 3076TIP3    H230644   6.566   5.365  14.586  0.0873  0.2501 -0.0509
 3077TIP3   OH230645   1.924   1.207  14.426 -0.0506  0.0867 -0.4299
 3077TIP3    H130646   1.841   1.191  14.471 -0.5809  1.9011 -0.6972
 3077TIP3    H230647   1.956   1.289  14.464  1.6187 -0.5760 -0.3550
 3078TIP3   OH230648   2.343   0.904   1.783  0.2457 -0.3031 -0.0530
 3078TIP3    H130649   2.278   0.966   1.751  0.7631 -0.6349 -1.8320
 3078TIP3    H230650   2.421   0.922   1.730  1.1368 -0.9475  0.9830
 3079TIP3   OH230651   1.547   3.683   5.182  0.1752 -0.3099  0.8401
 3079TIP3    H130652   1.628   3.723   5.150  0.0649 -0.3045  0.5715
 3079TIP3    H230653   1.478   3.723   5.131  0.0365 -0.6178  0.7849
 3080TIP3   OH230654   6.557   5.770   0.340  1.0581  0.1163 -0.5403
 3080TIP3    H130655   6.540   5.862   0.361 -0.6043 -0.2927 -0.0105
 3080TIP3    H230656   6.625   5.743   0.402  0.5084  0.5917  0.2821
 3081TIP3   OH230657   4.097   4.558   6.565  0.0978  0.1841  0.1184
 3081TIP3    H130658   4.191   4.543   6.556  0.1781 -1.0233  2.2968
 3081TIP3    H230659   4.089   4.645   6.604  0.3601  0.0042  0.5788
 3082TIP3   OH230660   1.518   1.100   3.882 -0.3074 -0.1624 -0.2195
 3082TIP3    H130661   1.519   1.156   3.960  0.0983  1.0683 -1.0687
 3082TIP3    H230662   1.601   1.054   3.884 -0.4411 -0.3871  0.2477
 3083TIP3   OH230663   5.196   2.215  13.985 -0.1478  0.5941 -0.0914
 3083TIP3    H130664   5.184   2.305  13.954 -0.7699  0.3575 -0.5619
 3083TIP3    H230665   5.290   2.199  13.975  0.2692  1.7198  1.5127
 3084TIP3   OH230666   0.604   4.859   1.793 -0.9868  0.1132  0.1626
 3084TIP3    H130667   0.657   4.783   1.768 -1.5253 -0.0712 -0.4482
 3084TIP3    H230668   0.581   4.900   1.710  0.7152  1.9459  0.5248
 3085TIP3   OH230669   5.538   1.208   2.955 -0.2178 -0.6227 -0.4072
 3085TIP3    H130670   5.461   1.264   2.965  0.8828  1.2071 -1.7024
 3085TIP3    H230671   5.554   1.175   3.044 -2.5602 -1.2253 -0.1328
 3086TIP3   OH230672   2.350   0.033   3.112 -0.0528  0.2900  1.0152
 3086TIP3    H130673   2.378   0.046   3.203  0.6929 -1.3549  1.0508
 3086TIP3    H230674   2.431   0.011   3.065 -0.7309 -0.8860  0.3650
 3087TIP3   OH230675   2.395   6.608   1.826  0.0354 -0.0703  0.0389
 3087TIP3    H130676   2.461   6.563   1.774  0.6946  0.9022 -0.0065
 3087TIP3    H230677   2.411   6.579   1.916  1.3305  1.0495  0.2029
 3088TIP3   OH230678   5.069   3.114   2.716 -0.1159 -0.2727 -0.2332
 3088TIP3    H130679   5.013   3.191   2.714 -0.9382 -0.8701 -1.2746
 3088TIP3    H230680   5.140   3.133   2.654  1.0207  0.5732  1.2456
 3089TIP3   OH230681   6.161   4.011  12.615 -0.1263  0.1020  0.5823
 3089TIP3    H130682   6.211   4.030  12.535  0.2036 -1.3074  0.4279
 3089TIP3    H230683   6.104   4.087  12.626 -1.4974 -0.4306 -2.0342
 3090TIP3   OH230684   4.121   5.938   4.289  0.0105  0.1700 -0.2036
 3090TIP3    H130685   4.059   5.874   4.323  1.2655 -0.8872  0.1764
 3090TIP3    H230686   4.184   5.887   4.238  1.0559  1.0699  0.1272
 3091TIP3   OH230687   5.108   5.595   4.807 -0.2958  0.3588 -0.0524
 3091TIP3    H130688   5.050   5.656   4.852 -1.7089 -0.8214 -0.2088
 3091TIP3    H230689   5.078   5.596   4.716 -0.9059 -1.1796  0.1095
 3092TIP3   OH230690   2.387   0.159  11.530  0.8608 -0.0926 -0.2312
 3092TIP3    H130691   2.377   0.191  11.440 -0.6769 -0.9965 -0.4127
 3092TIP3    H230692   2.309   0.106  11.545  2.3528 -2.1298  0.7185
 3093TIP3   OH230693   5.559   2.680   3.380 -0.4234  0.0321 -0.5171
 3093TIP3    H130694   5.646   2.702   3.348 -0.0121 -1.4659 -0.4910
 3093TIP3    H230695   5.552   2.586   3.369 -2.2330  0.1845 -0.9372
 3094TIP3   OH230696   4.732   1.309  13.620 -0.1807 -0.0229  0.0190
 3094TIP3    H130697   4.771   1.344  13.539 -0.8514  0.1380 -0.2366
 3094TIP3    H230698   4.665   1.373  13.644 -0.4513 -0.4226  0.3288
 3095TIP3   OH230699   6.173   3.394   1.784 -0.0418  0.3581 -0.4903
 3095TIP3    H130700   6.081   3.422   1.779 -0.1648  0.1770  0.5464
 3095TIP3    H230701   6.223   3.475   1.779 -0.1688  0.3668 -2.5324
 3096TIP3   OH230702   1.259   0.731  15.796 -0.1792  1.1564  1.1227
 3096TIP3    H130703   1.183   0.746  15.739  1.4857  0.3003 -1.5036
 3096TIP3    H230704   1.302   0.654  15.758  1.2101  0.7061  3.4348
 3097TIP3   OH230705   6.521   2.297   4.198 -0.4206  0.0819  0.4951
 3097TIP3    H130706   6.578   2.339   4.134 -2.7430 -0.2139 -1.9333
 3097TIP3    H230707   6.529   2.352   4.276  1.2611  1.4385 -0.5576
 3098TIP3   OH230708   6.664   4.679  14.776 -0.0665  0.0975  0.2507
 3098TIP3    H130709   6.571   4.701  14.766  0.3481  2.1320  0.4900
 3098TIP3    H230710   6.673   4.650  14.867 -0.9167 -2.8821 -0.4986
 3099TIP3   OH230711   1.175   4.465  15.132  0.2489  0.3430  0.0656
 3099TIP3    H130712   1.240   4.412  15.086 -0.6172 -0.0423 -0.7537
 3099TIP3    H230713   1.113   4.401  15.168  0.1631  0.7149  0.5986
 3100TIP3   OH230714   4.351   4.530   1.149  0.6262  0.0413  0.1124
 3100TIP3    H130715   4.429   4.491   1.188  0.2133  1.1444  2.2169
 3100TIP3    H230716   4.283   4.521   1.217 -0.2229  1.8276 -0.4301
 3101TIP3   OH230717   0.265   6.699  13.300 -0.4677  0.2884 -0.0669
 3101TIP3    H130718   0.182   6.651  13.294  0.0545 -0.8955  1.6613
 3101TIP3    H230719   0.272   6.725  13.392  1.4246 -0.2880 -0.0083
 3102TIP3   OH230720   2.856   3.985   3.830  0.6865 -0.5805  0.0622
 3102TIP3    H130721   2.878   4.043   3.757  1.2072 -0.6561  0.1568
 3102TIP3    H230722   2.826   3.904   3.788  0.0956 -0.3040 -0.0692
 3103TIP3   OH230723   0.263   1.574  15.023 -0.5078  0.1829  0.0412
 3103TIP3    H130724   0.346   1.621  15.009 -1.5168  1.2002 -3.1935
 3103TIP3    H230725   0.273   1.493  14.974 -0.6908 -0.7288  1.4485
 3104TIP3   OH230726   5.160   3.301   0.720  0.1927 -0.2761 -0.6319
 3104TIP3    H130727   5.208   3.225   0.752  1.5738  0.6031 -0.4975
 3104TIP3    H230728   5.086   3.265   0.671  0.2785 -1.6785  0.2204
 3105TIP3   OH230729   3.574   0.199  15.155 -0.1764 -0.3293 -0.1933
 3105TIP3    H130730   3.527   0.171  15.233  2.8410 -0.3388  1.7931
 3105TIP3    H230731   3.637   0.128  15.139  1.4794  1.1765 -0.6051
 3106TIP3   OH230732   0.834   5.486   0.476  0.4527 -0.5093 -0.4353
 3106TIP3    H130733   0.856   5.550   0.408 -0.4618  1.7085  1.2384
 3106TIP3    H230734   0.919   5.453   0.506  0.9274 -0.2326 -1.4369
 3107TIP3   OH230735   2.074   4.605   4.596 -0.2370 -0.3075  0.5553
 3107TIP3    H130736   2.011   4.572   4.660  0.2321 -3.4466 -0.4175
 3107TIP3    H230737   2.039   4.575   4.511  1.8548 -1.0174 -0.1169
 3108TIP3   OH230738   2.061   4.900  10.883 -0.1996  0.1992 -0.6137
 3108TIP3    H130739   2.083   4.827  10.825 -0.3145 -1.0287  0.8224
 3108TIP3    H230740   1.966   4.901  10.887 -0.1874 -0.7780  0.7673
 3109TIP3   OH230741   1.728   1.420  16.250 -0.2485  0.0020  0.3297
 3109TIP3    H130742   1.725   1.390  16.341  3.5286 -0.6996  0.3996
 3109TIP3    H230743   1.726   1.339  16.198 -0.0764  0.2595 -0.0832
 3110TIP3   OH230744   3.607   5.786   3.877  0.3742 -0.1892 -0.3118
 3110TIP3    H130745   3.668   5.726   3.920  0.0639  0.7650  1.5617
 3110TIP3    H230746   3.527   5.735   3.864  0.0181 -0.1535  1.5205
 3111TIP3   OH230747   3.607   4.972   5.574 -0.0025  0.1939 -0.0320
 3111TIP3    H130748   3.528   5.012   5.538  0.2521 -1.7001 -3.0387
 3111TIP3    H230749   3.584   4.879   5.585  1.7770 -0.4000 -0.9711
 3112TIP3   OH230750   4.316   1.239   0.458 -0.0816  0.0425  0.0379
 3112TIP3    H130751   4.256   1.311   0.475 -0.4463  0.0400 -1.1548
 3112TIP3    H230752   4.333   1.201   0.544  0.7331  2.0148  0.7997
 3113TIP3   OH230753   6.739   5.728   5.801  0.1213 -0.2359 -0.2322
 3113TIP3    H130754   6.695   5.781   5.734  1.7937  2.4552  0.6529
 3113TIP3    H230755   6.827   5.715   5.767  0.4257 -0.4374  0.6036
 3114TIP3   OH230756   5.675   1.043  13.367 -0.2307 -0.1163  0.5696
 3114TIP3    H130757   5.669   1.075  13.458  0.3265 -0.2483  0.6564
 3114TIP3    H230758   5.760   1.075  13.336  0.3991 -1.5894  0.6880
 3115TIP3   OH230759   1.005   0.741   6.055  0.1028  0.1026  0.2851
 3115TIP3    H130760   1.034   0.650   6.057  0.0588  0.0106  4.1559
 3115TIP3    H230761   1.085   0.792   6.041  0.8609 -0.4534  2.2847
 3116TIP3   OH230762   2.296   2.435  15.364 -0.2829  0.3037 -1.0051
 3116TIP3    H130763   2.327   2.373  15.298 -0.2595 -0.7190 -0.0444
 3116TIP3    H230764   2.204   2.412  15.377 -0.4177  0.8134 -1.0050
 3117TIP3   OH230765   2.593   3.543   2.546  0.2785  0.0990  0.1503
 3117TIP3    H130766   2.532   3.539   2.472  0.8250 -1.5665 -0.2617
 3117TIP3    H230767   2.568   3.622   2.594 -0.1262  1.1979 -1.7786
 3118TIP3   OH230768   3.410   0.872   3.278 -0.1299  0.0569 -0.4109
 3118TIP3    H130769   3.382   0.931   3.347 -0.7799 -1.8449  1.0387
 3118TIP3    H230770   3.501   0.850   3.300  0.4842  1.2778 -1.5538
 3119TIP3   OH230771   6.664   6.556   1.867  0.3414  0.6794  0.3472
 3119TIP3    H130772   6.617   6.636   1.844 -1.0383 -0.2688 -0.3263
 3119TIP3    H230773   6.609   6.515   1.934  0.2754 -0.3681 -0.3259
 3120TIP3   OH230774   5.144   6.267  15.237 -0.1323  0.2078  0.1272
 3120TIP3    H130775   5.069   6.250  15.293  0.9118 -0.6236  1.3461
 3120TIP3    H230776   5.139   6.360  15.217 -0.0828  0.7423  2.3450
 3121TIP3   OH230777   0.004   3.734   1.577 -0.2601  0.4438  0.6050
 3121TIP3    H130778  -0.045   3.724   1.495 -1.7261 -0.0896  1.5143
 3121TIP3    H230779  -0.057   3.778   1.636  0.7469  0.7233  1.4548
 3122TIP3   OH230780   2.298   3.728  12.861  0.3825 -0.2422  0.2104
 3122TIP3    H130781   2.257   3.811  12.835 -0.6368 -0.7080  0.2600
 3122TIP3    H230782   2.343   3.698  12.782 -0.0132 -0.0816 -0.0790
 3123TIP3   OH230783   6.762   2.845   0.640 -0.4265  0.3694  0.1415
 3123TIP3    H130784   6.743   2.786   0.713  0.6845  0.4549  0.5299
 3123TIP3    H230785   6.778   2.787   0.566 -0.4092  0.2221  0.2595
 3124TIP3   OH230786   2.646   5.542  14.688 -0.8776 -0.1162  0.0846
 3124TIP3    H130787   2.562   5.522  14.730 -1.0679 -0.3576 -0.3963
 3124TIP3    H230788   2.702   5.468  14.708 -1.1065 -0.4422 -0.4358
 3125TIP3   OH230789   3.622   2.441  13.910 -0.4969 -0.1920 -0.3495
 3125TIP3    H130790   3.678   2.434  13.987 -0.0586 -0.0690 -0.6462
 3125TIP3    H230791   3.655   2.373  13.851 -1.8080 -1.2952  0.1593
 3126TIP3   OH230792   1.209   1.101   3.806  0.0262  0.2490  0.3465
 3126TIP3    H130793   1.258   1.180   3.827  1.3882  0.4266 -2.8655
 3126TIP3    H230794   1.261   1.030   3.843 -0.3633  0.7252  1.8705
 3127TIP3   OH230795   1.450   4.259  15.360 -0.2639 -0.3901  0.1225
 3127TIP3    H130796   1.517   4.192  15.365  0.3312  0.2048  0.3103
 3127TIP3    H230797   1.369   4.214  15.382  0.4857 -0.5093  2.9636
 3128TIP3   OH230798   2.044   0.478   1.253 -0.3610  0.4027  0.7733
 3128TIP3    H130799   1.970   0.417   1.254 -0.5288  0.5904  0.0263
 3128TIP3    H230800   2.092   0.456   1.174  0.6037  0.0401  1.4331
 3129TIP3   OH230801   4.489   2.235   2.002 -0.0757  0.1656 -0.0238
 3129TIP3    H130802   4.527   2.280   1.926 -0.1491  0.7101  0.2596
 3129TIP3    H230803   4.557   2.174   2.030  0.2424  0.4981 -0.0682
 3130TIP3   OH230804   1.638   0.128  15.274  0.7744  0.0094  0.0327
 3130TIP3    H130805   1.728   0.098  15.289  0.3476 -0.8484  1.0634
 3130TIP3    H230806   1.619   0.183  15.350  0.5662  0.5328 -0.3983
 3131TIP3   OH230807   4.649   4.951  11.474 -0.3656 -0.2607  0.2315
 3131TIP3    H130808   4.581   5.015  11.452  0.0973  0.1057 -0.1790
 3131TIP3    H230809   4.712   4.958  11.402  1.2061  0.9728  1.6304
 3132TIP3   OH230810   4.946   2.165  16.752 -0.2050  0.3190 -0.3295
 3132TIP3    H130811   4.947   2.069  16.749 -0.9178  0.2303  1.5390
 3132TIP3    H230812   4.861   2.189  16.715 -0.7872  0.1405  0.8792
 3133TIP3   OH230813   0.243   2.022   1.208  0.7881 -0.4918  0.0423
 3133TIP3    H130814   0.272   2.066   1.288 -0.2019 -0.6753  0.5114
 3133TIP3    H230815   0.308   2.047   1.143  0.3781  1.5183  0.3354
 3134TIP3   OH230816   1.983   5.540  11.088  0.5336  0.0120 -0.3630
 3134TIP3    H130817   1.987   5.533  11.184 -0.4795  1.0702 -0.2306
 3134TIP3    H230818   1.900   5.498  11.065  1.3694 -1.4217 -0.9340
 3135TIP3   OH230819   1.863   4.194  14.565  0.1800 -0.4539 -0.4901
 3135TIP3    H130820   1.786   4.139  14.547  0.4974 -1.3236  0.6793
 3135TIP3    H230821   1.833   4.257  14.630  0.1103  0.0913 -1.0375
 3136TIP3   OH230822   6.344   1.030  12.324 -0.1859 -0.1498 -0.0140
 3136TIP3    H130823   6.297   1.068  12.399  0.9649 -0.0141  0.6604
 3136TIP3    H230824   6.277   0.981  12.276 -1.5597  2.0385 -0.4605
 3137TIP3   OH230825   0.354   6.068   2.849  0.0611  0.2441 -0.3737
 3137TIP3    H130826   0.402   5.987   2.832 -1.3610 -0.8651  0.6079
 3137TIP3    H230827   0.406   6.136   2.807  2.2067 -0.9386  0.1957
 3138TIP3   OH230828   4.689   0.556  13.754 -0.1411  0.1214  0.2827
 3138TIP3    H130829   4.720   0.610  13.827 -0.5327  1.5822 -0.5825
 3138TIP3    H230830   4.769   0.519  13.717  0.4736  2.3157 -0.7496
 3139TIP3   OH230831   6.635   1.259   1.317 -0.2560 -0.0213 -0.5762
 3139TIP3    H130832   6.643   1.246   1.411  0.8260 -2.3212 -0.9246
 3139TIP3    H230833   6.721   1.235   1.282 -1.0739 -0.6590 -2.2641
 3140TIP3   OH230834   6.543   4.113  10.636  0.2502 -0.2678 -0.1516
 3140TIP3    H130835   6.610   4.163  10.681  0.0399  0.9379 -1.1163
 3140TIP3    H230836   6.461   4.141  10.676  0.1749 -0.2726 -0.3010
 3141TIP3   OH230837   5.420   4.068   2.403 -0.5104 -0.1749  0.5128
 3141TIP3    H130838   5.343   4.060   2.347 -1.3480  1.1268  1.4207
 3141TIP3    H230839   5.419   3.990   2.457 -0.8970 -0.4157  0.1607
 3142TIP3   OH230840   2.204   1.431   2.520  0.0053  0.4111  0.5902
 3142TIP3    H130841   2.284   1.425   2.468  0.5367  0.4130  1.3922
 3142TIP3    H230842   2.202   1.351   2.571 -0.7791  0.1775  0.2116
 3143TIP3   OH230843   4.444   0.884  15.330 -0.1131 -0.1162  0.5544
 3143TIP3    H130844   4.464   0.858  15.420 -1.1977  0.2842  0.9287
 3143TIP3    H230845   4.385   0.815  15.299 -2.4196  1.4022  1.3019
 3144TIP3   OH230846   0.560   5.463   1.034 -0.0996 -0.3930  0.3403
 3144TIP3    H130847   0.650   5.439   1.013 -0.1463 -0.6160  0.3996
 3144TIP3    H230848   0.513   5.456   0.951  0.1251  0.5861  0.1177
 3145TIP3   OH230849   2.890   6.225  11.521  0.3377  0.1194  0.2480
 3145TIP3    H130850   2.845   6.297  11.477  1.2003 -0.3737 -1.5170
 3145TIP3    H230851   2.926   6.264  11.600  1.4079  1.8396 -1.0162
 3146TIP3   OH230852   0.359   4.219   5.229  0.2154  0.8695  0.2827
 3146TIP3    H130853   0.321   4.242   5.314 -0.1122 -4.4579  1.9374
 3146TIP3    H230854   0.453   4.230   5.240  0.1138  1.0002  1.0527
 3147TIP3   OH230855   6.345   0.119   1.053 -0.1275 -0.0102 -0.2482
 3147TIP3    H130856   6.293   0.155   1.125 -0.7901 -0.7238 -0.3589
 3147TIP3    H230857   6.364   0.029   1.081  3.0167  0.8595  0.8579
 3148TIP3   OH230858   2.101   5.123  11.066  0.4517  0.6779 -0.1506
 3148TIP3    H130859   2.127   5.210  11.036 -2.6644  1.1519 -1.8870
 3148TIP3    H230860   2.105   5.068  10.988  0.6632 -0.3276  0.5413
 3149TIP3   OH230861   1.783   1.497  16.781  0.8853  0.4665 -0.1174
 3149TIP3    H130862   1.871   1.492  16.743  0.9394 -0.2789  0.0985
 3149TIP3    H230863   1.793   1.462  16.869  0.3753  0.4070 -0.0805
 3150TIP3   OH230864   0.610   0.284   4.647  0.2253 -0.3207  0.2276
 3150TIP3    H130865   0.656   0.366   4.627 -1.5499  0.7561  0.3368
 3150TIP3    H230866   0.621   0.273   4.741 -0.3924  0.3790  0.3924
 3151TIP3   OH230867   1.552   6.712   4.236 -0.2988  0.6182  0.0210
 3151TIP3    H130868   1.560   6.617   4.226 -2.8734  0.4587 -1.6823
 3151TIP3    H230869   1.641   6.743   4.253  1.4702 -1.6674 -3.8387
 3152TIP3   OH230870   0.150   6.747   4.942 -0.2584 -0.3694  0.2801
 3152TIP3    H130871   0.071   6.785   4.981  0.0597  1.4628 -0.7319
 3152TIP3    H230872   0.123   6.723   4.853 -0.0459 -1.0784  0.4069
 3153TIP3   OH230873   5.861   4.512  15.177  0.0571  0.3543 -0.3016
 3153TIP3    H130874   5.816   4.565  15.110 -1.5966 -1.3975 -0.6537
 3153TIP3    H230875   5.845   4.422  15.151 -1.6000 -0.4532  3.0537
 3154TIP3   OH230876   4.578   2.711   0.542 -0.2888 -0.0471  0.9418
 3154TIP3    H130877   4.632   2.636   0.520 -0.9712 -0.3074  0.1217
 3154TIP3    H230878   4.520   2.723   0.467 -0.5750  0.9521  1.2960
 3155TIP3   OH230879   3.895   2.458   6.828 -0.8661 -0.3089  0.2308
 3155TIP3    H130880   3.837   2.452   6.752 -0.9072 -0.6312  0.2847
 3155TIP3    H230881   3.911   2.366   6.853  0.4403 -0.2736 -0.3757
 3156TIP3   OH230882   0.439   3.931   3.548 -0.2439 -0.2422  0.1648
 3156TIP3    H130883   0.471   3.955   3.635  1.1264 -0.2705 -0.3119
 3156TIP3    H230884   0.505   3.872   3.513 -0.5055  0.1804 -1.1035
 3157TIP3   OH230885   0.892   1.913  15.905  0.0147 -0.5623 -0.5620
 3157TIP3    H130886   0.866   1.880  15.819 -0.4233  0.7229 -0.9611
 3157TIP3    H230887   0.963   1.975  15.887 -0.1397 -0.2123 -0.0084
 3158TIP3   OH230888   2.805   6.729   1.066  0.1757  0.2524  0.3848
 3158TIP3    H130889   2.791   6.682   0.984 -0.9378 -0.4668  0.9533
 3158TIP3    H230890   2.845   6.665   1.125 -0.4965  0.2771  0.8813
 3159TIP3   OH230891   6.207   1.377   5.123  0.8460  0.0215  0.3249
 3159TIP3    H130892   6.210   1.383   5.028  0.6551 -1.1257  0.2331
 3159TIP3    H230893   6.291   1.338   5.148 -0.2895 -2.6977  0.3181
 3160TIP3   OH230894   5.184   6.661  15.754  0.2926  0.1399  0.2075
 3160TIP3    H130895   5.280   6.661  15.746  0.3199  1.5247  0.3474
 3160TIP3    H230896   5.166   6.712  15.833 -0.5460 -0.6975  0.5738
 3161TIP3   OH230897   6.107   5.389  15.136 -0.3111 -0.0546  0.1697
 3161TIP3    H130898   6.088   5.483  15.136 -1.2307 -0.2074  1.6376
 3161TIP3    H230899   6.196   5.383  15.171  0.3122  0.3150 -1.2476
 3162TIP3   OH230900   6.371   3.840   5.097  0.1303 -0.2222  0.2258
 3162TIP3    H130901   6.395   3.841   5.189 -0.4491 -1.4153  0.4114
 3162TIP3    H230902   6.453   3.822   5.051  0.1568 -1.1919  0.6309
 3163TIP3   OH230903   0.842   1.964   6.437 -0.3261  0.3622 -1.0165
 3163TIP3    H130904   0.756   1.922   6.440 -0.0395 -0.1935 -0.0509
 3163TIP3    H230905   0.836   2.034   6.502 -0.7369  1.7324 -2.4751
 3164TIP3   OH230906   0.101   0.353   5.341  0.5180 -0.4127  0.0455
 3164TIP3    H130907   0.022   0.303   5.365  0.2982  0.1998  0.6418
 3164TIP3    H230908   0.173   0.301   5.377  0.2808 -0.2292  0.8146
 3165TIP3   OH230909   1.308   3.473   5.342 -0.3762 -0.3784  0.1200
 3165TIP3    H130910   1.292   3.512   5.428  0.9595 -0.0517  0.2377
 3165TIP3    H230911   1.284   3.542   5.280  0.7891  0.2241  0.3032
 3166TIP3   OH230912   1.532   6.016   0.340  0.0021 -0.3053  0.5032
 3166TIP3    H130913   1.453   6.032   0.287  0.0703 -0.1109  0.4604
 3166TIP3    H230914   1.602   6.004   0.276  0.5651  2.2643  0.5288
 3167TIP3   OH230915   0.340   1.342  14.879  0.7785  0.0973  0.1813
 3167TIP3    H130916   0.273   1.296  14.830  0.1282  0.7181  0.4707
 3167TIP3    H230917   0.401   1.374  14.813  0.2230  0.4292 -0.1731
 3168TIP3   OH230918   1.556   4.023  14.114  0.4876  0.1170 -0.6249
 3168TIP3    H130919   1.588   3.936  14.090 -0.5756 -0.4972  0.1183
 3168TIP3    H230920   1.479   4.006  14.168 -0.9868  1.5407 -2.1818
 3169TIP3   OH230921   4.725   1.077  15.224 -0.1659  0.1886  0.3321
 3169TIP3    H130922   4.758   1.149  15.170  0.4233 -1.0086 -0.9525
 3169TIP3    H230923   4.631   1.077  15.210  0.0121 -0.2971 -0.9762
 3170TIP3   OH230924   2.092   0.614  12.873  0.2038  0.3034 -0.2193
 3170TIP3    H130925   2.009   0.570  12.887 -0.5095  2.0980  1.5641
 3170TIP3    H230926   2.075   0.675  12.801 -0.8366  2.4004  1.6756
 3171TIP3   OH230927   4.400   5.559   0.426 -0.1376  0.2467 -1.1918
 3171TIP3    H130928   4.450   5.581   0.505 -2.3871 -2.0669  1.0633
 3171TIP3    H230929   4.441   5.480   0.392  1.4143  1.7498 -3.0438
 3172TIP3   OH230930   3.356   4.438  11.323 -0.8861  0.2461 -0.1456
 3172TIP3    H130931   3.380   4.408  11.236 -1.1854 -0.2528 -0.0629
 3172TIP3    H230932   3.439   4.454  11.367 -0.5950 -2.5985  0.5293
 3173TIP3   OH230933   4.345   0.010   1.344 -0.5016 -0.7901  0.4457
 3173TIP3    H130934   4.384  -0.074   1.319 -1.6918 -1.7640  1.7237
 3173TIP3    H230935   4.251  -0.006   1.343 -0.8439  0.9659 -0.6911
 3174TIP3   OH230936   2.732   2.077  16.153 -0.6764 -0.8846  0.1734
 3174TIP3    H130937   2.724   2.172  16.160 -1.1388 -1.0395  2.2665
 3174TIP3    H230938   2.789   2.052  16.225 -0.9748 -2.2600 -0.0356
 3175TIP3   OH230939   1.129   6.147   0.971 -0.7298  0.2012 -0.2006
 3175TIP3    H130940   1.067   6.206   0.928 -1.0130 -0.0000 -0.0674
 3175TIP3    H230941   1.133   6.070   0.916 -2.0763 -0.6096  0.7744
 3176TIP3   OH230942   4.579   1.625  12.705  0.1054 -0.4931  0.0191
 3176TIP3    H130943   4.486   1.638  12.724 -0.8474 -0.4378 -3.7627
 3176TIP3    H230944   4.606   1.555  12.764 -2.3027 -0.4440  1.3257
 3177TIP3   OH230945   1.304   2.717   0.971  0.1144 -0.0827 -0.5174
 3177TIP3    H130946   1.310   2.631   0.928  2.0959  0.0466 -0.5868
 3177TIP3    H230947   1.311   2.780   0.900  0.7653  0.1325 -0.2666
 3178TIP3   OH230948   4.328   0.631  16.425 -0.2747  0.2022 -0.1425
 3178TIP3    H130949   4.341   0.721  16.454 -0.3249  0.4814 -0.9515
 3178TIP3    H230950   4.367   0.628  16.338 -0.6163 -0.4530 -0.2799
 3179TIP3   OH230951   0.358   4.912  15.115  0.4762  0.0903 -0.0118
 3179TIP3    H130952   0.278   4.956  15.146  1.4421  1.4488  0.6433
 3179TIP3    H230953   0.416   4.984  15.091  1.4851 -0.8865 -0.5380
 3180TIP3   OH230954   5.759   2.208   2.080 -0.0796 -0.0321  0.0511
 3180TIP3    H130955   5.721   2.233   1.996  0.2809 -0.9420 -0.3867
 3180TIP3    H230956   5.684   2.203   2.140 -0.6310 -1.5123 -0.7303
 3181TIP3   OH230957   3.572   0.203   2.148  0.0294  0.1145 -0.6721
 3181TIP3    H130958   3.507   0.262   2.185 -1.6845 -0.9471 -1.8535
 3181TIP3    H230959   3.601   0.247   2.068  1.0673  0.7416  0.0218
 3182TIP3   OH230960   3.336   5.323  14.485 -0.6093 -0.3439  0.0843
 3182TIP3    H130961   3.326   5.330  14.390  1.9027  2.6525 -0.1183
 3182TIP3    H230962   3.410   5.263  14.497  0.8857  1.3603 -0.1094
 3183TIP3   OH230963   3.094   3.207  15.556  0.2176  0.1021 -0.5254
 3183TIP3    H130964   3.161   3.155  15.512  2.1987  1.6767  0.4508
 3183TIP3    H230965   3.144   3.269  15.610 -2.0460  1.4638  0.1244
 3184TIP3   OH230966   5.229   0.182   4.710 -0.2455  0.1629 -0.1668
 3184TIP3    H130967   5.216   0.251   4.774 -1.3246 -1.0767  1.0252
 3184TIP3    H230968   5.324   0.171   4.706 -0.1419  0.2139  1.3374
 3185TIP3   OH230969   0.379   0.459  15.287 -0.4075 -0.5055  0.7550
 3185TIP3    H130970   0.391   0.485  15.195 -1.1019 -0.7621  0.5794
 3185TIP3    H230971   0.296   0.500  15.312 -0.0839 -0.2084  1.3613
 3186TIP3   OH230972   5.961   4.943   6.004 -0.1632  0.2592 -0.1372
 3186TIP3    H130973   5.974   4.848   5.996  0.3518  0.3491 -0.3882
 3186TIP3    H230974   6.032   4.972   6.061 -0.7097  0.4041  0.4948
 3187TIP3   OH230975   0.439   5.812  15.118 -0.3570  0.4763 -0.0804
 3187TIP3    H130976   0.455   5.733  15.171  0.5248 -0.1440 -1.2219
 3187TIP3    H230977   0.405   5.779  15.035 -0.5262  1.3464 -0.3651
 3188TIP3   OH230978   6.280   3.164   6.234 -0.3344  0.4947  0.4666
 3188TIP3    H130979   6.277   3.074   6.269  0.5556  0.1580 -0.2873
 3188TIP3    H230980   6.253   3.155   6.143 -0.8107  1.0962  0.5406
 3189TIP3   OH230981   6.665   2.351   5.827  0.2764 -0.6380 -0.1051
 3189TIP3    H130982   6.668   2.445   5.846  0.1436 -0.6936  0.1971
 3189TIP3    H230983   6.572   2.331   5.822  0.2790 -0.3189 -2.3948
 3190TIP3   OH230984   3.663   4.786  15.728 -0.1175  0.1526  0.2415
 3190TIP3    H130985   3.746   4.812  15.768 -0.7730  1.0810  1.0620
 3190TIP3    H230986   3.681   4.701  15.688  1.1706  0.2470  0.5765
 3191TIP3   OH230987   6.706   2.455   4.023 -0.1494  0.0168  0.4554
 3191TIP3    H130988   6.703   2.464   3.928  0.3882  2.4444  0.6185
 3191TIP3    H230989   6.794   2.423   4.041 -0.4967 -1.1949  0.1354
 3192TIP3   OH230990   1.566   2.726   4.817  0.0960  0.3809 -0.3069
 3192TIP3    H130991   1.581   2.634   4.838 -2.0045  0.4467  1.9954
 3192TIP3    H230992   1.594   2.735   4.726 -0.8270 -2.8566 -1.0493
 3193TIP3   OH230993   6.243   2.526   4.808 -0.0239 -0.4660  0.8481
 3193TIP3    H130994   6.243   2.498   4.716  0.3441  1.5332  0.1932
 3193TIP3    H230995   6.246   2.444   4.858 -0.6431 -1.6133 -0.9019
 3194TIP3   OH230996   6.122   5.582  10.672  0.3095 -0.3023 -0.4451
 3194TIP3    H130997   6.035   5.602  10.638 -0.3675  0.5488  1.6161
 3194TIP3    H230998   6.166   5.535  10.601 -0.9467  1.3921 -2.4407
 3195TIP3   OH230999   5.329   1.955  13.066  0.7370 -0.2794 -0.2322
 3195TIP3    H131000   5.416   1.994  13.076 -0.3292  2.1631  0.1803
 3195TIP3    H231001   5.268   2.027  13.080 -1.4676 -2.3725  2.0755
 3196TIP3   OH231002   4.833   4.339  11.303  0.1986 -0.6111  0.1776
 3196TIP3    H131003   4.864   4.422  11.269  2.1460 -1.2850  0.1920
 3196TIP3    H231004   4.815   4.355  11.395 -1.2590  0.2231 -0.2210
 3197TIP3   OH231005   1.074   6.750   6.109 -0.3016 -0.0410  0.1307
 3197TIP3    H131006   1.030   6.672   6.142  1.6197 -1.2822 -0.1091
 3197TIP3    H231007   1.116   6.722   6.028 -2.0966  2.0667 -1.6734
 3198TIP3   OH231008   6.017   3.053   2.279 -0.1306 -0.6601 -0.1689
 3198TIP3    H131009   5.924   3.037   2.265 -0.1948 -0.5644  0.1375
 3198TIP3    H231010   6.056   3.049   2.191 -0.4069 -0.7929 -0.2862
 3199TIP3   OH231011   0.618   6.729   1.747 -0.2497 -0.0653  0.0453
 3199TIP3    H131012   0.583   6.722   1.658  1.3092  0.3690 -0.6251
 3199TIP3    H231013   0.549   6.773   1.797 -1.4601 -1.0083 -0.7359
 3200TIP3   OH231014   3.010   2.683  11.167  0.6799 -0.2807 -0.4825
 3200TIP3    H131015   2.990   2.700  11.075 -0.7818 -0.5357 -0.2294
 3200TIP3    H231016   2.925   2.671  11.209  1.3391 -0.5903  0.8308
 3201TIP3   OH231017   4.894   1.352  15.978 -0.3310  0.4728 -0.3309
 3201TIP3    H131018   4.935   1.422  15.926 -0.1521  1.1927  0.7430
 3201TIP3    H231019   4.965   1.317  16.031 -0.6026  0.0580 -0.2394
 3202TIP3   OH231020   4.491   1.882   6.427 -0.2924  0.5305 -0.0882
 3202TIP3    H131021   4.581   1.858   6.407 -0.3342  0.6492 -0.4148
 3202TIP3    H231022   4.445   1.798   6.437 -0.3938  0.4668 -1.0277
 3203TIP3   OH231023   2.947   3.014   2.556 -0.2643 -0.4649  0.5968
 3203TIP3    H131024   3.002   2.950   2.510  1.6346  1.9016 -0.7142
 3203TIP3    H231025   2.939   2.980   2.645  0.0236 -2.8490 -0.2390
 3204TIP3   OH231026   5.543   0.848   2.848  0.1468  0.3679 -1.1059
 3204TIP3    H131027   5.511   0.858   2.937  0.3018  1.2862 -1.1508
 3204TIP3    H231028   5.546   0.753   2.834 -1.9972  0.2391 -0.9151
 3205TIP3   OH231029   6.208   0.942  13.339  0.1841 -0.0646  0.0897
 3205TIP3    H131030   6.130   0.919  13.288  0.3340 -1.0115  0.2700
 3205TIP3    H231031   6.270   0.871  13.322  0.5832  0.0887  0.8538
 3206TIP3   OH231032   5.229   3.379   3.057  0.2248 -0.1545 -0.0909
 3206TIP3    H131033   5.215   3.436   3.133 -2.1528 -1.2812  0.4017
 3206TIP3    H231034   5.312   3.408   3.020  1.6737  0.1551  3.1618
 3207TIP3   OH231035   0.998   0.389   1.812 -0.4990  0.4454 -0.3151
 3207TIP3    H131036   0.943   0.318   1.778  1.5178 -1.7317  0.6740
 3207TIP3    H231037   1.083   0.375   1.770  0.0072  2.1707  0.0821
 3208TIP3   OH231038   4.859   6.473  12.467 -0.0437 -0.3019  0.1031
 3208TIP3    H131039   4.890   6.563  12.458  0.3690 -0.6028 -2.4296
 3208TIP3    H231040   4.797   6.462  12.394 -0.9357 -1.7486  1.0238
 3209TIP3   OH231041   2.502   2.455   0.190  0.5296  0.7450 -0.4403
 3209TIP3    H131042   2.414   2.415   0.189  2.0395 -3.0654  0.1372
 3209TIP3    H231043   2.490   2.539   0.233 -2.9297  0.6819 -0.9982
 3210TIP3   OH231044   6.701   0.836   3.092 -0.6338  0.5616  0.4248
 3210TIP3    H131045   6.677   0.815   3.183 -1.5264  1.5076  0.4266
 3210TIP3    H231046   6.619   0.830   3.043 -0.0018 -0.8050 -0.5129
 3211TIP3   OH231047   1.455   3.819   3.717  0.4822 -0.4474 -0.2066
 3211TIP3    H131048   1.424   3.909   3.728  0.1235 -0.7566  1.5769
 3211TIP3    H231049   1.399   3.783   3.647  0.3716  0.5818 -0.6615
 3212TIP3   OH231050   5.383   0.772   0.767  0.1293  0.2980 -0.1137
 3212TIP3    H131051   5.393   0.863   0.741 -3.0453  1.2977  1.6261
 3212TIP3    H231052   5.335   0.731   0.695 -0.3733  0.6075  0.0373
 3213TIP3   OH231053   5.806   2.708  13.581 -0.4515  0.3136  0.1810
 3213TIP3    H131054   5.857   2.784  13.555 -0.2913  0.8641  1.9434
 3213TIP3    H231055   5.815   2.647  13.508  0.7039  1.3641 -0.6036
 3214TIP3   OH231056   3.357   4.821  11.307  0.0871 -0.6020  0.3655
 3214TIP3    H131057   3.448   4.837  11.331  0.8520 -3.1402 -0.5099
 3214TIP3    H231058   3.323   4.765  11.377 -1.8411  2.6343  2.2819
 3215TIP3   OH231059   5.489   4.780   4.842  0.1652  0.4808  0.5178
 3215TIP3    H131060   5.483   4.732   4.924 -1.1511  0.4458  0.4276
 3215TIP3    H231061   5.582   4.780   4.820  0.7202  1.6090  2.6552
 3216TIP3   OH231062   3.722   4.398  14.863 -0.0775 -0.1242  0.5950
 3216TIP3    H131063   3.716   4.453  14.786 -0.5428  1.1181  1.4855
 3216TIP3    H231064   3.632   4.370  14.880  0.2220 -1.7088 -0.1943
 3217TIP3   OH231065   3.775   0.834   5.311 -0.1001 -0.5495  0.6610
 3217TIP3    H131066   3.803   0.768   5.374  0.7591 -2.9764 -2.0590
 3217TIP3    H231067   3.814   0.807   5.227 -2.8345  1.2827 -1.4048
 3218TIP3   OH231068   5.425   5.844   1.129  0.1969  0.0914  0.3283
 3218TIP3    H131069   5.495   5.784   1.103 -0.1594  0.8143 -2.6357
 3218TIP3    H231070   5.357   5.787   1.166  1.2876 -0.9056  0.8504
 3219TIP3   OH231071   0.939   1.165   3.945 -0.0755 -0.2152  0.2373
 3219TIP3    H131072   1.012   1.138   3.889  2.0304 -0.6066  2.9839
 3219TIP3    H231073   0.910   1.248   3.907  0.3951 -1.0532 -2.1199
 3220TIP3   OH231074   0.155   3.223   6.386 -0.3211 -0.1086 -0.0603
 3220TIP3    H131075   0.173   3.129   6.395  0.8978  0.0616 -0.6053
 3220TIP3    H231076   0.085   3.239   6.449  0.7798 -1.0096  1.4594
 3221TIP3   OH231077   1.339   5.745  16.780  0.4345 -0.2783  0.0716
 3221TIP3    H131078   1.423   5.703  16.761  0.6300 -0.4699  1.2738
 3221TIP3    H231079   1.350   5.835  16.750  1.0470 -0.3197  0.1459
 3222TIP3   OH231080   2.792   3.746   0.480  0.5659 -0.0235 -0.3166
 3222TIP3    H131081   2.719   3.777   0.534  0.3278 -0.8677 -0.1433
 3222TIP3    H231082   2.866   3.742   0.540  0.4565 -0.3524 -0.2056
 3223TIP3   OH231083   0.341   0.705   2.203  0.0461  0.8935 -0.1136
 3223TIP3    H131084   0.395   0.748   2.269  0.9440  1.5190 -1.2216
 3223TIP3    H231085   0.255   0.744   2.213  0.2955  1.3273  0.3673
 3224TIP3   OH231086   2.792   2.465  16.026  0.2176 -0.3201  0.5522
 3224TIP3    H131087   2.832   2.435  16.108  2.1434 -1.9415 -0.8479
 3224TIP3    H231088   2.862   2.513  15.982 -0.0614 -1.2505 -0.9965
 3225TIP3   OH231089   4.676   3.879  17.177 -0.2952 -0.5702 -0.0503
 3225TIP3    H131090   4.688   3.926  17.095 -1.3384 -0.4367 -0.1400
 3225TIP3    H231091   4.735   3.923  17.239 -0.4021  0.1131 -0.4263
 3226TIP3   OH231092   4.929   2.999   3.664 -0.1312  0.5568  0.1052
 3226TIP3    H131093   4.987   2.923   3.652  1.1991  1.6067 -0.3826
 3226TIP3    H231094   4.871   2.997   3.588  1.3997  1.2659 -1.1531
 3227TIP3   OH231095   5.613   6.071   5.714  0.0349 -0.0663 -0.1252
 3227TIP3    H131096   5.660   6.120   5.645  1.0540 -2.1377 -0.9935
 3227TIP3    H231097   5.681   6.047   5.777 -0.4765 -0.2052  0.3829
 3228TIP3   OH231098   0.224   2.191  11.602 -0.3303  0.5025 -0.2110
 3228TIP3    H131099   0.273   2.218  11.524  1.9532  1.3140  1.3913
 3228TIP3    H231100   0.195   2.273  11.642  0.1408  0.2253  0.7460
 3229TIP3   OH231101   0.597   0.765   1.230 -0.1165 -0.1919  0.4306
 3229TIP3    H131102   0.655   0.838   1.253 -1.2531  0.0573  2.9427
 3229TIP3    H231103   0.510   0.796   1.254 -1.0605 -1.2431 -1.4656
 3230TIP3   OH231104   6.768   0.078  14.335  0.9956  0.4310 -0.6225
 3230TIP3    H131105   6.768  -0.016  14.353 -0.4756  0.5122 -0.1269
 3230TIP3    H231106   6.847   0.110  14.380  1.7654 -0.6212 -1.1827
 3231TIP3   OH231107   2.255   2.802   4.782  0.8142 -0.3632 -0.4830
 3231TIP3    H131108   2.211   2.741   4.841  0.5003 -0.8302 -1.1805
 3231TIP3    H231109   2.308   2.746   4.725  0.9869  0.0661 -0.7496
 3232TIP3   OH231110   6.114   4.515  17.043 -0.1850  0.0055 -0.4132
 3232TIP3    H131111   6.180   4.583  17.035  1.1625 -1.2964 -0.7433
 3232TIP3    H231112   6.143   4.462  17.117 -1.6530  0.2294  0.3696
 3233TIP3   OH231113   3.554   4.290  15.129 -0.4716 -0.3402 -0.3478
 3233TIP3    H131114   3.501   4.307  15.207 -0.6197 -2.3169  0.0306
 3233TIP3    H231115   3.497   4.236  15.073  0.1742 -0.2004 -1.1553
 3234TIP3   OH231116   6.555   2.587   0.514  0.4366  0.4229 -0.0835
 3234TIP3    H131117   6.644   2.607   0.486  0.9111 -0.4247  0.7717
 3234TIP3    H231118   6.565   2.516   0.577 -0.8804  0.0736 -0.2437
 3235TIP3   OH231119   6.762   0.973   5.045 -0.6479 -0.8895 -0.5887
 3235TIP3    H131120   6.701   0.952   5.116  1.9976 -2.1170  1.4800
 3235TIP3    H231121   6.782   1.066   5.058  1.1820 -1.5000  1.5319
 3236TIP3   OH231122   0.484   1.102  13.277 -0.0902  0.1860  0.6492
 3236TIP3    H131123   0.497   1.155  13.356  1.6762 -0.2873  0.7152
 3236TIP3    H231124   0.468   1.014  13.310  0.2521  0.0622  0.4784
 3237TIP3   OH231125   0.932   0.547  15.340  0.4482 -0.4523 -0.1058
 3237TIP3    H131126   0.861   0.500  15.297 -0.9475  1.4051  0.0754
 3237TIP3    H231127   0.909   0.547  15.433  0.5861  0.3110 -0.0657
 3238TIP3   OH231128   0.411   3.924  11.868  0.2212  0.9420  0.0662
 3238TIP3    H131129   0.377   4.002  11.826  0.4351  1.8334  1.4965
 3238TIP3    H231130   0.504   3.922  11.844  0.4204  1.6337  0.7477
 3239TIP3   OH231131   3.013   2.438   0.934  0.5178  0.4449 -0.1887
 3239TIP3    H131132   2.934   2.419   0.882 -0.1265 -1.3973  1.3344
 3239TIP3    H231133   2.981   2.488   1.009  1.0358  0.9460 -0.3020
 3240TIP3   OH231134   0.719   4.107  10.384 -0.2655 -0.4450  0.3574
 3240TIP3    H131135   0.693   4.180  10.327 -0.7908  0.2803  1.4941
 3240TIP3    H231136   0.809   4.087  10.357  0.2371  1.2682  0.6379
 3241TIP3   OH231137   5.261   4.978   1.782 -0.4807 -0.1088 -0.1932
 3241TIP3    H131138   5.232   4.968   1.873  2.0465  1.4320  0.9033
 3241TIP3    H231139   5.250   4.891   1.744 -2.8688 -0.4757  1.1258
 3242TIP3   OH231140   4.010   2.985   5.830  0.1357 -0.1466 -0.7743
 3242TIP3    H131141   4.036   2.958   5.741 -0.4080 -2.0193 -0.4088
 3242TIP3    H231142   3.962   2.910   5.864 -1.2985  1.2775  0.4444
 3243TIP3   OH231143   4.166   1.859  12.165  0.2742 -0.2255 -0.7664
 3243TIP3    H131144   4.244   1.912  12.153 -0.6433  1.3622  0.0012
 3243TIP3    H231145   4.135   1.842  12.076  1.2605 -0.5566 -1.0609
 3244TIP3   OH231146   2.771   6.505  14.040  0.3562 -0.1590 -0.4205
 3244TIP3    H131147   2.786   6.599  14.046  0.8537 -0.3061  1.2670
 3244TIP3    H231148   2.852   6.470  14.003  0.9673 -0.0977  0.8080
 3245TIP3   OH231149   6.478   3.552  10.840 -0.5397 -0.4646  0.9521
 3245TIP3    H131150   6.408   3.558  10.774  0.2312  1.7508  0.2519
 3245TIP3    H231151   6.486   3.641  10.874  0.6017 -1.1134  2.4595
 3246TIP3   OH231152   4.963   4.191   2.397 -0.4492 -0.1231 -0.4534
 3246TIP3    H131153   4.880   4.231   2.370 -2.1999 -2.1713  1.3736
 3246TIP3    H231154   4.969   4.210   2.491 -0.6151 -2.7179  0.1597
 3247TIP3   OH231155   0.670   4.904  13.259  0.5373 -0.1986  0.0583
 3247TIP3    H131156   0.583   4.907  13.300  0.2863 -0.5675 -0.4327
 3247TIP3    H231157   0.652   4.903  13.165  1.0938  0.2311 -0.0552
 3248TIP3   OH231158   3.479   1.825   1.591  0.1420  0.1665 -0.6296
 3248TIP3    H131159   3.529   1.747   1.567  0.0192 -0.5357  1.2474
 3248TIP3    H231160   3.396   1.791   1.625 -0.0709  1.1220 -0.1609
 3249TIP3   OH231161   3.584   2.087   2.733  0.4887 -0.4295 -0.3203
 3249TIP3    H131162   3.564   2.078   2.640  1.1703 -1.2687 -0.4008
 3249TIP3    H231163   3.516   2.035   2.777 -0.4740  0.8318 -0.2624
 3250TIP3   OH231164   4.956   3.509  10.957 -0.5063 -0.4565  0.3119
 3250TIP3    H131165   4.979   3.439  10.896 -0.2478 -1.3964  1.4483
 3250TIP3    H231166   4.869   3.486  10.989 -0.6056 -0.0133  0.3663
 3251TIP3   OH231167   3.324   6.286  14.134  0.7450 -0.0834 -0.0531
 3251TIP3    H131168   3.247   6.232  14.117  2.4453 -2.3630 -1.0428
 3251TIP3    H231169   3.378   6.277  14.056  2.4598  0.6537  0.9765
 3252TIP3   OH231170   5.292   6.330  17.138  0.2990 -0.0856  0.7435
 3252TIP3    H131171   5.314   6.413  17.179  0.0630  2.1087 -3.0439
 3252TIP3    H231172   5.200   6.316  17.161 -0.0415  1.4383  0.4468
 3253TIP3   OH231173   5.974   1.883  13.993  0.0584 -0.7602  0.1182
 3253TIP3    H131174   5.916   1.949  14.031  1.3625 -0.2029  1.1878
 3253TIP3    H231175   5.950   1.881  13.901  0.2152  1.4765 -0.0223
 3254TIP3   OH231176   1.118   5.102   5.304 -0.0360  0.6022  0.1541
 3254TIP3    H131177   1.206   5.097   5.267 -0.0139 -0.3251  0.3195
 3254TIP3    H231178   1.129   5.151   5.386 -0.1204  2.8592 -1.1180
 3255TIP3   OH231179   3.280   3.453  10.867 -0.0818  0.3421  0.0597
 3255TIP3    H131180   3.322   3.379  10.823 -0.3395  0.4236 -0.3202
 3255TIP3    H231181   3.187   3.445  10.847 -0.3841 -0.3020  1.5764
 3256TIP3   OH231182   5.230   5.081  13.421 -0.4390 -0.0002 -0.6706
 3256TIP3    H131183   5.226   5.157  13.363 -0.0042  0.2054 -0.4311
 3256TIP3    H231184   5.156   5.092  13.481  0.4871  1.0291  0.3347
 3257TIP3   OH231185   3.888   6.782   0.438 -0.5562 -0.5915  0.6353
 3257TIP3    H131186   3.845   6.698   0.426 -0.3754 -0.6041  0.0260
 3257TIP3    H231187   3.856   6.814   0.523  1.0054 -2.2238  1.9139
 3258TIP3   OH231188   3.608   2.724  12.908  0.2039  0.0615  0.4399
 3258TIP3    H131189   3.517   2.724  12.878  0.5103  0.1637 -0.5250
 3258TIP3    H231190   3.646   2.645  12.868  0.9900  0.9491 -0.6186
 3259TIP3   OH231191   6.132   6.651   0.283 -0.0052 -0.3282 -0.4321
 3259TIP3    H131192   6.183   6.616   0.209  1.5776 -1.5363  1.1211
 3259TIP3    H231193   6.102   6.573   0.330  0.1164  0.3976  0.8896
 3260TIP3   OH231194   1.929   3.732   3.783 -0.1899  0.2790 -0.6311
 3260TIP3    H131195   1.947   3.825   3.797 -0.2623  0.3937 -1.2719
 3260TIP3    H231196   1.850   3.730   3.728 -1.3083 -0.1974  0.9318
 3261TIP3   OH231197   2.227   5.636  12.381  0.1673 -0.1361 -0.3127
 3261TIP3    H131198   2.230   5.724  12.418 -2.7197 -0.5460  1.1816
 3261TIP3    H231199   2.257   5.648  12.290  0.5967  2.2026  0.0593
 3262TIP3   OH231200   4.013   6.410  17.035  0.0417 -0.5186 -0.0532
 3262TIP3    H131201   3.978   6.377  16.952  0.2659 -1.7013  0.3080
 3262TIP3    H231202   4.108   6.407  17.023  0.0738  0.7570 -0.2890
 3263TIP3   OH231203   3.063   1.132   5.222 -0.2076  0.2945 -0.0141
 3263TIP3    H131204   2.993   1.160   5.282 -0.4926  0.8659 -0.6111
 3263TIP3    H231205   3.118   1.075   5.276 -0.6873  0.4715  0.6840
 3264TIP3   OH231206   6.283   0.824  11.726 -0.1608  0.1438  0.6416
 3264TIP3    H131207   6.349   0.877  11.771  1.6840 -0.4749 -1.1819
 3264TIP3    H231208   6.329   0.743  11.705 -1.0033  0.2799 -2.0376
 3265TIP3   OH231209   5.574   0.799  13.027 -0.6292  0.4680  0.3010
 3265TIP3    H131210   5.506   0.738  13.000 -1.5013  1.7751 -0.5608
 3265TIP3    H231211   5.594   0.774  13.118 -1.1603 -0.8804  0.0685
 3266TIP3   OH231212   0.017   5.925   1.785  0.9895 -0.2658 -0.4857
 3266TIP3    H131213   0.099   5.887   1.754  0.3249 -2.8447  0.6233
 3266TIP3    H231214   0.020   5.911   1.880 -0.3985  0.2817 -0.3512
 3267TIP3   OH231215   4.238   5.863  15.402 -0.0936 -0.1963  0.6663
 3267TIP3    H131216   4.215   5.808  15.327 -1.7958  0.1716  0.8784
 3267TIP3    H231217   4.279   5.941  15.364 -0.3371 -0.3132  0.1595
 3268TIP3   OH231218   5.487   0.906   5.309  0.5130  0.7747  0.3167
 3268TIP3    H131219   5.480   0.873   5.399  1.8614 -0.2342  0.0847
 3268TIP3    H231220   5.464   0.998   5.316 -2.0776  0.1500  1.2271
 3269TIP3   OH231221   3.825   3.852  14.363 -0.1501  0.6345 -0.3746
 3269TIP3    H131222   3.809   3.945  14.345  0.6686  0.7559 -0.5391
 3269TIP3    H231223   3.920   3.842  14.351 -0.1195 -0.0624  0.3760
 3270TIP3   OH231224   2.562   5.700  16.049 -0.4675 -0.2085  0.3319
 3270TIP3    H131225   2.646   5.669  16.015 -0.0824  0.5887  0.5266
 3270TIP3    H231226   2.533   5.766  15.985 -0.7850 -0.2446  0.4377
 3271TIP3   OH231227   6.526   1.164   2.746 -0.2626  0.2252 -0.1361
 3271TIP3    H131228   6.506   1.089   2.690  1.2874 -1.2277  1.1069
 3271TIP3    H231229   6.606   1.201   2.709 -1.5957  2.0102 -1.3736
 3272TIP3   OH231230   0.371   1.612   0.709 -0.2906 -0.2659  0.5413
 3272TIP3    H131231   0.383   1.517   0.710 -0.9795 -0.4009 -1.0056
 3272TIP3    H231232   0.388   1.637   0.618  0.3536  1.1728  1.0300
 3273TIP3   OH231233   4.126   1.004  13.062 -0.3955  1.0976 -0.2900
 3273TIP3    H131234   4.171   0.952  13.129 -1.7657  0.3477  0.0898
 3273TIP3    H231235   4.138   0.954  12.981 -1.2782  0.4283 -0.0202
 3274TIP3   OH231236   5.830   4.192   2.006 -0.1023 -0.2898  0.2374
 3274TIP3    H131237   5.886   4.188   1.928 -0.1456  1.5938  0.0628
 3274TIP3    H231238   5.874   4.255   2.063 -1.4906  0.3864  0.5771
 3275TIP3   OH231239   3.372   5.710  15.308 -0.1109 -0.1180  0.3060
 3275TIP3    H131240   3.434   5.724  15.237 -1.0020  3.9585  0.0950
 3275TIP3    H231241   3.418   5.737  15.387 -0.9583  1.1183  0.4046
 3276TIP3   OH231242   3.598   5.748   4.224 -0.1168 -0.2472  0.3870
 3276TIP3    H131243   3.505   5.723   4.216  0.0795 -0.4244 -2.9551
 3276TIP3    H231244   3.640   5.707   4.148  2.3768  1.2533  0.8485
 3277TIP3   OH231245   3.055   0.379  17.192  0.1282  0.2478 -0.0807
 3277TIP3    H131246   2.967   0.415  17.201  0.7167  2.0738 -1.0704
 3277TIP3    H231247   3.101   0.406  17.271  0.1404  0.3573 -0.1251
 3278TIP3   OH231248   2.203   4.702   2.117  0.0215 -0.1276  0.1846
 3278TIP3    H131249   2.132   4.766   2.107  1.3931  1.2144 -2.0311
 3278TIP3    H231250   2.237   4.717   2.205  0.2724  2.2523 -0.2568
 3279TIP3   OH231251   4.522   4.431  10.529  0.0929  0.0801 -0.1844
 3279TIP3    H131252   4.559   4.343  10.539  1.5558  0.5167 -1.3736
 3279TIP3    H231253   4.527   4.449  10.435  0.7547  1.7964  0.1370
 3280TIP3   OH231254   4.135   3.007   2.615 -0.1303 -0.4238  0.3988
 3280TIP3    H131255   4.060   2.984   2.560 -0.7770  0.1472  1.0257
 3280TIP3    H231256   4.159   2.925   2.658 -1.1946 -0.3554  1.1440
 3281TIP3   OH231257   0.742   6.339   3.772 -0.1060 -0.0477  0.2553
 3281TIP3    H131258   0.788   6.262   3.807  1.3240  0.9167  0.6092
 3281TIP3    H231259   0.702   6.380   3.849 -1.0234 -0.5238  0.0409
 3282TIP3   OH231260   0.405   3.724   2.332 -0.0280 -0.6181 -0.8248
 3282TIP3    H131261   0.397   3.818   2.316  1.9517 -0.3590 -0.6223
 3282TIP3    H231262   0.415   3.717   2.427  0.5807 -0.9346 -0.9039
 3283TIP3   OH231263   3.202   1.451   4.451  0.2788 -0.0940  0.1614
 3283TIP3    H131264   3.198   1.380   4.514  0.8662  0.9772  1.4518
 3283TIP3    H231265   3.121   1.443   4.400 -0.9242 -0.1490  1.9992
 3284TIP3   OH231266   3.950   4.746   3.047  0.2174  0.2230 -0.0644
 3284TIP3    H131267   3.950   4.829   2.997  2.9155  1.6296  1.9905
 3284TIP3    H231268   3.872   4.751   3.102 -0.6005  0.5343 -1.2077
 3285TIP3   OH231269   1.692   5.072  14.207 -0.0167 -0.2611 -0.3127
 3285TIP3    H131270   1.767   5.013  14.214  0.6080  0.6095  0.7047
 3285TIP3    H231271   1.717   5.148  14.260 -1.6755 -0.0034  0.1556
 3286TIP3   OH231272   5.387   5.414   4.570  0.2168  0.4911  0.5685
 3286TIP3    H131273   5.475   5.377   4.581  0.7055  1.3410 -0.2622
 3286TIP3    H231274   5.390   5.497   4.618  0.1204  0.8679 -0.0559
 3287TIP3   OH231275   3.146   5.060  10.907 -0.5431 -0.3126 -0.7425
 3287TIP3    H131276   3.214   5.082  10.970 -1.3911  0.2442  0.0036
 3287TIP3    H231277   3.169   5.110  10.829 -0.2940  0.1531 -0.3755
 3288TIP3   OH231278   2.085   6.118  16.426 -0.0426 -0.3374 -0.1663
 3288TIP3    H131279   2.113   6.026  16.430  1.7102  0.1664  2.8306
 3288TIP3    H231280   1.989   6.114  16.422 -0.0112 -2.3150  0.1124
 3289TIP3   OH231281   4.753   1.708   5.026  0.1918  0.6413 -0.0837
 3289TIP3    H131282   4.682   1.772   5.033 -1.2350 -1.0325  1.8159
 3289TIP3    H231283   4.803   1.719   5.107 -0.9125 -1.4944  0.9717
 3290TIP3   OH231284   3.897   3.095  14.392 -0.2419  0.3692 -0.1294
 3290TIP3    H131285   3.986   3.060  14.381  0.8097  2.5761  0.7054
 3290TIP3    H231286   3.893   3.122  14.484 -1.4239  1.2202 -0.4025
 3291TIP3   OH231287   3.779   0.129  12.458  0.4119  0.5399 -0.3060
 3291TIP3    H131288   3.840   0.180  12.510  1.7327  1.2995 -2.4702
 3291TIP3    H231289   3.752   0.189  12.387  0.4268 -1.1004 -1.7613
 3292TIP3   OH231290   4.640   3.351   2.649 -0.2110 -0.3495 -0.1401
 3292TIP3    H131291   4.661   3.445   2.650  1.5658 -0.6881 -1.1456
 3292TIP3    H231292   4.633   3.327   2.741  1.2159  0.4146  0.2061
 3293TIP3   OH231293   5.006   1.735  11.660  0.4292  0.0222  0.2538
 3293TIP3    H131294   4.935   1.737  11.724  0.5863 -0.4728  0.4487
 3293TIP3    H231295   5.032   1.827  11.649  0.5228  0.0917  1.0308
 3294TIP3   OH231296   0.502   6.791   0.174  0.3557  0.1933  0.4751
 3294TIP3    H131297   0.572   6.844   0.212 -1.1735  3.3022 -0.6973
 3294TIP3    H231298   0.519   6.794   0.080  0.0210 -1.2235  0.3444
 3295TIP3   OH231299   5.788   3.195   1.299  0.0379 -0.2663 -0.3996
 3295TIP3    H131300   5.777   3.173   1.391 -1.0465  1.6351 -0.0157
 3295TIP3    H231301   5.750   3.121   1.252  0.1336 -1.0277  0.6825
 3296TIP3   OH231302   6.650   0.083  12.854 -0.8405 -0.6484  0.6277
 3296TIP3    H131303   6.702   0.162  12.837  2.1450 -2.0993  2.2236
 3296TIP3    H231304   6.649   0.036  12.771  1.3982 -1.0729  0.7981
 3297TIP3   OH231305   0.730   6.399   2.934 -0.2654  0.0456  0.3466
 3297TIP3    H131306   0.733   6.307   2.907 -2.2500  0.0401 -0.0460
 3297TIP3    H231307   0.669   6.401   3.008 -2.1762  1.3013 -1.1471
 3298TIP3   OH231308   2.417   0.421  12.118 -0.2719  0.4898  0.7636
 3298TIP3    H131309   2.502   0.462  12.136  0.5473 -0.3560 -0.9920
 3298TIP3    H231310   2.393   0.377  12.200  0.8702  0.9203  1.3437
 3299TIP3   OH231311   4.701   2.945  13.916 -0.2676 -0.4819 -0.0336
 3299TIP3    H131312   4.612   2.936  13.881 -0.6444 -0.6347  0.9279
 3299TIP3    H231313   4.689   2.949  14.011  0.3761  3.6589  0.0656
 3300TIP3   OH231314   5.077   0.701   1.930  0.4032 -0.4451  0.0801
 3300TIP3    H131315   5.109   0.775   1.880  1.8440 -0.8571  0.3370
 3300TIP3    H231316   5.024   0.650   1.868 -2.2191  1.6998  0.3682
 3301TIP3   OH231317   5.685   4.358  14.875 -0.0449 -0.3275  0.7048
 3301TIP3    H131318   5.743   4.366  14.800 -0.1715  1.9889  0.7911
 3301TIP3    H231319   5.645   4.444  14.884 -1.0806 -0.9468  2.6016
 3302TIP3   OH231320   1.084   2.008   4.835  0.3547  0.2564  0.1904
 3302TIP3    H131321   1.153   1.941   4.839  2.0870  1.9965  1.4724
 3302TIP3    H231322   1.027   1.988   4.910 -2.3105 -2.7955 -2.3445
 3303TIP3   OH231323   6.096   2.006  14.311 -0.3388  0.2494 -0.5299
 3303TIP3    H131324   6.181   1.973  14.340  0.3676  1.3969 -1.2397
 3303TIP3    H231325   6.033   1.956  14.363  0.7689 -0.2968  0.3449
 3304TIP3   OH231326   5.833   5.307   4.203 -0.3003  0.3169 -0.2234
 3304TIP3    H131327   5.738   5.308   4.216 -0.0127  0.3111  2.4461
 3304TIP3    H231328   5.844   5.277   4.113 -2.7977 -1.8841  0.0581
 3305TIP3   OH231329   3.486   4.548  16.866 -0.1485  0.0991  0.0665
 3305TIP3    H131330   3.467   4.640  16.885  0.5980  0.4190 -0.6592
 3305TIP3    H231331   3.538   4.550  16.785 -0.1832 -0.9663 -0.0058
 3306TIP3   OH231332   4.712   3.214  17.009  0.6669 -0.3387 -0.4835
 3306TIP3    H131333   4.629   3.262  17.005  0.5105 -0.6961 -1.9153
 3306TIP3    H231334   4.766   3.265  17.070  0.1628  1.1403 -1.2211
 3307TIP3   OH231335   6.396   5.787  13.616  0.1016 -0.2752  0.8121
 3307TIP3    H131336   6.364   5.876  13.630 -1.6320 -0.9347  1.2336
 3307TIP3    H231337   6.434   5.761  13.700  0.6977  0.0864  0.6597
 3308TIP3   OH231338   6.554   6.274  11.636 -0.0124  0.2269  0.4736
 3308TIP3    H131339   6.501   6.342  11.678  1.6793  1.0956  1.2520
 3308TIP3    H231340   6.641   6.312  11.628  0.2000 -0.6386 -2.1127
 3309TIP3   OH231341   5.755   2.703   4.215  0.0053 -0.8312  0.1064
 3309TIP3    H131342   5.712   2.634   4.265  1.0324 -0.7966  1.0938
 3309TIP3    H231343   5.697   2.720   4.141 -0.9786 -1.7198  0.6538
 3310TIP3   OH231344   4.488   3.452   3.302 -0.0830  0.2817 -0.5546
 3310TIP3    H131345   4.419   3.510   3.335  1.2300  0.8293  1.4015
 3310TIP3    H231346   4.471   3.369   3.347  1.6114  0.9815  1.5546
 3311TIP3   OH231347   5.817   2.082   5.776  0.7072  0.1470  0.1998
 3311TIP3    H131348   5.761   2.044   5.708  1.0469  1.4123 -0.8219
 3311TIP3    H231349   5.891   2.022   5.782  0.1816 -0.5172  0.1959
 3312TIP3   OH231350   0.823   5.684   0.285  0.2896 -0.0577 -0.9741
 3312TIP3    H131351   0.815   5.649   0.196 -0.3684 -0.8656 -0.6085
 3312TIP3    H231352   0.848   5.775   0.272 -1.4346  0.3277 -2.0514
 3313TIP3   OH231353   3.208   6.379   3.177  0.4849  1.0865 -0.2558
 3313TIP3    H131354   3.248   6.292   3.187  1.8163  1.8037  1.1665
 3313TIP3    H231355   3.206   6.394   3.083 -3.8088 -2.2046 -1.0014
 3314TIP3   OH231356   0.318   6.337  10.522  0.2654  0.3975 -0.3470
 3314TIP3    H131357   0.282   6.422  10.495 -0.5899  0.1033 -0.1574
 3314TIP3    H231358   0.375   6.311  10.449 -0.0044  0.8160 -0.7128
 3315TIP3   OH231359   5.779   3.740   1.573 -0.2050 -0.6678  0.2292
 3315TIP3    H131360   5.760   3.652   1.540 -0.2124 -0.8853  0.8101
 3315TIP3    H231361   5.843   3.775   1.510 -2.1751 -0.0660 -1.5560
 3316TIP3   OH231362   3.666   3.545   4.143  0.1846 -0.3375 -0.0492
 3316TIP3    H131363   3.646   3.563   4.051  0.3194  1.1115  0.1725
 3316TIP3    H231364   3.584   3.512   4.179 -0.3002  0.4882 -0.3651
 3317TIP3   OH231365   4.009   0.567  14.935 -0.3965 -0.4213 -0.1834
 3317TIP3    H131366   4.000   0.473  14.948  0.9289 -0.6873 -0.9475
 3317TIP3    H231367   3.932   0.605  14.977 -1.7842 -1.9375 -1.2637
 3318TIP3   OH231368   2.797   1.431   3.935 -0.2584 -0.6397 -0.5009
 3318TIP3    H131369   2.860   1.366   3.902  0.3549 -1.0222  1.2903
 3318TIP3    H231370   2.794   1.498   3.867  0.6044 -1.5777 -1.5095
 3319TIP3   OH231371   3.474   1.604   1.333  0.5092  0.1197  0.4334
 3319TIP3    H131372   3.536   1.604   1.260 -0.4130 -2.1389 -0.4386
 3319TIP3    H231373   3.529   1.590   1.411  1.3299  0.6940 -0.0246
 3320TIP3   OH231374   6.430   1.332  13.934  0.2753 -0.1412 -0.0422
 3320TIP3    H131375   6.419   1.356  13.842 -0.6346 -1.1315 -0.2144
 3320TIP3    H231376   6.355   1.372  13.978  0.0948 -0.6136  0.0789
 3321TIP3   OH231377   0.895   5.397  12.154 -0.0312  0.1221 -0.7912
 3321TIP3    H131378   0.827   5.392  12.221  0.2245  0.6799 -0.4852
 3321TIP3    H231379   0.847   5.405  12.071 -0.3563  2.8140 -0.4055
 3322TIP3   OH231380   1.460   6.579  12.891 -0.3135  0.6166  0.1245
 3322TIP3    H131381   1.549   6.606  12.915  0.2642  0.2398 -1.4438
 3322TIP3    H231382   1.444   6.501  12.943 -0.1052  1.2147  1.1104
 3323TIP3   OH231383   6.161   5.169  12.560  0.3704 -0.0104  0.0544
 3323TIP3    H131384   6.179   5.137  12.472 -0.5610 -1.0428  0.2284
 3323TIP3    H231385   6.209   5.109  12.618  0.4674  0.2859  0.2871
 3324TIP3   OH231386   6.288   0.858  14.592 -0.1528  0.2483  0.1703
 3324TIP3    H131387   6.279   0.764  14.578 -0.2980  0.4977 -1.5502
 3324TIP3    H231388   6.232   0.899  14.527  0.2721  1.5458  0.5748
 3325TIP3   OH231389   0.252   6.706  12.832  0.7803  0.6445  0.0924
 3325TIP3    H131390   0.291   6.619  12.842  0.3264  0.4376  0.1197
 3325TIP3    H231391   0.184   6.694  12.765 -0.3267  0.6062  1.1789
 3326TIP3   OH231392   2.786   5.492   5.546 -0.0864 -0.2735 -0.3467
 3326TIP3    H131393   2.841   5.445   5.609  0.6484 -1.2810 -1.6937
 3326TIP3    H231394   2.703   5.444   5.548  0.9917 -2.4511 -2.4923
 3327TIP3   OH231395   5.635   0.932   5.669 -0.4438  0.2484  0.1059
 3327TIP3    H131396   5.600   1.020   5.684  0.3942  0.1511  3.4067
 3327TIP3    H231397   5.709   0.946   5.611  0.0125  1.8270  1.0016
 3328TIP3   OH231398   2.857   4.286  13.721  0.4773  0.6739  0.1915
 3328TIP3    H131399   2.825   4.242  13.642 -0.6066  0.8335  0.5284
 3328TIP3    H231400   2.860   4.379  13.697  0.4485  0.6868  0.2391
 3329TIP3   OH231401   5.014   2.813  16.003  0.2230  0.3061  0.1324
 3329TIP3    H131402   5.056   2.887  16.049 -1.8487  1.4092  0.3907
 3329TIP3    H231403   4.924   2.814  16.035 -0.3088 -1.2577 -1.2091
 3330TIP3   OH231404   0.125   0.756   2.912  0.3825 -0.3058 -0.0031
 3330TIP3    H131405   0.186   0.829   2.922  2.3181 -1.7972 -0.3562
 3330TIP3    H231406   0.074   0.756   2.994 -0.5304  2.1167 -0.4931
 3331TIP3   OH231407   1.527   4.525  16.206 -0.2297 -0.2860  0.1656
 3331TIP3    H131408   1.497   4.533  16.296 -0.3224  2.1704 -0.0137
 3331TIP3    H231409   1.461   4.469  16.164 -2.0737  1.2705  0.8536
 3332TIP3   OH231410   4.853   6.545   5.431 -0.4891  0.4944 -0.2383
 3332TIP3    H131411   4.816   6.628   5.462  0.1980  0.3228  1.1632
 3332TIP3    H231412   4.946   6.552   5.452 -0.4545 -0.7010  0.0632
 3333TIP3   OH231413   5.625   5.381  11.499 -0.3279 -0.4013 -0.7069
 3333TIP3    H131414   5.603   5.396  11.407 -0.5864 -0.0837 -0.5956
 3333TIP3    H231415   5.553   5.421  11.547 -0.8530 -1.6787 -0.3840
 3334TIP3   OH231416   1.594   3.077   4.838 -0.6279 -0.6035 -0.0607
 3334TIP3    H131417   1.578   2.984   4.851  0.7302 -0.8251  0.1872
 3334TIP3    H231418   1.579   3.116   4.924  1.0965 -0.9754  0.4593
 3335TIP3   OH231419   4.716   4.165  12.987 -0.3247  0.6272  0.1197
 3335TIP3    H131420   4.684   4.126  13.068 -3.5807 -3.8865 -2.8130
 3335TIP3    H231421   4.658   4.239  12.972  0.7477  1.9433  2.0655
 3336TIP3   OH231422   4.090   1.421  16.353 -0.5199  0.6006  0.1899
 3336TIP3    H131423   4.032   1.404  16.427  1.7281  0.8060  2.1093
 3336TIP3    H231424   4.053   1.497  16.310 -2.4457 -0.1331  0.4637
 3337TIP3   OH231425   2.112   4.859   2.714 -0.5154  0.0072  0.2344
 3337TIP3    H131426   2.064   4.939   2.736 -0.1412  0.0146  1.0521
 3337TIP3    H231427   2.189   4.861   2.771  0.7472  0.2613 -1.4252
 3338TIP3   OH231428   3.665   0.760   3.394  0.3194  0.1567 -0.0364
 3338TIP3    H131429   3.654   0.699   3.467  0.3666 -0.8325 -0.8252
 3338TIP3    H231430   3.753   0.741   3.361  0.0700  0.1646 -0.7174
 3339TIP3   OH231431   0.355   0.957  12.646 -0.0876 -0.6229 -0.4153
 3339TIP3    H131432   0.377   1.009  12.724 -0.7183 -0.2473 -0.4775
 3339TIP3    H231433   0.306   0.882  12.679 -1.9910  0.4818 -0.5700
 3340TIP3   OH231434   6.626   2.830   1.812 -0.0634  0.4951 -0.2001
 3340TIP3    H131435   6.615   2.740   1.782  0.5596  0.1244  0.6153
 3340TIP3    H231436   6.720   2.846   1.804 -0.0787  0.8443  0.2707
 3341TIP3   OH231437   0.666   5.758  13.954  0.2864 -0.2705 -0.2244
 3341TIP3    H131438   0.684   5.787  14.043 -2.2339  1.2873 -0.1210
 3341TIP3    H231439   0.713   5.675  13.946  2.6614  0.7856  1.6444
 3342TIP3   OH231440   1.502   5.647   5.069 -0.3736 -0.3538  0.1653
 3342TIP3    H131441   1.584   5.689   5.043 -0.3409  0.5081  1.5666
 3342TIP3    H231442   1.491   5.671   5.161 -0.3464 -3.3882  1.0938
 3343TIP3   OH231443   0.290   4.376  15.352  0.3841 -0.2653  0.6807
 3343TIP3    H131444   0.247   4.341  15.274 -0.4934  0.2562  0.9117
 3343TIP3    H231445   0.381   4.391  15.325  0.1033 -0.1248 -0.2272
 3344TIP3   OH231446   3.215   6.795  16.443  0.2484 -0.1458 -0.2932
 3344TIP3    H131447   3.236   6.795  16.536  0.4273 -1.2743 -0.3130
 3344TIP3    H231448   3.300   6.782  16.400  0.3162  1.3858 -0.6788
 3345TIP3   OH231449   3.563   2.963  13.912 -0.2842 -0.4859  0.8185
 3345TIP3    H131450   3.519   3.035  13.868 -0.5970  0.4252  2.5461
 3345TIP3    H231451   3.573   2.992  14.003 -1.0610 -2.8726  1.7620
 3346TIP3   OH231452   1.995   2.320   6.609 -0.4256  0.3116 -0.0779
 3346TIP3    H131453   1.949   2.346   6.529  1.3458 -0.3571 -1.3989
 3346TIP3    H231454   1.962   2.232   6.628  0.6768 -0.4386 -1.4008
 3347TIP3   OH231455   6.530   0.187  16.438 -0.0873  0.1107 -0.1900
 3347TIP3    H131456   6.594   0.175  16.368 -0.6755  0.4087 -0.7789
 3347TIP3    H231457   6.576   0.240  16.504  1.4943 -2.5340  1.0188
 3348TIP3   OH231458   3.032   0.694   3.005 -0.8608  0.4071  0.2338
 3348TIP3    H131459   3.118   0.684   3.046 -0.2753  2.0693 -0.4666
 3348TIP3    H231460   2.988   0.762   3.057 -0.7226  1.3863 -0.8721
 3349TIP3   OH231461   1.743   1.969  13.742 -0.0358  0.4711  0.4512
 3349TIP3    H131462   1.682   2.029  13.787 -1.5487  0.8697 -1.9638
 3349TIP3    H231463   1.816   2.025  13.716  0.5473  0.3651  1.7753
 3350TIP3   OH231464   0.726   3.622   1.899 -0.2129  0.0583 -0.4783
 3350TIP3    H131465   0.663   3.604   1.968 -1.7375  0.9637 -1.5655
 3350TIP3    H231466   0.782   3.691   1.935 -1.6900  1.3204 -0.4847
 3351TIP3   OH231467   0.697   6.166   0.678  0.2763 -0.2148  0.0645
 3351TIP3    H131468   0.743   6.143   0.758  0.4057 -0.8147 -0.1777
 3351TIP3    H231469   0.624   6.104   0.673 -0.7213  0.8605  0.5666
 3352TIP3   OH231470   1.301   2.523   4.025 -0.3892  0.4963  0.4978
 3352TIP3    H131471   1.328   2.431   4.026  0.2597  0.6236 -1.3188
 3352TIP3    H231472   1.371   2.569   4.072  0.1565  0.2389 -0.0436
 3353TIP3   OH231473   3.944   1.803   2.688  0.4247 -0.4218  0.0011
 3353TIP3    H131474   3.947   1.713   2.720 -0.4335 -0.1583  0.8886
 3353TIP3    H231475   3.875   1.802   2.621  0.0399 -0.3258  0.3883
 3354TIP3   OH231476   4.086   6.368  14.221  0.5956  0.3676  0.1637
 3354TIP3    H131477   4.176   6.374  14.188  1.2044 -0.9049  1.4642
 3354TIP3    H231478   4.094   6.322  14.305 -1.0018  2.5014  1.6025
 3355TIP3   OH231479   5.229   3.282   1.244  0.0888 -0.2654  0.0103
 3355TIP3    H131480   5.200   3.373   1.234 -1.5767 -0.8082 -0.5156
 3355TIP3    H231481   5.179   3.234   1.178 -0.0643 -1.7617  1.1635
 3356TIP3   OH231482   0.837   5.103  14.568  0.1320 -0.2439 -0.2075
 3356TIP3    H131483   0.879   5.183  14.598  0.1199  0.0122 -0.8645
 3356TIP3    H231484   0.778   5.079  14.639  0.6279 -0.0397  0.2771
 3357TIP3   OH231485   1.118   6.219   5.474 -0.3411 -0.8452  0.1242
 3357TIP3    H131486   1.211   6.200   5.463 -0.1225  0.6344 -0.8252
 3357TIP3    H231487   1.110   6.248   5.565  0.2595 -0.3662  0.0318
 3358TIP3   OH231488   1.376   4.446   6.555  0.0914 -0.5812  0.3691
 3358TIP3    H131489   1.361   4.423   6.464  1.5883 -0.8554  0.1647
 3358TIP3    H231490   1.289   4.467   6.589 -0.3124  1.0239 -1.5073
 3359TIP3   OH231491   2.262   1.901  16.164  0.3002 -0.3142  0.7014
 3359TIP3    H131492   2.282   1.862  16.249  0.2155  0.1421  0.9406
 3359TIP3    H231493   2.348   1.915  16.123  0.3056 -1.1724  0.4147
 3360TIP3   OH231494   3.465   2.175   4.905  0.4462 -0.5218 -0.1977
 3360TIP3    H131495   3.469   2.245   4.969  0.6186 -1.5456  0.9342
 3360TIP3    H231496   3.376   2.180   4.870  1.2576  2.0137 -2.2187
 3361TIP3   OH231497   4.627   2.481   2.438 -0.5297  0.6931 -0.1537
 3361TIP3    H131498   4.641   2.403   2.384  0.1721  0.3055  0.5659
 3361TIP3    H231499   4.709   2.492   2.486 -0.5563  1.9828 -0.3567
 3362TIP3   OH231500   4.758   4.336   2.291 -0.1585  0.9209 -0.3335
 3362TIP3    H131501   4.774   4.339   2.196  1.6273 -1.5085 -0.2251
 3362TIP3    H231502   4.693   4.404   2.307  0.0634  1.9402 -3.1804
 3363TIP3   OH231503   0.540   2.271  16.741  0.8551  0.1777 -0.4331
 3363TIP3    H131504   0.548   2.361  16.708 -1.4747  0.6397  0.0174
 3363TIP3    H231505   0.542   2.216  16.663  0.9718  0.7378 -0.8330
 3364TIP3   OH231506   5.239   3.975  13.862 -0.1161 -0.4473 -0.3258
 3364TIP3    H131507   5.295   4.028  13.918 -0.6843  0.4797 -0.6129
 3364TIP3    H231508   5.200   3.911  13.921  0.7908 -0.7321 -0.0238
 3365TIP3   OH231509   0.237   2.740   1.940 -0.4438 -0.4538 -0.0684
 3365TIP3    H131510   0.174   2.782   1.881  0.4511  1.5167  0.2727
 3365TIP3    H231511   0.269   2.664   1.892 -0.8154  0.2788 -1.5401
 3366TIP3   OH231512   4.064   5.550  16.260 -0.8155  0.4151  0.8381
 3366TIP3    H131513   4.064   5.490  16.335  1.5774  3.1471  3.2646
 3366TIP3    H231514   4.122   5.508  16.196  1.1983  0.2397  2.6678
 3367TIP3   OH231515   2.554   1.187  11.644  0.1768  0.1285 -0.0149
 3367TIP3    H131516   2.541   1.093  11.645  0.7662  0.0294 -0.9495
 3367TIP3    H231517   2.466   1.224  11.643 -0.0635 -0.3908  0.7394
 3368TIP3   OH231518   5.520   1.295  13.197 -0.2445  0.0097 -0.0642
 3368TIP3    H131519   5.586   1.249  13.249 -0.0719 -0.0985 -0.3749
 3368TIP3    H231520   5.551   1.286  13.107 -1.2964 -1.0699 -0.3427
 3369TIP3   OH231521   6.446   2.225  15.175  0.4398  0.3640  0.1887
 3369TIP3    H131522   6.491   2.297  15.131 -1.7916  1.1025 -1.0779
 3369TIP3    H231523   6.388   2.268  15.239  1.2000 -0.5161  1.5114
 3370TIP3   OH231524   0.283   1.023  10.653  0.0690  0.0884 -0.0417
 3370TIP3    H131525   0.232   1.090  10.607 -0.0811  1.1559  1.5730
 3370TIP3    H231526   0.241   1.016  10.739  1.3385 -0.5770  0.5551
 3371TIP3   OH231527   2.121   2.487   4.591  0.1585  0.1358 -0.0221
 3371TIP3    H131528   2.032   2.464   4.562 -0.1135 -0.2473  1.0850
 3371TIP3    H231529   2.117   2.580   4.610 -0.2044 -0.0155  0.6794
 3372TIP3   OH231530   1.798   6.760   2.279 -0.2996 -0.3371 -0.1257
 3372TIP3    H131531   1.881   6.742   2.234 -0.2442 -2.5093  0.6883
 3372TIP3    H231532   1.755   6.674   2.283 -1.2999  0.1977  1.9312
 3373TIP3   OH231533   0.777   2.211   6.040 -0.0751  0.4251  0.4716
 3373TIP3    H131534   0.735   2.183   5.958  0.2777  2.0613 -0.3129
 3373TIP3    H231535   0.731   2.161   6.108 -1.5227  0.2460 -0.5750
 3374TIP3   OH231536   5.682   6.212   6.741  0.3263 -0.0949  0.1447
 3374TIP3    H131537   5.736   6.254   6.674  0.4864 -0.1364  0.2462
 3374TIP3    H231538   5.644   6.285   6.790  1.8179 -0.0439  1.2969
 3375TIP3   OH231539   3.862   0.948   1.693 -0.5138  0.5106  0.0060
 3375TIP3    H131540   3.800   0.905   1.753  0.3319  0.1883  0.6763
 3375TIP3    H231541   3.818   0.948   1.608 -0.8988 -0.8977  0.1862
 3376TIP3   OH231542   0.299   2.447  13.008  0.7703  0.0579 -0.0098
 3376TIP3    H131543   0.324   2.525  13.057 -0.1086  0.9721 -0.9764
 3376TIP3    H231544   0.204   2.440  13.019  0.6594 -0.1255 -0.9643
 3377TIP3   OH231545   3.762   4.469  14.568 -0.0259  0.4103  0.1097
 3377TIP3    H131546   3.707   4.391  14.575 -1.7009  1.6806  2.7077
 3377TIP3    H231547   3.733   4.512  14.487  0.7860 -1.4570 -1.2526
 3378TIP3   OH231548   2.351   0.930  13.896  0.5326  0.2385  0.2334
 3378TIP3    H131549   2.413   1.000  13.876 -0.8697  1.6616  0.6338
 3378TIP3    H231550   2.310   0.957  13.979 -1.6929  0.1647 -0.7625
 3379TIP3   OH231551   6.260   1.683  16.943 -0.1259  0.8039 -0.3384
 3379TIP3    H131552   6.251   1.711  17.034  0.3922  0.5310 -0.2018
 3379TIP3    H231553   6.215   1.598  16.939  0.4556  0.4887 -0.1746
 3380TIP3   OH231554   3.172   5.688   1.644  0.0223 -0.2228  0.2791
 3380TIP3    H131555   3.229   5.683   1.567  0.4869 -1.8701  0.6924
 3380TIP3    H231556   3.232   5.697   1.717 -0.0862 -3.1366  0.8376
 3381TIP3   OH231557   5.499   3.742   3.745  0.0150 -0.2339  0.2844
 3381TIP3    H131558   5.483   3.828   3.706  0.3443 -0.1151  0.4059
 3381TIP3    H231559   5.415   3.697   3.739 -0.8489  0.9523  2.3473
 3382TIP3   OH231560   6.222   3.159   3.269 -0.3009  0.5458 -0.2461
 3382TIP3    H131561   6.276   3.172   3.346 -0.1231 -0.6923 -0.1401
 3382TIP3    H231562   6.279   3.113   3.207 -0.0996  2.4211 -1.5500
 3383TIP3   OH231563   5.814   0.931   1.242 -0.4210  0.3158 -0.2010
 3383TIP3    H131564   5.895   0.973   1.211 -0.1349 -0.9402 -1.2434
 3383TIP3    H231565   5.810   0.954   1.335  1.5526 -0.1993  0.0695
 3384TIP3   OH231566   2.242   6.536  17.002  0.0232 -0.1578  0.0810
 3384TIP3    H131567   2.228   6.484  16.923 -0.0829 -1.2585  0.8013
 3384TIP3    H231568   2.250   6.471  17.072 -0.1261  0.8014  1.0083
 3385TIP3   OH231569   6.535   1.183  14.157 -0.2573 -0.2641  0.0745
 3385TIP3    H131570   6.490   1.230  14.087 -0.3051  0.5746  0.6592
 3385TIP3    H231571   6.527   1.091  14.133 -0.7809 -0.0203 -0.7159
 3386TIP3   OH231572   6.771   0.516  14.464  0.0255 -0.2636 -0.4421
 3386TIP3    H131573   6.688   0.565  14.458  0.5703  0.7754  0.2064
 3386TIP3    H231574   6.766   0.452  14.393 -0.6166  0.9206 -1.5146
 3387TIP3   OH231575   4.048   2.113   1.747 -0.2165  0.0477  0.1870
 3387TIP3    H131576   4.138   2.134   1.773  0.2876  0.2421 -1.6157
 3387TIP3    H231577   4.013   2.065   1.822  2.1335 -2.0579  0.0878
 3388TIP3   OH231578   2.936   3.333   3.274  0.1292  0.5711  0.5105
 3388TIP3    H131579   3.030   3.317   3.264 -0.2119 -1.1853 -0.2480
 3388TIP3    H231580   2.908   3.368   3.190  0.0481  0.8084  0.6347
 3389TIP3   OH231581   5.955   5.699   1.413 -0.1131  0.4774 -0.0032
 3389TIP3    H131582   6.017   5.722   1.482  0.1087  0.2348 -0.1165
 3389TIP3    H231583   5.983   5.611   1.385 -1.0154  0.0087  0.5192
 3390TIP3   OH231584   4.973   0.602  13.587 -0.7071 -0.6458  0.3437
 3390TIP3    H131585   4.926   0.645  13.516  1.0004 -0.9335 -1.0317
 3390TIP3    H231586   4.933   0.515  13.593 -0.9181 -0.5919 -0.2224
 3391TIP3   OH231587   2.326   5.322   6.213  0.2749 -0.0212  0.4598
 3391TIP3    H131588   2.262   5.377   6.259  1.0588 -0.7551  2.5347
 3391TIP3    H231589   2.334   5.363   6.127 -0.7364  1.8627  1.1926
 3392TIP3   OH231590   1.289   6.781  12.954  0.1058  0.2985 -0.0549
 3392TIP3    H131591   1.338   6.706  12.921  0.6537  0.0385  1.2858
 3392TIP3    H231592   1.244   6.816  12.877 -0.4041 -1.5757 -0.6639
 3393TIP3   OH231593   1.967   5.267   2.999  0.6474  0.3237  0.1312
 3393TIP3    H131594   1.891   5.320   2.976  0.1233 -1.0549 -1.4709
 3393TIP3    H231595   1.934   5.204   3.063  0.8750  0.7894  0.7269
 3394TIP3   OH231596   3.111   6.281   1.405  0.3343 -0.3124  0.5723
 3394TIP3    H131597   3.116   6.186   1.388 -0.7546  0.0913 -2.8909
 3394TIP3    H231598   3.050   6.289   1.478  1.0667 -2.2900  1.4678
 3395TIP3   OH231599   5.261   3.925  11.912  0.1608  0.3974  0.3091
 3395TIP3    H131600   5.271   3.839  11.953 -3.1566 -0.4371 -0.3593
 3395TIP3    H231601   5.318   3.921  11.835  0.1039 -1.2086  0.3187
 3396TIP3   OH231602   6.712   5.371  13.240 -0.0057 -0.4547  0.3558
 3396TIP3    H131603   6.697   5.464  13.259 -2.2862 -0.5730 -0.5596
 3396TIP3    H231604   6.793   5.370  13.188  0.8032  0.8449  1.5351
 3397TIP3   OH231605   3.061   0.665   4.196 -0.3181  0.7415 -0.5668
 3397TIP3    H131606   3.015   0.705   4.122  0.0954  0.2251 -1.1062
 3397TIP3    H231607   3.141   0.717   4.205 -0.1623  0.5332 -0.7559
 3398TIP3   OH231608   2.254   1.778  12.150 -0.0204  0.2512 -0.1965
 3398TIP3    H131609   2.319   1.726  12.197  0.3428  0.2204 -0.7217
 3398TIP3    H231610   2.194   1.714  12.114  0.1108  0.2291 -0.3763
 3399TIP3   OH231611   4.210   2.841  17.140 -0.2630 -0.3157  0.4467
 3399TIP3    H131612   4.145   2.895  17.184  2.0483  1.3577  2.0915
 3399TIP3    H231613   4.202   2.865  17.047 -0.1359  2.0409  0.9772
 3400TIP3   OH231614   3.369   5.645   3.842 -0.2607 -0.2656  0.4985
 3400TIP3    H131615   3.333   5.695   3.769 -3.2867 -1.6937  0.8505
 3400TIP3    H231616   3.314   5.667   3.917 -0.2598 -2.3173  1.1883
 3401TIP3   OH231617   1.480   2.031  15.108  0.0974 -0.5602  0.7793
 3401TIP3    H131618   1.438   1.992  15.031  0.1033  0.2391  0.3595
 3401TIP3    H231619   1.571   2.004  15.102  0.6129  1.2604 -0.7320
 3402TIP3   OH231620   6.720   1.532  11.472 -0.2073  0.1070 -0.3909
 3402TIP3    H131621   6.728   1.447  11.428  2.2436  0.2365 -0.2932
 3402TIP3    H231622   6.724   1.597  11.402  0.2758  0.2192 -0.2574
 3403TIP3   OH231623   1.667   2.656   3.145 -0.1019  0.4477  0.4767
 3403TIP3    H131624   1.757   2.660   3.113 -0.4123  1.2434 -0.3233
 3403TIP3    H231625   1.658   2.567   3.180  0.6007 -0.0671 -0.5996
 3404TIP3   OH231626   6.513   2.573   2.111  0.7131  0.1102 -0.2209
 3404TIP3    H131627   6.602   2.601   2.089 -0.1450  1.7418 -1.9073
 3404TIP3    H231628   6.461   2.596   2.034 -1.0143 -1.7171  0.3296
 3405TIP3   OH231629   6.715   2.717  14.780  0.9404 -0.2540  0.0444
 3405TIP3    H131630   6.810   2.718  14.788  0.9114 -1.1939  0.7983
 3405TIP3    H231631   6.698   2.740  14.689  2.0724 -3.2630 -1.0497
 3406TIP3   OH231632   3.863   2.678  11.358  0.4644 -0.2408  0.0669
 3406TIP3    H131633   3.837   2.664  11.267  0.4458 -0.4415  0.1021
 3406TIP3    H231634   3.803   2.624  11.409  0.5313 -0.1979  0.1929
 3407TIP3   OH231635   1.039   2.501   2.989 -0.3516  0.9551  0.1545
 3407TIP3    H131636   0.988   2.555   3.049 -0.4159  0.5476  0.4701
 3407TIP3    H231637   0.975   2.467   2.927 -0.7039 -0.5666  1.2827
 3408TIP3   OH231638   6.155   4.234  14.926 -0.0192 -0.8384  0.1749
 3408TIP3    H131639   6.079   4.203  14.976 -0.4568 -0.0144  0.0385
 3408TIP3    H231640   6.164   4.326  14.951 -2.3598  0.6717 -3.6940
 3409TIP3   OH231641   5.727   5.440   2.679  0.4176 -0.6402  0.0998
 3409TIP3    H131642   5.690   5.477   2.599  0.7251 -1.4063 -0.4007
 3409TIP3    H231643   5.663   5.376   2.708 -0.8615  1.2840  1.8165
 3410TIP3   OH231644   4.915   3.032   5.747 -0.2326  0.1187 -0.4329
 3410TIP3    H131645   4.850   3.088   5.790 -0.2961  0.4810 -0.9974
 3410TIP3    H231646   5.000   3.069   5.773 -0.0960 -1.9879  2.6018
 3411TIP3   OH231647   1.059   4.632   0.712  0.2917  0.5445  0.1156
 3411TIP3    H131648   1.148   4.597   0.709 -0.7513 -2.3875  0.2403
 3411TIP3    H231649   1.030   4.615   0.802 -0.7724  0.3936 -0.2450
 3412TIP3   OH231650   5.401   3.648   5.285 -0.4264  0.3053  1.3066
 3412TIP3    H131651   5.489   3.664   5.317  0.3239 -0.4556 -0.2374
 3412TIP3    H231652   5.392   3.704   5.208 -0.8187 -0.5011  0.7416
 3413TIP3   OH231653   0.311   2.890  16.572  0.4416  0.3532  0.3839
 3413TIP3    H131654   0.242   2.936  16.524  0.4940  0.4013  0.3535
 3413TIP3    H231655   0.267   2.814  16.611  0.4347  0.2252  0.1274
 3414TIP3   OH231656   5.487   2.841   1.905 -0.1808  0.4287 -0.6171
 3414TIP3    H131657   5.428   2.829   1.979 -1.2671  1.6302 -1.2591
 3414TIP3    H231658   5.518   2.753   1.884 -2.5391 -0.3822 -0.8971
 3415TIP3   OH231659   4.260   1.205   1.974  0.2282  0.2866 -0.3696
 3415TIP3    H131660   4.270   1.287   2.022 -4.7465  1.6433 -1.1030
 3415TIP3    H231661   4.168   1.202   1.949  0.6902 -4.3173 -2.7535
 3416TIP3   OH231662   2.795   2.799   3.406 -0.3617  0.4534  0.4793
 3416TIP3    H131663   2.819   2.760   3.322 -3.3166 -0.9548  0.1691
 3416TIP3    H231664   2.876   2.839   3.438  1.6414 -1.7102 -1.5184
 3417TIP3   OH231665   2.733   1.611   1.795 -0.1536  0.6772 -0.0025
 3417TIP3    H131666   2.754   1.518   1.791 -1.0954  0.4704 -0.3294
 3417TIP3    H231667   2.772   1.641   1.877  2.2404  0.5447 -0.9955
 3418TIP3   OH231668   0.580   6.011  11.631  0.3254  0.5926  0.6116
 3418TIP3    H131669   0.666   5.975  11.651 -0.0010 -0.4005  0.3017
 3418TIP3    H231670   0.578   6.096  11.676  1.9423  1.2272 -0.4481
 3419TIP3   OH231671   1.177   2.038  13.288 -0.7884  0.4095 -0.1798
 3419TIP3    H131672   1.246   2.093  13.325  0.6454 -1.0972 -0.4767
 3419TIP3    H231673   1.135   2.093  13.222 -0.7536  1.8011  0.9277
 3420TIP3   OH231674   0.509   4.903   1.553 -0.3430 -0.5763  0.3183
 3420TIP3    H131675   0.518   4.941   1.466 -0.2675 -1.4139 -0.0579
 3420TIP3    H231676   0.416   4.881   1.561 -0.0095 -2.5699 -0.4961
 3421TIP3   OH231677   0.011   3.353   2.657  0.0157  0.1702  0.6973
 3421TIP3    H131678   0.011   3.418   2.587  1.4146  0.4136  0.8967
 3421TIP3    H231679  -0.029   3.275   2.618 -0.3899  0.7063  0.0298
 3422TIP3   OH231680   5.634   5.829  16.229 -0.4218 -0.6105  0.4296
 3422TIP3    H131681   5.628   5.924  16.222 -1.2757 -0.7556 -1.5328
 3422TIP3    H231682   5.692   5.814  16.304 -0.3002  1.4359  0.8065
 3423TIP3   OH231683   5.558   1.448  15.480 -0.0136 -0.5730  0.2416
 3423TIP3    H131684   5.631   1.467  15.421 -0.8707 -0.6432 -0.8889
 3423TIP3    H231685   5.589   1.472  15.567  1.3171 -0.5315 -0.2337
 3424TIP3   OH231686   5.409   1.591  13.596  0.1737 -0.5875 -0.2170
 3424TIP3    H131687   5.438   1.630  13.678  0.5817 -0.6389 -0.3357
 3424TIP3    H231688   5.343   1.652  13.562  0.2850 -0.3714 -0.0444
 3425TIP3   OH231689   6.149   3.404  16.891 -0.1402 -0.4038 -0.1930
 3425TIP3    H131690   6.121   3.490  16.860  0.5909 -0.8312 -2.2156
 3425TIP3    H231691   6.199   3.423  16.970 -1.4331  0.8403  0.3917
 3426TIP3   OH231692   5.665   3.924  12.302 -0.2007  0.1378  0.2936
 3426TIP3    H131693   5.569   3.931  12.304 -0.3175 -1.3655  1.4651
 3426TIP3    H231694   5.682   3.855  12.238  0.2272  1.5041 -1.1376
 3427TIP3   OH231695   3.533   3.151  12.292  0.1664 -0.3867 -0.2125
 3427TIP3    H131696   3.516   3.216  12.224 -1.4992 -1.4974 -0.9115
 3427TIP3    H231697   3.513   3.197  12.374  0.4303  0.4121 -0.5843
 3428TIP3   OH231698   5.537   6.443  13.803  0.1926  0.2939 -0.4378
 3428TIP3    H131699   5.524   6.348  13.806  3.0128 -0.1688  0.4008
 3428TIP3    H231700   5.518   6.473  13.892 -0.1758  0.4473 -0.5656
 3429TIP3   OH231701   2.255   0.375   3.641  0.2801  0.4530  0.0835
 3429TIP3    H131702   2.167   0.412   3.643 -0.0439 -0.3143  1.5562
 3429TIP3    H231703   2.312   0.450   3.656 -0.3032  0.5716  1.9062
 3430TIP3   OH231704   0.882   6.177  12.806  0.0265  0.2346 -0.4780
 3430TIP3    H131705   0.954   6.238  12.794  0.5172  0.1710  1.6585
 3430TIP3    H231706   0.844   6.200  12.891 -2.0756 -0.1636 -1.2349
 3431TIP3   OH231707   4.230   0.538  12.404  0.8843  0.6768 -0.3819
 3431TIP3    H131708   4.170   0.478  12.360 -0.6679 -0.1465  2.5617
 3431TIP3    H231709   4.317   0.507  12.379  0.1171 -2.0012 -0.1014
 3432TIP3   OH231710   4.079   5.555   3.551  0.0781 -0.4311  0.6109
 3432TIP3    H131711   4.053   5.567   3.643 -2.0719 -0.3165  0.0328
 3432TIP3    H231712   4.003   5.583   3.501  0.4313 -2.4377 -1.1668
 3433TIP3   OH231713   2.044   5.318  11.580  0.0823 -0.7270 -0.0872
 3433TIP3    H131714   1.950   5.306  11.588  0.2068 -1.2308  0.8314
 3433TIP3    H231715   2.060   5.329  11.487 -1.1156  1.4974 -0.0839
 3434TIP3   OH231716   6.753   1.103  13.575 -0.0036  0.0961  0.5616
 3434TIP3    H131717   6.725   1.194  13.571  3.4389  1.2747 -3.4479
 3434TIP3    H231718   6.690   1.055  13.521  0.7354  1.1189 -1.3026
 3435TIP3   OH231719   5.508   3.235   3.812  0.7027  0.6520 -0.0374
 3435TIP3    H131720   5.508   3.186   3.895  0.0672  0.9326  0.1348
 3435TIP3    H231721   5.589   3.285   3.814  0.7380  0.5836  0.3794
 3436TIP3   OH231722   1.041   5.691   2.087 -0.3162 -0.3887 -0.0640
 3436TIP3    H131723   1.116   5.682   2.027  0.3764 -0.3429  0.7738
 3436TIP3    H231724   0.995   5.769   2.056 -0.7172 -1.1086 -1.3257
 3437TIP3   OH231725   5.277   3.994  16.542  0.0420  0.1018  0.4274
 3437TIP3    H131726   5.184   3.969  16.537 -0.1434  1.0287 -2.4945
 3437TIP3    H231727   5.279   4.085  16.512  1.7126  0.8815  2.5977
 3438TIP3   OH231728   4.503   5.923  13.514  0.0833 -0.3155  0.4046
 3438TIP3    H131729   4.512   5.986  13.585 -2.1264  0.3689  0.1572
 3438TIP3    H231730   4.581   5.935  13.461  0.6761  0.7565  1.4773
 3439TIP3   OH231731   6.454   1.977  12.706  0.3017  0.0714  0.1222
 3439TIP3    H131732   6.510   1.920  12.653 -0.9334 -0.4801 -0.6129
 3439TIP3    H231733   6.408   2.032  12.643 -1.2369 -0.6344  0.5991
 3440TIP3   OH231734   4.636   1.753  14.226 -0.3235  1.1333  0.3791
 3440TIP3    H131735   4.664   1.828  14.279 -1.6969  1.8769  0.0970
 3440TIP3    H231736   4.626   1.789  14.138 -1.5064  0.7497  0.3518
 3441TIP3   OH231737   3.505   6.097   3.442 -0.5528 -0.3669 -0.1513
 3441TIP3    H131738   3.435   6.087   3.506 -0.2210 -0.0459  0.2701
 3441TIP3    H231739   3.569   6.155   3.485  1.0698 -2.4113  0.3777
 3442TIP3   OH231740   4.663   4.785  14.073  0.1542  0.6349  0.0763
 3442TIP3    H131741   4.657   4.718  14.141 -0.4920  0.2190 -0.3718
 3442TIP3    H231742   4.685   4.865  14.120 -0.0177  0.2978  0.7449
 3443TIP3   OH231743   6.760   6.172   4.483 -0.2978  0.2043 -1.0002
 3443TIP3    H131744   6.672   6.185   4.448 -1.2703  0.2658  1.2509
 3443TIP3    H231745   6.810   6.134   4.411 -2.7181 -1.7369 -1.7942
 3444TIP3   OH231746   1.466   6.135   1.671 -1.2191  0.4149  0.1893
 3444TIP3    H131747   1.469   6.228   1.648  0.1018  0.0220 -1.4800
 3444TIP3    H231748   1.392   6.100   1.621 -1.9049  0.6070  1.0533
 3445TIP3   OH231749   5.448   3.483  14.792  0.8332 -0.1164 -0.1665
 3445TIP3    H131750   5.438   3.521  14.879  0.6855  0.6240 -0.4993
 3445TIP3    H231751   5.522   3.530  14.753  0.0709  0.4802 -0.9230
 3446TIP3   OH231752   6.574   3.333  16.269 -0.0223  0.1711  0.2758
 3446TIP3    H131753   6.577   3.420  16.309 -1.3254  1.0410 -1.3473
 3446TIP3    H231754   6.583   3.272  16.342  0.9342  1.6535  1.4558
 3447TIP3   OH231755   1.759   3.880   0.785  0.0431  0.4671  0.0776
 3447TIP3    H131756   1.822   3.890   0.713 -1.4265  0.1954 -1.3096
 3447TIP3    H231757   1.812   3.860   0.861  1.6230  0.1195 -1.0693
 3448TIP3   OH231758   5.641   3.213   3.288 -0.2485  0.2772  0.0496
 3448TIP3    H131759   5.702   3.243   3.221  1.2688 -0.0777  1.1956
 3448TIP3    H231760   5.625   3.121   3.267 -1.1342  0.6130 -0.7768
 3449TIP3   OH231761   0.202   2.696   2.468 -0.5592  0.2335  0.4351
 3449TIP3    H131762   0.113   2.669   2.443  0.0704 -3.1432  1.3472
 3449TIP3    H231763   0.194   2.791   2.483 -4.0062  0.0946  0.4763
 3450TIP3   OH231764   1.950   0.073  12.345  0.5362 -0.0897  0.3121
 3450TIP3    H131765   1.929  -0.014  12.378 -2.4767  0.8205  1.1199
 3450TIP3    H231766   1.947   0.130  12.422 -1.9088  1.3290 -0.7006
 3451TIP3   OH231767   4.656   3.396  14.265 -0.3997 -0.2290  0.6614
 3451TIP3    H131768   4.719   3.331  14.232  0.0998  1.0721 -1.0833
 3451TIP3    H231769   4.696   3.480  14.245 -2.5943  0.6463 -0.3278
 3452TIP3   OH231770   5.582   3.944   0.295 -0.1928 -0.4126  0.1761
 3452TIP3    H131771   5.590   3.914   0.386 -0.5873 -1.1869 -0.0444
 3452TIP3    H231772   5.594   3.866   0.242 -1.2179 -0.1912 -0.4069
 3453TIP3   OH231773   2.149   4.131  16.524  0.3643 -0.7423  0.6976
 3453TIP3    H131774   2.126   4.039  16.514  0.2168 -0.6708  0.3547
 3453TIP3    H231775   2.150   4.165  16.435 -1.0478 -0.0599  0.9173
 3454TIP3   OH231776   5.357   5.129   2.885  0.5877 -0.7797 -0.8221
 3454TIP3    H131777   5.271   5.103   2.852 -0.0131 -1.0097  0.8281
 3454TIP3    H231778   5.361   5.223   2.872 -1.1001 -0.2859  1.5148
 3455TIP3   OH231779   6.078   5.609  11.655 -0.6284 -0.0338  0.6393
 3455TIP3    H131780   5.994   5.579  11.690 -1.1379  0.1934 -0.3668
 3455TIP3    H231781   6.055   5.676  11.591  0.1377 -1.7600 -1.5539
 3456TIP3   OH231782   4.492   0.080  14.614 -0.1864  0.3039  1.1972
 3456TIP3    H131783   4.530   0.152  14.563  1.6475 -1.7808 -0.6179
 3456TIP3    H231784   4.475   0.118  14.700 -1.7906  3.5712 -0.3538
 3457TIP3   OH231785   2.562   2.144  12.303 -0.4257 -0.2875  0.1062
 3457TIP3    H131786   2.493   2.175  12.244 -0.2492  0.5288  0.3136
 3457TIP3    H231787   2.522   2.070  12.348 -0.7009 -0.6657 -0.7398
 3458TIP3   OH231788   6.425   0.634   3.713 -0.4880 -0.4181 -0.1310
 3458TIP3    H131789   6.417   0.549   3.757  2.1138 -0.6813 -0.0319
 3458TIP3    H231790   6.419   0.698   3.784 -0.4379 -0.6353  0.0718
 3459TIP3   OH231791   0.496   4.275  16.702  0.0557 -0.2305 -0.2861
 3459TIP3    H131792   0.439   4.236  16.768 -0.8844  0.9067 -0.3802
 3459TIP3    H231793   0.513   4.364  16.735  0.1072  0.1271 -1.2458
 3460TIP3   OH231794   1.491   3.387   2.923  0.0749  0.1135 -0.4702
 3460TIP3    H131795   1.443   3.311   2.890 -1.1409  0.8452 -0.4480
 3460TIP3    H231796   1.548   3.352   2.991 -1.5702 -0.5888  0.6050
 3461TIP3   OH231797   2.298   2.022  12.011  0.0067 -0.4633 -0.3650
 3461TIP3    H131798   2.275   1.935  12.045  0.3051 -1.2086 -1.9606
 3461TIP3    H231799   2.279   2.016  11.917 -0.3025  1.3272 -0.4395
 3462TIP3   OH231800   2.633   1.961  15.083 -0.0578 -0.3269  0.1400
 3462TIP3    H131801   2.622   2.029  15.149  2.4388 -0.4574  0.7721
 3462TIP3    H231802   2.696   1.997  15.021 -1.7806 -0.5002 -1.8610
 3463TIP3   OH231803   0.337   1.161  14.300  0.0207  0.1658 -0.0362
 3463TIP3    H131804   0.295   1.083  14.264 -0.5386  0.6268 -0.4237
 3463TIP3    H231805   0.366   1.210  14.223 -1.2238  1.1880  0.0943
 3464TIP3   OH231806   6.259   3.752  10.939  1.1167  0.1105 -0.5112
 3464TIP3    H131807   6.177   3.745  10.891  0.4301  0.1569  0.6127
 3464TIP3    H231808   6.301   3.831  10.905 -0.5956  1.6441  0.7642
 3465TIP3   OH231809   0.563   4.774   5.231 -0.6017  0.2871  0.0282
 3465TIP3    H131810   0.472   4.798   5.218 -0.7434  0.6496  1.4692
 3465TIP3    H231811   0.586   4.812   5.316  0.7106 -0.3229 -0.0208
 3466TIP3   OH231812   4.464   4.666  12.588  0.2663 -0.4230  0.7489
 3466TIP3    H131813   4.441   4.575  12.570 -1.7650  0.4762 -2.0367
 3466TIP3    H231814   4.444   4.712  12.506  2.2855  2.3671  1.6753
 3467TIP3   OH231815   4.294   1.026   3.380 -0.7540 -0.4159 -0.6674
 3467TIP3    H131816   4.269   0.976   3.458 -2.1587 -0.4222 -1.1007
 3467TIP3    H231817   4.334   0.961   3.322 -1.9907 -0.9331 -0.9658
 3468TIP3   OH231818   2.959   4.105   3.586 -0.3612 -0.0494  0.1860
 3468TIP3    H131819   3.034   4.105   3.526  0.0597  0.5774  0.6861
 3468TIP3    H231820   2.895   4.162   3.543 -0.8348 -1.1054 -0.5567
 3469TIP3   OH231821   5.060   3.712  15.632 -0.0732  0.2261 -0.4249
 3469TIP3    H131822   5.063   3.695  15.726 -0.9091 -2.6258 -0.8212
 3469TIP3    H231823   5.097   3.800  15.623 -0.1306  0.6819  2.5550
 3470TIP3   OH231824   3.199   5.546  14.293  0.4234  0.2769 -0.0778
 3470TIP3    H131825   3.112   5.548  14.251  0.5089 -2.1049 -0.5228
 3470TIP3    H231826   3.180   5.555  14.386 -0.3902 -0.7430 -0.1187
 3471TIP3   OH231827   3.686   0.562  10.582 -0.2969 -0.0337  0.3264
 3471TIP3    H131828   3.686   0.513  10.664 -1.4184  0.9424  0.9489
 3471TIP3    H231829   3.604   0.537  10.539 -1.5551  2.1346  1.2526
 3472TIP3   OH231830   0.374   5.561   5.307 -0.5350 -0.7559  0.2849
 3472TIP3    H131831   0.305   5.604   5.256  1.3152 -0.6809 -2.3882
 3472TIP3    H231832   0.384   5.615   5.385 -0.9029  1.4686 -1.1220
 3473TIP3   OH231833   5.305   3.115   1.450  0.4260  0.1911 -0.1179
 3473TIP3    H131834   5.262   3.170   1.385 -0.7571  0.7340  1.0790
 3473TIP3    H231835   5.346   3.176   1.510  0.1128 -0.2542  0.5600
 3474TIP3   OH231836   1.921   4.889  14.203  0.0296 -0.1013 -0.0363
 3474TIP3    H131837   1.926   4.910  14.109 -0.5643 -0.2493 -0.1118
 3474TIP3    H231838   1.997   4.931  14.242 -0.7081  1.5286 -0.2951
 3475TIP3   OH231839   3.021   4.021  15.433  0.6447 -0.3927 -0.3569
 3475TIP3    H131840   3.090   4.047  15.494 -1.5984 -0.5655  2.4322
 3475TIP3    H231841   3.062   3.954  15.379  3.4295  1.4086 -0.7400
 3476TIP3   OH231842   6.411   5.735  16.082 -0.3589 -0.1866  0.1248
 3476TIP3    H131843   6.501   5.729  16.113 -0.6735 -2.3083  0.7701
 3476TIP3    H231844   6.410   5.686  16.000 -0.7506  0.6430 -0.3837
 3477TIP3   OH231845   0.062   0.580  16.762 -0.0492  0.8160 -0.0659
 3477TIP3    H131846  -0.022   0.627  16.759  0.3540  1.5153 -0.7913
 3477TIP3    H231847   0.126   0.647  16.787  0.3545  0.3812  0.0807
 3478TIP3   OH231848   0.897   0.777   2.666  0.0833  0.8597 -0.4546
 3478TIP3    H131849   0.973   0.808   2.715  0.3814  2.3420 -1.7463
 3478TIP3    H231850   0.913   0.808   2.576 -0.9387 -0.8106 -1.2638
 3479TIP3   OH231851   0.386   2.026   4.294 -0.2469 -0.5145  0.6177
 3479TIP3    H131852   0.321   2.036   4.363  1.4646  0.9128  2.1486
 3479TIP3    H231853   0.416   2.116   4.277 -0.6252 -0.8087 -2.0597
 3480TIP3   OH231854   4.470   3.488   5.136 -0.0193 -0.0642 -0.5728
 3480TIP3    H131855   4.529   3.501   5.210 -0.5966  1.4485 -0.3582
 3480TIP3    H231856   4.499   3.552   5.071  2.2790 -3.1125 -2.8850
 3481TIP3   OH231857   3.692   3.967  14.128 -0.0407 -0.6998 -0.3875
 3481TIP3    H131858   3.692   4.023  14.051 -0.2802 -0.5031 -0.2473
 3481TIP3    H231859   3.784   3.948  14.145 -0.0317 -1.5077 -1.2679
 3482TIP3   OH231860   2.648   2.816  12.850 -0.0961  0.3739 -0.0314
 3482TIP3    H131861   2.556   2.838  12.837 -0.3164 -0.8590 -0.7166
 3482TIP3    H231862   2.678   2.788  12.764  1.1440  1.4790  0.0120
 3483TIP3   OH231863   0.969   3.686   4.220 -0.5430  0.0003 -0.5764
 3483TIP3    H131864   0.906   3.699   4.149  2.3489 -0.0062 -3.3980
 3483TIP3    H231865   0.998   3.774   4.243 -0.1521 -0.0837 -0.7361
 3484TIP3   OH231866   4.961   6.193  13.164  0.8052 -0.2257  0.0746
 3484TIP3    H131867   4.874   6.228  13.144  0.5741 -1.1358 -0.5521
 3484TIP3    H231868   5.009   6.199  13.081  1.8659  1.6592  0.7471
 3485TIP3   OH231869   2.477   0.584   4.222  0.2358  0.3239 -0.0486
 3485TIP3    H131870   2.565   0.584   4.182  0.7108 -1.1430  0.9366
 3485TIP3    H231871   2.490   0.623   4.308  0.0936 -0.6728  0.4323
 3486TIP3   OH231872   0.504   6.358  14.704 -0.1286 -0.2243 -0.2054
 3486TIP3    H131873   0.488   6.336  14.612  0.2345  0.3272 -0.4060
 3486TIP3    H231874   0.554   6.439  14.701  0.6720 -0.6793  0.4654
 3487TIP3   OH231875   3.429   2.618  13.421  0.2397  0.1479  0.7920
 3487TIP3    H131876   3.395   2.575  13.499 -0.2372  0.3648  0.7078
 3487TIP3    H231877   3.524   2.609  13.428  0.2097  0.3597  1.5097
 3488TIP3   OH231878   1.644   4.023  16.076 -0.3950  0.5380  0.0883
 3488TIP3    H131879   1.725   4.045  16.121 -0.0457  0.4943 -0.5186
 3488TIP3    H231880   1.591   3.979  16.143 -0.7035  2.2657  1.0500
 3489TIP3   OH231881   5.476   1.884  14.665 -0.6985 -0.0692  0.8458
 3489TIP3    H131882   5.500   1.843  14.748  0.3925  0.1801  0.6796
 3489TIP3    H231883   5.439   1.813  14.612  0.5186 -0.7192  0.8142
 3490TIP3   OH231884   3.367   3.812  13.249  0.2389  0.1344  0.0714
 3490TIP3    H131885   3.406   3.818  13.335  0.9837 -1.8536 -0.0716
 3490TIP3    H231886   3.425   3.753  13.200  0.0922  1.5435 -1.9475
 3491TIP3   OH231887   1.192   0.254  16.690 -0.0584 -0.3104  0.5774
 3491TIP3    H131888   1.148   0.224  16.610 -1.5126 -1.0873  1.6071
 3491TIP3    H231889   1.284   0.230  16.678  0.1853  1.4123 -1.6805
 3492TIP3   OH231890   6.093   0.631  16.541 -0.5288  0.0436  0.0620
 3492TIP3    H131891   6.141   0.568  16.595 -0.6734  0.2629  0.4542
 3492TIP3    H231892   6.101   0.713  16.588 -3.3833 -0.3839  1.5140
 3493TIP3   OH231893   4.132   1.509   0.174  0.5892  0.2224 -0.0323
 3493TIP3    H131894   4.126   1.413   0.181  0.5637  0.1974 -0.4025
 3493TIP3    H231895   4.185   1.524   0.096  1.2209  0.5047  0.4442
 3494TIP3   OH231896   6.419   4.177   2.293  0.4008  0.4097 -0.2526
 3494TIP3    H131897   6.348   4.205   2.352 -0.2597 -1.4988 -0.0722
 3494TIP3    H231898   6.379   4.176   2.206  0.4070 -0.0231 -0.2493
 3495TIP3   OH231899   5.876   1.417   1.880  0.3316 -0.6857  0.1232
 3495TIP3    H131900   5.830   1.333   1.873  0.9985 -1.0142 -0.5022
 3495TIP3    H231901   5.956   1.404   1.828  0.6223  0.2119  0.3410
 3496TIP3   OH231902   1.093   6.607   4.937 -0.2781  0.3343  0.7350
 3496TIP3    H131903   1.097   6.593   4.843 -0.1021 -0.6065  0.8754
 3496TIP3    H231904   1.121   6.524   4.976 -1.3716  0.3523  1.6308
 3497TIP3   OH231905   4.601   5.360  12.918  0.6238 -0.1319  0.0201
 3497TIP3    H131906   4.546   5.432  12.948 -1.2232 -1.6986  0.6183
 3497TIP3    H231907   4.584   5.290  12.981  0.3531 -1.9430 -1.9807
 3498TIP3   OH231908   1.400   5.329  10.566  0.6618 -0.0546  0.6738
 3498TIP3    H131909   1.363   5.279  10.493 -0.9891  0.5181  1.0692
 3498TIP3    H231910   1.495   5.328  10.551  0.3527  0.1191 -1.5061
 3499TIP3   OH231911   3.748   1.513  16.725 -0.2494  0.2325 -0.4179
 3499TIP3    H131912   3.676   1.541  16.781  0.0140  2.7466 -1.2191
 3499TIP3    H231913   3.774   1.428  16.760 -2.9500 -0.3277  0.4899
 3500TIP3   OH231914   3.237   6.500  11.060  0.5415  0.5094  0.1929
 3500TIP3    H131915   3.313   6.551  11.089  0.0520  1.6497 -0.4641
 3500TIP3    H231916   3.199   6.466  11.141  1.8406 -0.2207  0.5210
 3501TIP3   OH231917   5.228   1.481   3.626 -0.0613  0.1213 -0.0061
 3501TIP3    H131918   5.170   1.489   3.550  1.6748 -2.7795 -1.8084
 3501TIP3    H231919   5.302   1.429   3.595  1.5376  0.1530  3.2919
 3502TIP3   OH231920   2.023   4.329  14.387 -0.0395 -0.2441 -0.0341
 3502TIP3    H131921   1.977   4.274  14.451  0.2448 -2.5847 -1.7381
 3502TIP3    H231922   2.040   4.271  14.313 -0.4969  2.3930 -2.3477
 3503TIP3   OH231923   6.714   4.799   1.869 -0.2446 -0.2540  0.0870
 3503TIP3    H131924   6.677   4.871   1.818  1.2490  0.0183 -0.6697
 3503TIP3    H231925   6.678   4.811   1.957 -2.9181 -0.7510 -0.8370
 3504TIP3   OH231926   1.305   1.806   1.589  0.2498 -0.0742  0.2436
 3504TIP3    H131927   1.270   1.730   1.542 -0.9241  0.6000  0.0099
 3504TIP3    H231928   1.350   1.767   1.665 -0.9435 -0.9812  0.5214
 3505TIP3   OH231929   3.831   4.529  16.004  1.0642 -0.1094  0.2629
 3505TIP3    H131930   3.742   4.518  15.970 -0.0919  0.3490  2.8116
 3505TIP3    H231931   3.837   4.623  16.021  3.0162  0.2773 -2.1071
 3506TIP3   OH231932   2.703   4.253  16.659 -0.7187 -0.5619  0.2500
 3506TIP3    H131933   2.618   4.233  16.622 -1.1390  0.0352  0.8584
 3506TIP3    H231934   2.696   4.229  16.751 -1.1469  1.9318  0.9398
 3507TIP3   OH231935   5.672   1.172   5.806 -0.7102 -0.5730  0.4519
 3507TIP3    H131936   5.681   1.261   5.839 -0.8112 -1.1867  2.2217
 3507TIP3    H231937   5.717   1.173   5.721 -1.4586  1.3501  0.0323
 3508TIP3   OH231938   2.755   1.836  15.480  0.1117  0.3612 -0.2746
 3508TIP3    H131939   2.669   1.848  15.438 -0.2891  1.7602  0.8686
 3508TIP3    H231940   2.816   1.880  15.422 -0.4364  2.2608  0.4983
 3509TIP3   OH231941   2.830   0.640   4.365 -0.1163  0.1209 -0.0852
 3509TIP3    H131942   2.923   0.656   4.346  0.6920 -3.1266  0.4813
 3509TIP3    H231943   2.795   0.605   4.283 -0.6207  0.5238 -0.0422
 3510TIP3   OH231944   1.170   6.571   3.129  0.3082 -0.0098 -0.2095
 3510TIP3    H131945   1.142   6.480   3.115  1.1459 -0.4959  1.0863
 3510TIP3    H231946   1.176   6.608   3.041  0.8087 -1.4728 -0.8256
 3511TIP3   OH231947   4.365   2.483   2.110  0.0096 -0.4695 -0.7899
 3511TIP3    H131948   4.425   2.417   2.073  1.0468  0.9685 -1.7974
 3511TIP3    H231949   4.333   2.531   2.034  0.2957  1.0163 -0.0057
 3512TIP3   OH231950   3.121   1.508  14.804 -0.8005  0.1742 -0.1599
 3512TIP3    H131951   3.110   1.586  14.859 -1.4896  0.2649 -0.4221
 3512TIP3    H231952   3.112   1.540  14.714  1.5164  0.2412 -0.4376
 3513TIP3   OH231953   2.225   5.092   4.774 -0.0849 -0.0576  0.1621
 3513TIP3    H131954   2.239   5.077   4.681  0.3582  0.8623  0.0721
 3513TIP3    H231955   2.205   5.185   4.781  3.3129  0.7175  1.3047
 3514TIP3   OH231956   3.873   2.113   4.133  0.3110  0.0496 -0.2140
 3514TIP3    H131957   3.941   2.140   4.072 -0.4411  0.1576 -1.0343
 3514TIP3    H231958   3.847   2.026   4.103  0.1452 -0.0202  0.1282
 3515TIP3   OH231959   3.577   1.526  14.817  0.0926 -0.2663  0.5095
 3515TIP3    H131960   3.533   1.579  14.750  0.9434  0.6221  0.6265
 3515TIP3    H231961   3.666   1.515  14.783  0.1397 -0.9764  0.8587
 3516TIP3   OH231962   1.804   2.607   5.139 -0.4280  0.2073  0.3925
 3516TIP3    H131963   1.779   2.644   5.223  0.7474  0.3334  0.7106
 3516TIP3    H231964   1.833   2.682   5.086 -1.4562  0.1709 -0.2466
 3517TIP3   OH231965   2.118   4.929   1.738 -0.0717 -0.1965  0.1264
 3517TIP3    H131966   2.032   4.911   1.700 -0.1116 -0.5747  0.3940
 3517TIP3    H231967   2.177   4.934   1.663 -0.3302  0.0833 -0.0603
 3518TIP3   OH231968   1.871   1.006   0.765  0.0107 -0.0056  0.0404
 3518TIP3    H131969   1.950   0.964   0.799  0.7236  0.8515 -0.5155
 3518TIP3    H231970   1.823   1.034   0.843  0.5248 -0.0476  0.3720
 3519TIP3   OH231971   5.947   4.201   1.743 -0.7650 -0.1942 -0.7234
 3519TIP3    H131972   5.974   4.169   1.657 -2.9896 -0.6887 -1.3084
 3519TIP3    H231973   5.877   4.264   1.724 -0.4069  0.6648  0.6851
 3520TIP3   OH231974   5.318   3.631   3.461 -0.0153  0.0534 -0.2924
 3520TIP3    H131975   5.243   3.586   3.421 -0.3363  0.8039 -0.5416
 3520TIP3    H231976   5.305   3.620   3.555 -0.7071  0.5962 -0.3188
 3521TIP3   OH231977   0.083   0.511   0.450  0.1899 -0.3751  0.5502
 3521TIP3    H131978   0.102   0.468   0.367  2.1564  1.0658  0.1855
 3521TIP3    H231979   0.073   0.439   0.513 -1.5343 -1.4924 -0.8936
 3522TIP3   OH231980   3.796   1.025  12.461  0.6602  0.4155 -0.1721
 3522TIP3    H131981   3.745   0.944  12.461  0.4690  0.4696  1.8438
 3522TIP3    H231982   3.806   1.048  12.369 -1.0161 -0.8133 -0.7075
 3523TIP3   OH231983   2.123   0.585  16.918 -0.0330 -0.1361 -0.3644
 3523TIP3    H131984   2.200   0.529  16.929 -0.4859 -0.4992  1.1750
 3523TIP3    H231985   2.090   0.564  16.831  1.9223  0.4501 -1.2967
 3524TIP3   OH231986   3.758   1.253  16.805  0.3226  0.4306  0.4978
 3524TIP3    H131987   3.713   1.217  16.728 -0.8404  1.3486  0.7217
 3524TIP3    H231988   3.785   1.176  16.855  0.1612 -0.1564 -0.2935
 3525TIP3   OH231989   5.298   6.597   1.286 -0.1027 -0.3938 -0.1977
 3525TIP3    H131990   5.283   6.510   1.324 -2.5533 -0.0672 -0.2673
 3525TIP3    H231991   5.372   6.632   1.335  0.7016 -2.3453  0.0905
 3526TIP3   OH231992   4.573   4.182   4.235  0.2048  0.0689  0.1982
 3526TIP3    H131993   4.633   4.217   4.301  0.3205  0.0692  0.0924
 3526TIP3    H231994   4.581   4.241   4.161  0.5972 -0.3315 -0.0807
 3527TIP3   OH231995   5.147   5.118   1.573  0.0131  0.1226 -0.1141
 3527TIP3    H131996   5.187   5.075   1.649  0.0549 -0.2094 -0.3202
 3527TIP3    H231997   5.090   5.051   1.535  0.7976 -0.0742 -0.9935
 3528TIP3   OH231998   1.422   2.026   5.353  0.4036  0.4435 -0.0796
 3528TIP3    H131999   1.408   1.942   5.309  4.0304 -0.3133 -0.1509
 3528TIP3    H232000   1.398   2.009   5.444  0.8038 -0.6053 -0.1487
 3529TIP3   OH232001   0.524   1.799   4.194 -0.4892  0.3991 -0.0683
 3529TIP3    H132002   0.471   1.877   4.210  0.7695  1.1266  0.6616
 3529TIP3    H232003   0.602   1.812   4.247 -0.2036 -1.3144 -0.0266
 3530TIP3   OH232004   2.033   3.434  16.627 -0.2410 -0.0525 -0.8297
 3530TIP3    H132005   2.056   3.485  16.549  0.4916  1.5060  0.3415
 3530TIP3    H232006   2.113   3.433  16.680 -0.3411 -2.1652 -0.6258
 3531TIP3   OH232007   1.587   0.851  14.116  0.0415 -0.0393  0.4424
 3531TIP3    H132008   1.509   0.893  14.081  1.5012  1.3690 -1.3039
 3531TIP3    H232009   1.648   0.848  14.042  1.2934 -2.0304  1.4699
 3532TIP3   OH232010   2.419   2.372   4.774 -0.3258 -0.3580 -0.4049
 3532TIP3    H132011   2.381   2.376   4.862 -0.5615 -2.8680 -0.3344
 3532TIP3    H232012   2.401   2.283   4.744  1.7455 -0.2814 -2.0996
 3533TIP3   OH232013   5.935   3.071   0.562  0.9213 -0.1906 -0.3712
 3533TIP3    H132014   5.917   3.077   0.656 -0.8262  0.5377 -0.7159
 3533TIP3    H232015   6.026   3.040   0.557  1.7539  1.6974  1.5655
 3534TIP3   OH232016   2.731   0.931  13.947  0.7374  0.1297  0.1707
 3534TIP3    H132017   2.663   0.998  13.948  2.1497  1.7595  3.3997
 3534TIP3    H232018   2.719   0.884  14.029  1.1925 -2.1388 -0.9891
 3535TIP3   OH232019   2.815   3.163   1.957  0.1932 -0.2124 -0.4075
 3535TIP3    H132020   2.797   3.209   2.039  2.2612  0.8212 -0.4664
 3535TIP3    H232021   2.773   3.077   1.968 -1.5742  0.7436  0.7328
 3536TIP3   OH232022   0.596   2.380   2.575 -0.0149 -0.2009 -0.2768
 3536TIP3    H132023   0.529   2.311   2.572 -0.2872  0.0581 -0.1636
 3536TIP3    H232024   0.547   2.461   2.557  0.2592 -0.0042 -0.1242
 3537TIP3   OH232025   3.580   1.618   0.794  0.0762 -0.0230  0.3368
 3537TIP3    H132026   3.594   1.711   0.776  1.4823  0.1469  2.0425
 3537TIP3    H232027   3.487   1.612   0.814 -0.1501  0.9024 -0.3564
 3538TIP3   OH232028   1.243   4.446   3.506  0.3721 -0.0394 -0.7477
 3538TIP3    H132029   1.297   4.368   3.498 -0.5595 -1.4884  3.9965
 3538TIP3    H232030   1.155   4.417   3.482  0.2523 -0.0802 -0.2625
 3539TIP3   OH232031   0.411   2.199  16.228 -0.5352 -0.2103 -0.7193
 3539TIP3    H132032   0.444   2.178  16.141 -1.4005 -0.9012 -0.8839
 3539TIP3    H232033   0.370   2.119  16.259  0.7818 -0.3403  0.8227
 3540TIP3   OH232034   5.894   5.249  12.492 -0.1281 -0.3729 -0.3798
 3540TIP3    H132035   5.864   5.181  12.431 -1.7975 -1.4638  1.5231
 3540TIP3    H232036   5.983   5.223  12.515  0.2258 -0.3898 -1.6776
 3541TIP3   OH232037   3.215   2.019   1.549  0.5295  0.2660  0.4693
 3541TIP3    H132038   3.227   2.023   1.644 -0.5806  1.2384  0.5823
 3541TIP3    H232039   3.197   1.927   1.531  2.8148 -0.3383  0.9051
 3542TIP3   OH232040   1.549   4.297  15.684 -0.1891  0.6060  0.1484
 3542TIP3    H132041   1.566   4.382  15.643  0.2210 -0.5243 -2.2194
 3542TIP3    H232042   1.576   4.233  15.618 -1.9679 -1.3648  1.2170
 3543TIP3   OH232043   1.513   5.340   5.257 -0.4358 -0.3637  0.3440
 3543TIP3    H132044   1.504   5.301   5.170  2.1002  0.4056 -0.3679
 3543TIP3    H232045   1.467   5.424   5.251  2.0162  1.0182 -1.3115
 3544TIP3   OH232046   3.817   1.432   0.567  0.4039 -0.5482 -0.4325
 3544TIP3    H132047   3.865   1.505   0.607 -1.3386 -0.2730  1.3441
 3544TIP3    H232048   3.821   1.362   0.631 -1.7037 -0.4220 -0.0678
 3545TIP3   OH232049   5.636   3.727   0.134 -0.0977  0.0697 -0.3554
 3545TIP3    H132050   5.712   3.770   0.094  0.2161 -0.6454 -0.5425
 3545TIP3    H232051   5.660   3.635   0.138 -0.8286 -0.1164 -0.1076
 3546TIP3   OH232052   2.234   2.599  12.295  0.9570  0.2783 -0.3479
 3546TIP3    H132053   2.227   2.505  12.312  1.7671  0.2963  0.1728
 3546TIP3    H232054   2.150   2.623  12.256  1.6675 -1.1515 -2.9772
 3547TIP3   OH232055   0.997   3.912  14.606 -0.6745 -0.7875  0.4241
 3547TIP3    H132056   0.983   3.942  14.516  0.5275 -0.6198  0.2842
 3547TIP3    H232057   1.091   3.900  14.614 -0.7687 -0.9135  1.6331
 3548TIP3   OH232058   3.278   0.154   0.802  0.0229 -0.4715 -0.3269
 3548TIP3    H132059   3.266   0.150   0.707  1.7398  1.4775 -0.6794
 3548TIP3    H232060   3.364   0.115   0.817 -0.0202 -0.2987  0.3916
 3549TIP3   OH232061   1.641   2.828   5.275 -0.2479  0.7971  0.2527
 3549TIP3    H132062   1.614   2.777   5.352  1.1597  1.2082  1.0385
 3549TIP3    H232063   1.674   2.910   5.310  0.1231  1.1222 -0.8149
 3550TIP3   OH232064   4.486   5.059  13.313 -0.5028 -0.0829  0.2704
 3550TIP3    H132065   4.476   4.971  13.277  2.0340 -0.1884 -0.3633
 3550TIP3    H232066   4.523   5.045  13.400 -1.9321  0.3386  0.9755
 3551TIP3   OH232067   5.959   3.555   1.684  0.0550  0.5948 -0.3860
 3551TIP3    H132068   5.937   3.607   1.761 -0.7732  1.6673 -1.3168
 3551TIP3    H232069   5.990   3.618   1.619  2.4631 -0.4724 -0.3815
 3552TIP3   OH232070   3.829   1.537   5.493  0.2308 -0.1486 -0.2029
 3552TIP3    H132071   3.744   1.548   5.452  0.3935  0.1870 -0.4548
 3552TIP3    H232072   3.825   1.451   5.535 -0.3385 -0.0033  0.0498
 3553TIP3   OH232073   4.766   5.040  15.829  0.2530 -0.2979 -0.2302
 3553TIP3    H132074   4.689   5.022  15.775  0.0089 -0.6952  0.2397
 3553TIP3    H232075   4.794   4.954  15.861  0.8735 -0.1525 -0.3699
 3554TIP3   OH232076   6.338   5.529   5.784 -0.0584  0.2439 -0.1012
 3554TIP3    H132077   6.409   5.466   5.773 -0.8149 -0.6154 -0.1408
 3554TIP3    H232078   6.270   5.482   5.833 -0.3007  1.2920  0.6090
 3555TIP3   OH232079   1.622   3.239  12.943 -1.0115  0.5831  0.0113
 3555TIP3    H132080   1.663   3.324  12.934  0.5663 -0.2152 -0.7549
 3555TIP3    H232081   1.690   3.176  12.920 -2.1651 -0.8938  0.3965
 3556TIP3   OH232082   6.361   1.992   5.253 -0.1544  0.1547  0.4416
 3556TIP3    H132083   6.413   1.994   5.333  1.3260 -3.0925 -0.2970
 3556TIP3    H232084   6.281   1.945   5.276  0.0056 -0.2584  0.1654
 3557TIP3   OH232085   5.397   0.825  16.450 -0.2217 -0.6914  0.2627
 3557TIP3    H132086   5.476   0.773  16.432  0.8994  1.4968 -1.7408
 3557TIP3    H232087   5.328   0.780  16.402  0.2222 -1.5684  0.4241
 3558TIP3   OH232088   3.145   5.546  12.243 -0.8649 -0.2992  0.2977
 3558TIP3    H132089   3.067   5.536  12.298 -2.2587  1.2616 -1.2874
 3558TIP3    H232090   3.128   5.489  12.167  0.1360 -0.9241  0.5290
 3559TIP3   OH232091   1.112   3.987  15.107 -1.3422  0.1408  0.3578
 3559TIP3    H132092   1.130   3.919  15.172 -4.5846 -0.2534  0.9803
 3559TIP3    H232093   1.048   3.948  15.048 -0.7574  1.5548 -1.3172
 3560TIP3   OH232094   5.818   2.135   4.133  0.6481  0.5550 -0.4250
 3560TIP3    H132095   5.784   2.199   4.071  0.5975 -1.1634 -2.2813
 3560TIP3    H232096   5.765   2.148   4.212 -1.6481  0.6154 -1.8727
 3561TIP3   OH232097   5.855   3.015  11.088  0.2230 -0.0403 -0.0846
 3561TIP3    H132098   5.779   2.957  11.095  0.2754 -0.0533  0.3963
 3561TIP3    H232099   5.865   3.030  10.994 -2.3821  2.6026 -0.0538
 3562TIP3   OH232100   0.931   0.701   3.020  0.0342 -0.2162 -0.2710
 3562TIP3    H132101   0.891   0.763   3.082 -1.0623 -1.6411  0.5014
 3562TIP3    H232102   0.885   0.717   2.938  0.6799  0.8852 -0.4358
 3563TIP3   OH232103   6.640   0.057   2.636  0.6875  0.3378 -0.5571
 3563TIP3    H132104   6.615   0.097   2.720  0.5937  1.5016 -1.1229
 3563TIP3    H232105   6.697   0.121   2.595 -0.4767  0.4794 -2.0482
 3564TIP3   OH232106   0.560   6.738   3.881 -0.0636  0.1355  0.0851
 3564TIP3    H132107   0.600   6.651   3.887 -1.2111 -0.3393  1.9695
 3564TIP3    H232108   0.466   6.721   3.892 -0.2778  1.6330  0.8095
 3565TIP3   OH232109   4.411   3.837  14.957  0.1825 -0.6379  0.1497
 3565TIP3    H132110   4.404   3.814  15.049  1.3916 -1.6176  0.0177
 3565TIP3    H232111   4.324   3.822  14.921 -0.0874 -1.0202  0.9579
 3566TIP3   OH232112   0.524   3.531   3.033  0.2521 -0.4933  0.1245
 3566TIP3    H132113   0.513   3.512   2.940  1.1081  1.6114 -0.4499
 3566TIP3    H232114   0.443   3.575   3.058  0.7218  0.4906 -0.0671
 3567TIP3   OH232115   4.283   5.249  13.362  0.2874  0.0367  0.2217
 3567TIP3    H132116   4.263   5.298  13.282 -3.0834  0.0510  0.9429
 3567TIP3    H232117   4.343   5.180  13.333  0.1091  0.7491 -2.0648
 3568TIP3   OH232118   0.782   4.127  14.568  0.6938  0.3700 -0.4094
 3568TIP3    H132119   0.691   4.122  14.598  0.0895  4.2142 -1.0291
 3568TIP3    H232120   0.780   4.094  14.479  0.2984 -1.1308  0.1315
 3569TIP3   OH232121   5.331   0.496  13.140  0.2773 -0.0148  0.4200
 3569TIP3    H132122   5.384   0.474  13.217  0.1830 -0.3580  0.3880
 3569TIP3    H232123   5.247   0.454  13.156  0.5901 -0.9753 -0.3372
 3570TIP3   OH232124   1.436   0.429   5.975 -0.4111  0.1611 -0.1068
 3570TIP3    H132125   1.396   0.499   5.923 -0.8780 -0.5039 -0.6699
 3570TIP3    H232126   1.431   0.460   6.065 -2.5243 -0.0225 -0.1156
 3571TIP3   OH232127   1.616   6.073   0.998 -0.4732  0.0156  0.7515
 3571TIP3    H132128   1.540   6.019   0.979  0.6481 -1.3594 -0.0427
 3571TIP3    H232129   1.678   6.013   1.039  0.6255  0.8189  0.3160
 3572TIP3   OH232130   4.282   2.012  10.692 -0.0581  0.2544  0.3986
 3572TIP3    H132131   4.356   2.032  10.635  0.7697 -1.4877  0.8080
 3572TIP3    H232132   4.238   1.939  10.649 -2.8338  2.4784 -0.9114
 3573TIP3   OH232133   6.722   2.233  12.945 -0.2109  0.0888 -0.2637
 3573TIP3    H132134   6.645   2.192  12.984 -0.2000  0.9022  0.6582
 3573TIP3    H232135   6.755   2.168  12.882 -1.0965 -0.6436  0.0073
 3574TIP3   OH232136   3.640   5.483  15.665 -0.2023 -0.1789 -0.3459
 3574TIP3    H132137   3.616   5.576  15.674 -1.7980 -0.6891  1.3067
 3574TIP3    H232138   3.705   5.468  15.733  0.2311 -0.2217 -0.7685
 3575TIP3   OH232139   1.069   2.109   2.564  0.3988 -0.2100 -0.3013
 3575TIP3    H132140   1.023   2.025   2.555 -1.1074  0.5708 -0.2583
 3575TIP3    H232141   1.043   2.141   2.651  0.9353  0.3091 -0.3287
 3576TIP3   OH232142   1.378   1.443   5.970 -0.1176  0.4355  0.8058
 3576TIP3    H132143   1.317   1.436   5.896 -0.4112  3.8932  0.5758
 3576TIP3    H232144   1.333   1.400   6.042 -0.9976 -0.6530 -0.3519
 3577TIP3   OH232145   2.068   3.022  11.298 -0.3330  0.3172  0.0438
 3577TIP3    H132146   2.043   3.035  11.207  1.1372 -0.8314 -0.5783
 3577TIP3    H232147   2.125   3.096  11.318  1.2299 -0.6051 -0.7699
 3578TIP3   OH232148   0.512   2.440   1.957  0.1845 -0.1521  0.4424
 3578TIP3    H132149   0.544   2.526   1.985  3.3713 -0.7797 -0.8425
 3578TIP3    H232150   0.439   2.459   1.899  1.3673  1.7781 -0.5131
 3579TIP3   OH232151   1.736   4.290  16.252 -0.4574  0.2200 -0.3964
 3579TIP3    H132152   1.725   4.380  16.222  0.6986 -0.1892 -2.2377
 3579TIP3    H232153   1.648   4.252  16.246 -0.9352  1.1828  0.3004
 3580TIP3   OH232154   0.378   0.668  12.062 -0.3617  0.3735 -0.1117
 3580TIP3    H132155   0.401   0.719  12.140 -1.1772  0.5533  0.0225
 3580TIP3    H232156   0.389   0.577  12.089  1.9572  0.4450 -0.6194
 3581TIP3   OH232157   5.320   3.328   2.708  0.4899  0.2432  0.7539
 3581TIP3    H132158   5.403   3.318   2.756  1.0504  2.3116  0.3326
 3581TIP3    H232159   5.284   3.410   2.740 -0.5468  0.2216 -0.3038
 3582TIP3   OH232160   5.071   5.099  16.064  0.0401 -0.2404 -0.6432
 3582TIP3    H132161   5.074   5.193  16.083 -0.6883 -0.6331  1.8042
 3582TIP3    H232162   5.009   5.064  16.129  0.2710 -2.4113 -1.5155
 3583TIP3   OH232163   3.112   4.605   1.051  0.0085 -0.2532  0.5998
 3583TIP3    H132164   3.075   4.567   1.131 -0.6132  2.0120  1.4624
 3583TIP3    H232165   3.081   4.547   0.981  0.1800 -2.0326  1.9235
 3584TIP3   OH232166   2.620   2.451   3.830  0.6907  0.2975  0.4207
 3584TIP3    H132167   2.589   2.363   3.809  0.8314  0.6756 -1.5574
 3584TIP3    H232168   2.543   2.496   3.865 -0.3940  0.4571 -2.0111
 3585TIP3   OH232169   0.588   3.177  16.155  1.0750 -0.0205 -0.1837
 3585TIP3    H132170   0.508   3.200  16.202  0.2066  0.5785 -1.8847
 3585TIP3    H232171   0.631   3.112  16.211 -1.1092 -1.1394  0.2931
 3586TIP3   OH232172   3.554   3.968  14.639  0.3157  0.3786 -0.0238
 3586TIP3    H132173   3.557   4.003  14.549 -0.2966  0.4721 -0.0092
 3586TIP3    H232174   3.505   4.034  14.688  0.1336  0.0374  0.2508
 3587TIP3   OH232175   2.396   2.957   2.861 -0.0426  0.1287  0.2119
 3587TIP3    H132176   2.466   3.008   2.901  1.1851 -1.7297  0.5923
 3587TIP3    H232177   2.440   2.907   2.791 -1.7649  1.8696 -2.2768
 3588TIP3   OH232178   1.582   4.449   4.210  0.1367 -0.2836 -0.3115
 3588TIP3    H132179   1.563   4.510   4.139 -0.6154  0.7790  0.7478
 3588TIP3    H232180   1.531   4.483   4.284 -2.0428 -3.3419 -0.1974
 3589TIP3   OH232181   5.252   6.183  13.912  0.0012  0.1286  0.0681
 3589TIP3    H132182   5.214   6.143  13.833 -1.1734  0.3365  0.5079
 3589TIP3    H232183   5.345   6.193  13.891 -0.0088 -1.1947 -0.7250
 3590TIP3   OH232184   5.164   0.921   1.331  0.4218  0.4605 -0.5306
 3590TIP3    H132185   5.192   0.846   1.278  1.1712  0.1950  0.2274
 3590TIP3    H232186   5.088   0.890   1.380  0.3771  0.3789 -0.6529
 3591TIP3   OH232187   2.902   6.182  16.614 -0.5563  0.2415 -0.0681
 3591TIP3    H132188   2.972   6.134  16.570 -0.7104  0.3334 -0.4237
 3591TIP3    H232189   2.947   6.245  16.671 -0.3569 -0.2021  0.2643
 3592TIP3   OH232190   1.965   3.541   2.776  0.1676 -0.1549  0.3378
 3592TIP3    H132191   1.912   3.506   2.704 -1.9248 -0.4052  1.8984
 3592TIP3    H232192   1.935   3.632   2.784 -1.4108 -0.7744  2.3426
 3593TIP3   OH232193   3.909   1.979  12.704 -0.1479 -0.1992 -0.0122
 3593TIP3    H132194   3.882   1.929  12.781  0.3176 -1.4315 -0.6091
 3593TIP3    H232195   3.829   2.025  12.677 -0.5460 -0.4623  0.6790
 3594TIP3   OH232196   3.850   4.994   2.120 -0.5228  0.3494 -0.6131
 3594TIP3    H132197   3.942   5.011   2.136 -0.3097 -0.3087 -1.0892
 3594TIP3    H232198   3.808   5.002   2.205  0.0373  0.2550 -0.3259
 3595TIP3   OH232199   6.746   2.773   3.477  0.2957  0.5453 -0.0447
 3595TIP3    H132200   6.691   2.706   3.517  0.8009  0.4245  0.4592
 3595TIP3    H232201   6.735   2.850   3.533  2.1039 -0.0427  1.1906
 3596TIP3   OH232202   1.696   6.195  11.223 -0.0305 -0.1651  0.1961
 3596TIP3    H132203   1.770   6.142  11.193  0.8695  1.0679  0.1819
 3596TIP3    H232204   1.725   6.285  11.211 -1.6784  0.3517 -0.1527
 3597TIP3   OH232205   4.499   5.963   2.250 -0.6474  0.1400 -0.1752
 3597TIP3    H132206   4.417   5.915   2.237 -1.2887  1.4345 -1.1059
 3597TIP3    H232207   4.536   5.925   2.330 -2.0669 -0.5883  0.1781
 3598TIP3   OH232208   5.977   0.089  13.530 -0.2502 -0.7517  0.6481
 3598TIP3    H132209   5.892   0.067  13.491 -1.0337  1.3097  1.0834
 3598TIP3    H232210   6.018   0.147  13.466  0.2708 -0.6827  1.0381
 3599TIP3   OH232211   1.114   4.503   5.909  0.2984 -0.3278 -0.1199
 3599TIP3    H132212   1.055   4.545   5.971  0.3646  1.3243 -1.1005
 3599TIP3    H232213   1.056   4.462   5.845  0.2091  0.1453 -0.3469
 3600TIP3   OH232214   5.458   1.876   1.458 -0.0383 -0.3744 -0.0237
 3600TIP3    H132215   5.427   1.798   1.503 -0.7549 -0.1989 -0.1885
 3600TIP3    H232216   5.421   1.949   1.508 -0.9510 -0.1778 -0.9346
 3601TIP3   OH232217   4.875   5.930  13.462  0.0367 -0.2343  0.1803
 3601TIP3    H132218   4.786   5.915  13.430 -1.6056  1.5395  3.4385
 3601TIP3    H232219   4.903   5.845  13.496 -1.4757 -0.2829  1.3864
 3602TIP3   OH232220   5.023   5.203   6.500  0.1342  0.2519 -0.3968
 3602TIP3    H132221   4.943   5.232   6.544 -0.3584  0.1830 -1.2295
 3602TIP3    H232222   5.093   5.224   6.562 -0.7270 -1.9081  1.4448
 3603TIP3   OH232223   4.151   1.942   3.035 -0.5823  0.1086 -0.3725
 3603TIP3    H132224   4.196   1.902   2.960 -0.3505  3.2233 -2.0412
 3603TIP3    H232225   4.188   1.897   3.111  1.7560 -0.8130 -1.9367
 3604TIP3   OH232226   1.178   0.693   6.598  0.3279 -0.3025  0.1021
 3604TIP3    H132227   1.129   0.762   6.643  1.6880  0.1415  0.9924
 3604TIP3    H232228   1.147   0.611   6.636  0.0252 -0.0579  0.3811
 3605TIP3   OH232229   2.635   4.563   5.038 -0.3560  0.1118 -0.4377
 3605TIP3    H132230   2.667   4.486   5.085 -0.8814  0.4771  0.5388
 3605TIP3    H232231   2.650   4.636   5.098 -3.5721  0.2321  0.3851
 3606TIP3   OH232232   4.956   4.683   2.332 -0.2112 -0.0483  0.3400
 3606TIP3    H132233   5.003   4.619   2.279 -1.0476 -0.4010  0.0106
 3606TIP3    H232234   5.019   4.708   2.400  0.7222  0.0764 -0.5403
 3607TIP3   OH232235   1.584   4.999   3.772 -0.3666  0.2910 -0.2950
 3607TIP3    H132236   1.547   4.928   3.718 -0.6504  0.9052 -0.9200
 3607TIP3    H232237   1.609   5.067   3.709 -1.8138  1.5396  0.4326
 3608TIP3   OH232238   0.744   3.630  13.190 -0.3935 -0.0178 -0.0552
 3608TIP3    H132239   0.765   3.538  13.209 -0.2656 -0.1783 -0.9403
 3608TIP3    H232240   0.827   3.676  13.203 -0.4698 -0.0158  0.4435
 3609TIP3   OH232241   6.465   4.645   1.209 -0.5632 -0.1170 -0.3274
 3609TIP3    H132242   6.404   4.571   1.207 -1.2823  0.4912 -1.5934
 3609TIP3    H232243   6.497   4.652   1.119 -0.2628  0.9156 -0.1543
 3610TIP3   OH232244   5.853   5.816  13.932  0.2516 -0.1913 -0.3055
 3610TIP3    H132245   5.825   5.905  13.912 -0.0876 -0.2926 -0.2824
 3610TIP3    H232246   5.948   5.822  13.940  0.1233  0.4399  0.9999
 3611TIP3   OH232247   5.963   5.053   1.371  0.3177  0.2048 -0.1387
 3611TIP3    H132248   5.906   5.088   1.302 -0.8016  2.2652  1.6858
 3611TIP3    H232249   5.951   4.958   1.365 -1.9642  0.4656 -0.9806
 3612TIP3   OH232250   5.278   5.776  12.133 -0.7375  0.0020 -0.5906
 3612TIP3    H132251   5.323   5.706  12.179 -1.2555 -0.5440 -0.9049
 3612TIP3    H232252   5.299   5.855  12.184 -1.0959 -0.5505  0.4560
 3613TIP3   OH232253   4.367   6.553  15.203 -0.4357  0.0775  0.0716
 3613TIP3    H132254   4.439   6.501  15.240  1.3780  2.0141 -0.5153
 3613TIP3    H232255   4.386   6.557  15.110 -1.7136  0.0563 -0.2004
 3614TIP3   OH232256   3.790   5.745   4.661  0.6733 -0.5974  0.1265
 3614TIP3    H132257   3.854   5.753   4.732  0.2321 -0.6440  0.5332
 3614TIP3    H232258   3.712   5.788   4.694  0.2720 -1.1439 -0.0975
 3615TIP3   OH232259   3.217   2.198  15.324 -0.1061  0.4210  0.2374
 3615TIP3    H132260   3.172   2.269  15.370  0.7454 -0.2372  2.1824
 3615TIP3    H232261   3.308   2.227  15.318 -0.1822  0.4486 -0.9920
 3616TIP3   OH232262   2.198   0.169   0.678  0.0311  0.3557 -0.1157
 3616TIP3    H132263   2.249   0.088   0.691  1.1419  1.0448 -0.0307
 3616TIP3    H232264   2.177   0.198   0.767  0.5450  0.7101 -0.1049
 3617TIP3   OH232265   6.662   6.277   3.549  0.4818  0.5613  0.5770
 3617TIP3    H132266   6.716   6.340   3.502  1.4161 -0.5406  0.1106
 3617TIP3    H232267   6.686   6.287   3.641 -0.8738  2.2726  0.7859
 3618TIP3   OH232268   3.439   2.197   3.079 -0.4140  0.0590 -0.1656
 3618TIP3    H132269   3.490   2.249   3.017 -0.8960  0.9352  0.1514
 3618TIP3    H232270   3.498   2.126   3.105  0.8770  1.3473  0.6209
 3619TIP3   OH232271   1.222   3.937   3.165 -0.1172  0.5759  0.3232
 3619TIP3    H132272   1.167   3.917   3.240  0.5408 -0.9128  0.4345
 3619TIP3    H232273   1.270   3.856   3.147  1.1577  1.4672 -0.5038
 3620TIP3   OH232274   1.582   2.170  13.851 -0.3270 -0.4133 -0.4856
 3620TIP3    H132275   1.564   2.221  13.930  0.7394  0.3673 -0.7229
 3620TIP3    H232276   1.495   2.147  13.816 -0.8974  2.3851 -1.1079
 3621TIP3   OH232277   1.899   2.646  14.510  0.4923  0.0510  0.7114
 3621TIP3    H132278   1.878   2.738  14.493 -1.0163 -0.1864  1.1978
 3621TIP3    H232279   1.982   2.632  14.463 -0.0389  1.2389 -0.6719
 3622TIP3   OH232280   4.750   4.864   5.907  0.3839  0.1409  0.2760
 3622TIP3    H132281   4.809   4.903   5.843 -0.3040  1.8247  0.5907
 3622TIP3    H232282   4.775   4.905   5.990 -1.0749  0.7443  0.4458
 3623TIP3   OH232283   5.943   3.930  11.080  0.1823  0.6518  0.8858
 3623TIP3    H132284   6.031   3.954  11.109 -0.0222  1.0226  1.2107
 3623TIP3    H232285   5.886   3.999  11.115 -0.0126  1.4378 -0.8413
 3624TIP3   OH232286   4.071   0.330   3.827 -0.1649  0.8280 -0.2163
 3624TIP3    H132287   4.135   0.354   3.893  0.4167  0.7134 -0.7238
 3624TIP3    H232288   4.120   0.329   3.745 -0.6976  0.2398 -0.5458
 3625TIP3   OH232289   0.311   4.359  14.648  0.6663  0.5586  0.0720
 3625TIP3    H132290   0.323   4.372  14.743 -0.2004  1.1424  0.1076
 3625TIP3    H232291   0.268   4.274  14.641 -0.5840  1.1526  0.3009
 3626TIP3   OH232292   0.174   2.630   3.161  0.2609 -0.4442  0.2919
 3626TIP3    H132293   0.250   2.620   3.104 -1.1176 -0.3651 -1.6356
 3626TIP3    H232294   0.195   2.706   3.215  0.8983  0.5263 -1.2793
 3627TIP3   OH232295   6.133   4.771   4.113 -0.0191  0.4172  0.1939
 3627TIP3    H132296   6.063   4.808   4.059 -1.9060 -0.2765  2.0497
 3627TIP3    H232297   6.164   4.695   4.063  0.1669  1.3363 -1.1323
 3628TIP3   OH232298   2.238   6.282  14.467  0.1365 -0.1008  0.0907
 3628TIP3    H132299   2.261   6.260  14.376  1.7623  1.1399  0.1570
 3628TIP3    H232300   2.169   6.347  14.460 -0.9429 -1.2279 -0.1892
 3629TIP3   OH232301   1.527   1.897   2.225 -0.4632  0.4889  0.7281
 3629TIP3    H132302   1.550   1.827   2.163 -1.8424  2.5517 -2.3536
 3629TIP3    H232303   1.436   1.880   2.247 -1.2124  1.9116 -1.0597
 3630TIP3   OH232304   3.091   5.858  11.098 -0.5593 -0.4627  0.8160
 3630TIP3    H132305   3.016   5.904  11.134 -1.2285  1.5484 -2.7179
 3630TIP3    H232306   3.066   5.838  11.008  3.1188  0.3503 -0.5475
 3631TIP3   OH232307   3.278   0.724   3.715  0.0950 -0.1502  0.4775
 3631TIP3    H132308   3.320   0.638   3.715 -0.3586 -0.3913 -0.9001
 3631TIP3    H232309   3.351   0.786   3.725  0.5318 -0.6455  0.4249
 3632TIP3   OH232310   1.242   4.474  11.319 -0.2884 -0.1425 -0.3901
 3632TIP3    H132311   1.268   4.534  11.249  1.2235  0.0274  0.2811
 3632TIP3    H232312   1.323   4.455  11.366 -0.7097 -2.7129 -0.5536
 3633TIP3   OH232313   2.230   0.631  12.350  0.1450 -0.5392 -0.0716
 3633TIP3    H132314   2.270   0.544  12.351  0.7020 -0.3145  1.8956
 3633TIP3    H232315   2.136   0.614  12.344  0.2699 -1.2616 -0.0609
 3634TIP3   OH232316   3.548   2.284   4.575 -0.4764  0.0735 -0.3511
 3634TIP3    H132317   3.603   2.298   4.498  1.4008 -3.9569  0.0135
 3634TIP3    H232318   3.603   2.233   4.635 -2.2728  1.9759  3.2286
 3635TIP3   OH232319   0.382   4.893   1.176 -0.1943 -0.0113 -0.1279
 3635TIP3    H132320   0.352   4.975   1.136 -1.0518  0.2660  1.0278
 3635TIP3    H232321   0.306   4.860   1.222  0.7121 -0.3691  1.1740
 3636TIP3   OH232322   5.805   4.952   5.147  0.2590 -0.7229 -0.1624
 3636TIP3    H132323   5.719   4.955   5.189  0.6720 -0.2646  0.6769
 3636TIP3    H232324   5.842   5.039   5.164  0.8456 -0.8889 -0.5980
 3637TIP3   OH232325   0.485   0.797  13.282 -0.3628 -0.1249 -0.2287
 3637TIP3    H132326   0.579   0.777  13.277 -0.2500  0.1779  0.4748
 3637TIP3    H232327   0.460   0.817  13.192  0.3111  0.0520 -0.3843
 3638TIP3   OH232328   6.511   2.778  11.306  0.1526  0.2494  0.2112
 3638TIP3    H132329   6.535   2.697  11.351 -0.1809 -0.0342 -0.1123
 3638TIP3    H232330   6.445   2.751  11.243 -0.2882  0.8499  0.4060
 3639TIP3   OH232331   5.885   4.421  16.091 -0.5749 -0.3807  0.2869
 3639TIP3    H132332   5.793   4.432  16.113 -0.9486 -1.7395 -0.4782
 3639TIP3    H232333   5.914   4.350  16.149 -0.7180 -1.7488 -1.2577
 3640TIP3   OH232334   1.161   4.747   3.946 -0.3150  0.0099  0.2042
 3640TIP3    H132335   1.137   4.673   3.890 -0.1651 -0.5254  0.8466
 3640TIP3    H232336   1.228   4.794   3.895 -0.2991 -0.3778 -0.1379
 3641TIP3   OH232337   5.964   5.822  11.511  0.4804 -0.3621 -0.5039
 3641TIP3    H132338   5.903   5.789  11.446  0.8382 -1.2087 -0.4288
 3641TIP3    H232339   6.037   5.856  11.460  1.0758 -1.6526 -0.5626
 3642TIP3   OH232340   5.256   3.001  11.213  0.7925  0.0842 -0.2747
 3642TIP3    H132341   5.176   3.023  11.262  0.8456  2.2990 -1.0730
 3642TIP3    H232342   5.228   2.995  11.122  1.2623 -0.8020 -0.3713
 3643TIP3   OH232343   1.104   2.056   0.741  0.3308 -0.5197  0.1122
 3643TIP3    H132344   1.153   1.988   0.788  1.2879 -0.0697 -0.2244
 3643TIP3    H232345   1.022   2.013   0.718 -1.1398 -0.2089  3.9670
 3644TIP3   OH232346   6.337   6.616  16.603  0.3212 -0.0792  0.4452
 3644TIP3    H132347   6.264   6.677  16.613  0.0908 -0.3923  0.7147
 3644TIP3    H232348   6.297   6.529  16.609  0.4808 -0.2878 -1.0137
 3645TIP3   OH232349   0.898   3.154  17.163  0.2831  0.3690  0.4637
 3645TIP3    H132350   0.843   3.179  17.237  1.0808 -0.7855  1.4913
 3645TIP3    H232351   0.900   3.058  17.166  1.9386  0.3601  0.1783
 3646TIP3   OH232352   1.111   1.038  12.936  0.3861  0.6318 -0.2192
 3646TIP3    H132353   1.168   1.046  13.013  0.5897 -2.7955  0.1503
 3646TIP3    H232354   1.036   0.988  12.968  1.0896 -2.1035 -2.4100
 3647TIP3   OH232355   6.729   1.169  16.730 -0.2332 -0.1135  0.1869
 3647TIP3    H132356   6.662   1.103  16.749 -1.4273  1.0550  0.1967
 3647TIP3    H232357   6.697   1.248  16.772  1.8622  0.1779  1.3969
 3648TIP3   OH232358   0.491   3.550   2.757  0.2281  0.7566  0.7143
 3648TIP3    H132359   0.507   3.627   2.703  0.8084 -0.7179 -1.3835
 3648TIP3    H232360   0.427   3.499   2.708  1.8916 -1.3694  0.5918
 3649TIP3   OH232361   3.623   6.116  11.341 -0.1000 -0.3437  0.0111
 3649TIP3    H132362   3.537   6.159  11.344  0.4014  0.7707 -1.0415
 3649TIP3    H232363   3.615   6.052  11.270 -0.3047 -0.8287  0.4608
 3650TIP3   OH232364   0.526   1.666   4.710  0.7597 -0.7948  0.4759
 3650TIP3    H132365   0.484   1.663   4.625  0.3836 -0.0812  0.6301
 3650TIP3    H232366   0.459   1.699   4.770  1.0450 -1.1975  1.0288
 3651TIP3   OH232367   3.247   4.123   1.877  0.1819 -0.4518  0.9040
 3651TIP3    H132368   3.310   4.185   1.915  0.5009  0.0231 -0.3741
 3651TIP3    H232369   3.162   4.161   1.899  0.2993 -1.1280  2.6929
 3652TIP3   OH232370   3.938   4.651  10.498 -0.2248 -0.5257  0.2647
 3652TIP3    H132371   3.873   4.608  10.443  1.5210 -1.2748 -1.2954
 3652TIP3    H232372   3.905   4.740  10.509 -0.2436 -0.0494 -2.7761
 3653TIP3   OH232373   5.898   0.020   0.920  0.0368  0.0148  0.2711
 3653TIP3    H132374   5.802   0.023   0.921 -0.1271 -1.2916 -2.4771
 3653TIP3    H232375   5.921  -0.024   1.002 -1.6999  0.2532  0.9350
 3654TIP3   OH232376   6.070   1.546   5.694  0.1343  0.9465 -0.0328
 3654TIP3    H132377   6.071   1.557   5.789  1.4497  0.3613  0.0439
 3654TIP3    H232378   6.037   1.457   5.680  0.1795  0.9417 -0.1118
 3655TIP3   OH232379   5.828   2.411   5.865  0.0005 -0.1214 -0.4866
 3655TIP3    H132380   5.843   2.467   5.941  0.7019 -0.7498 -0.1402
 3655TIP3    H232381   5.733   2.403   5.859 -0.0600 -0.5776  0.7314
 3656TIP3   OH232382   4.291   1.433  14.863 -0.3133 -0.3620  0.2101
 3656TIP3    H132383   4.283   1.379  14.942 -0.6433 -0.0935  0.3643
 3656TIP3    H232384   4.217   1.494  14.869  0.0871  0.1446  0.0715
 3657TIP3   OH232385   0.771   4.261   2.944 -0.2405  0.0335 -0.0942
 3657TIP3    H132386   0.795   4.238   3.034 -0.2956  0.3848  0.0121
 3657TIP3    H232387   0.693   4.209   2.926 -0.7795  0.6536  0.3941
 3658TIP3   OH232388   4.209   2.424   4.932  0.7262  0.1818  0.0362
 3658TIP3    H132389   4.139   2.360   4.926 -0.5132  1.1549  2.7879
 3658TIP3    H232390   4.242   2.415   5.021  0.9760  2.8579  0.2769
 3659TIP3   OH232391   2.089   3.594   4.060  0.3539  0.2267  0.2028
 3659TIP3    H132392   2.183   3.590   4.079  0.4677  1.3233 -0.0738
 3659TIP3    H232393   2.048   3.614   4.144  0.4486  0.5998  0.1614
 3660TIP3   OH232394   4.635   5.856   3.334 -0.3309 -0.5657 -0.5506
 3660TIP3    H132395   4.602   5.766   3.340  1.5330 -1.1902  1.5736
 3660TIP3    H232396   4.721   5.848   3.294  0.0964  0.1940  0.1931
 3661TIP3   OH232397   2.287   1.223   1.436 -0.0245 -0.0407 -0.7635
 3661TIP3    H132398   2.359   1.246   1.378  0.6970  1.2222  0.5532
 3661TIP3    H232399   2.208   1.251   1.390  0.3626 -0.9030 -1.9728
 3662TIP3   OH232400   5.211   1.702  12.078  0.0285  0.2145  0.0466
 3662TIP3    H132401   5.152   1.777  12.086 -2.3907 -1.6386  0.6346
 3662TIP3    H232402   5.173   1.649  12.008  0.9140 -1.1412  0.5448
 3663TIP3   OH232403   3.411   3.905  15.717 -0.5342  1.1195 -0.0248
 3663TIP3    H132404   3.505   3.896  15.700 -0.4026  1.9267  0.2218
 3663TIP3    H232405   3.401   3.879  15.809 -1.0169 -1.7824 -0.8026
 3664TIP3   OH232406   2.550   5.262  12.709  0.4951 -0.6143  0.3290
 3664TIP3    H132407   2.459   5.237  12.689 -0.1371 -0.2446  2.5298
 3664TIP3    H232408   2.542   5.333  12.772  2.3374  0.2272 -0.3268
 3665TIP3   OH232409   3.784   4.235   0.131 -0.2577  0.7015  0.1691
 3665TIP3    H132410   3.830   4.282   0.201 -2.2320  2.0337  0.6718
 3665TIP3    H232411   3.850   4.177   0.094  0.4837 -1.4868  4.3224
 3666TIP3   OH232412   5.053   5.658   4.265 -0.6296  0.0575 -0.0648
 3666TIP3    H132413   4.976   5.607   4.242  0.0629 -0.8691 -0.4057
 3666TIP3    H232414   5.069   5.637   4.357  0.0105 -0.8431 -0.3702
 3667TIP3   OH232415   5.739   6.495   1.691  0.1394  0.0313 -0.0308
 3667TIP3    H132416   5.804   6.429   1.716  1.8086  1.5975 -0.0989
 3667TIP3    H232417   5.701   6.461   1.610 -0.2406 -1.6189  0.7770
 3668TIP3   OH232418   3.386   4.453   4.458 -0.1669  1.1185 -0.2159
 3668TIP3    H132419   3.385   4.370   4.410  0.2962  1.6278 -1.1184
 3668TIP3    H232420   3.332   4.436   4.535 -0.1603  0.0078 -0.4378
 3669TIP3   OH232421   5.461   2.758  12.164  0.0121  0.3337 -0.0176
 3669TIP3    H132422   5.407   2.751  12.086  0.8759 -1.4124 -0.5119
 3669TIP3    H232423   5.450   2.848  12.193  1.1435  1.6356 -3.2391
 3670TIP3   OH232424   2.531   0.728  13.421 -0.2350  0.0997 -0.3125
 3670TIP3    H132425   2.517   0.751  13.512  0.0498 -1.0035  0.0295
 3670TIP3    H232426   2.588   0.651  13.424  1.5093  1.2620 -1.4830
 3671TIP3   OH232427   3.816   5.380   0.210  0.1435  0.0783  0.0124
 3671TIP3    H132428   3.728   5.408   0.184  0.5144  0.2405 -1.1487
 3671TIP3    H232429   3.804   5.342   0.297 -0.9631  0.6828  0.1534
 3672TIP3   OH232430   5.134   2.271  14.671  0.1605 -0.4824  0.7601
 3672TIP3    H132431   5.212   2.243  14.623  0.0173  3.5896 -2.3843
 3672TIP3    H232432   5.167   2.300  14.756  1.8600 -0.2869  0.0653
 3673TIP3   OH232433   2.204   2.503   0.698  0.1649  0.3521  0.0379
 3673TIP3    H132434   2.148   2.580   0.709 -0.8949 -0.0243 -2.0571
 3673TIP3    H232435   2.144   2.436   0.665  1.0525 -1.4230  1.8652
 3674TIP3   OH232436   5.629   3.225  13.101  0.0208  0.2141 -0.1403
 3674TIP3    H132437   5.618   3.311  13.141  2.0919 -0.6568  2.6130
 3674TIP3    H232438   5.706   3.234  13.045 -0.4390  0.4213 -0.7433
 3675TIP3   OH232439   5.946   5.412   1.664  0.7326  0.5249  0.0280
 3675TIP3    H132440   5.987   5.422   1.578  0.9402 -0.7513 -0.0484
 3675TIP3    H232441   5.857   5.385   1.644  1.2347 -1.3951  0.1749
 3676TIP3   OH232442   3.139   2.127  14.031  0.7226  0.6563 -0.4059
 3676TIP3    H132443   3.181   2.118  13.945 -0.5335  2.1383 -1.2229
 3676TIP3    H232444   3.056   2.080  14.022  0.2933  1.3597 -0.2409
 3677TIP3   OH232445   3.628   1.461  14.428 -0.1093  0.1811  0.5416
 3677TIP3    H132446   3.675   1.534  14.388 -0.8329  1.9333  2.6863
 3677TIP3    H232447   3.635   1.390  14.364  1.1283  1.9221 -1.3878
 3678TIP3   OH232448   3.810   4.384  11.827  0.1278  0.4335  0.1689
 3678TIP3    H132449   3.755   4.355  11.755  0.4164  0.6829 -0.1567
 3678TIP3    H232450   3.748   4.408  11.897 -0.1119 -0.8297  0.4047
 3679TIP3   OH232451   4.657   4.540  15.372 -0.2487 -0.0591  0.3225
 3679TIP3    H132452   4.622   4.552  15.283  1.1001 -1.4630 -0.4642
 3679TIP3    H232453   4.584   4.504  15.421 -0.6667 -0.5052 -0.5895
 3680TIP3   OH232454   3.246   5.766   2.422  0.1715 -0.4579  0.0524
 3680TIP3    H132455   3.304   5.692   2.441  0.2236 -1.0486 -2.1861
 3680TIP3    H232456   3.287   5.810   2.348 -1.3447  0.1118 -0.4827
 3681TIP3   OH232457   3.471   3.784  11.410  0.0530  0.1817 -0.5950
 3681TIP3    H132458   3.450   3.774  11.502 -1.9635 -3.5595 -1.2382
 3681TIP3    H232459   3.387   3.801  11.367  0.9676  2.0403 -1.7857
 3682TIP3   OH232460   6.244   5.506   5.139 -0.1882 -0.4491 -0.0973
 3682TIP3    H132461   6.253   5.422   5.093  0.5732  0.2818 -1.3410
 3682TIP3    H232462   6.331   5.522   5.177  0.1524  0.5080 -1.2155
 3683TIP3   OH232463   1.443   4.096   2.684  0.0524  0.6412 -0.1117
 3683TIP3    H132464   1.535   4.114   2.703  1.0380 -1.4804 -2.2917
 3683TIP3    H232465   1.436   4.111   2.589 -1.2429 -1.3641 -0.3764
 3684TIP3   OH232466   0.532   4.172  13.075  0.6394  0.3021  0.8572
 3684TIP3    H132467   0.542   4.172  13.170 -2.6602  0.6795  1.3342
 3684TIP3    H232468   0.529   4.264  13.051  0.0928  0.2249  0.6109
 3685TIP3   OH232469   3.700   3.003  14.204 -0.5356  0.2373 -0.0739
 3685TIP3    H132470   3.770   3.007  14.269  0.4960  0.9067 -1.1982
 3685TIP3    H232471   3.639   2.937  14.239 -0.0444  0.6141  1.5822
 3686TIP3   OH232472   5.264   4.228  17.197 -0.2094  0.1911  0.0765
 3686TIP3    H132473   5.321   4.170  17.246  0.6177  1.3574  0.5481
 3686TIP3    H232474   5.307   4.240  17.113 -1.2171 -1.1586 -0.6702
 3687TIP3   OH232475   6.268   3.984  10.627 -0.6745  0.5852 -0.0467
 3687TIP3    H132476   6.293   3.895  10.603 -1.2990 -0.4041  2.5955
 3687TIP3    H232477   6.246   4.026  10.544  1.8455 -0.9557 -1.6271
 3688TIP3   OH232478   2.094   1.177   5.161 -0.4666  0.6172 -0.2707
 3688TIP3    H132479   2.174   1.204   5.116 -1.0530  1.0786 -1.0931
 3688TIP3    H232480   2.071   1.093   5.122 -0.3457  0.4561  0.0074
 3689TIP3   OH232481   4.552   1.371   4.393 -0.0493  0.1079  0.0238
 3689TIP3    H132482   4.555   1.450   4.338  1.3555  0.6953  0.8978
 3689TIP3    H232483   4.553   1.403   4.483 -0.4748 -0.8915  0.4039
 3690TIP3   OH232484   4.422   6.789   0.261 -0.0592  0.3847 -0.0386
 3690TIP3    H132485   4.387   6.700   0.259  2.4838 -0.9537 -5.4884
 3690TIP3    H232486   4.349   6.844   0.233 -0.9066 -0.4629  0.4535
 3691TIP3   OH232487   6.620   3.873  15.769 -0.0232  0.1942 -0.4730
 3691TIP3    H132488   6.569   3.809  15.720 -1.7770  0.5448  0.8070
 3691TIP3    H232489   6.557   3.938  15.798  0.8365 -0.0735  2.3413
 3692TIP3   OH232490   6.372   0.968  10.972  0.1578  0.5121  0.0411
 3692TIP3    H132491   6.348   1.061  10.980 -2.8887 -0.0951 -0.5755
 3692TIP3    H232492   6.447   0.967  10.913 -1.7984  2.4653 -2.7318
 3693TIP3   OH232493   5.311   0.624   0.305  0.2153  0.0377  0.1414
 3693TIP3    H132494   5.281   0.603   0.217 -0.4730 -1.9340  0.7956
 3693TIP3    H232495   5.318   0.719   0.306 -0.3062  0.1394 -1.8574
 3694TIP3   OH232496   2.295   1.865  16.639  0.0673 -0.2151 -0.0723
 3694TIP3    H132497   2.236   1.940  16.626  1.5830  1.7733  3.2876
 3694TIP3    H232498   2.382   1.902  16.631  0.8729 -1.6756  1.4450
 3695TIP3   OH232499   5.469   0.509  14.307 -0.1754  0.5167  0.1715
 3695TIP3    H132500   5.458   0.459  14.388  0.5122 -0.1075 -0.1224
 3695TIP3    H232501   5.387   0.559  14.299 -0.7935 -0.4186  0.5520
 3696TIP3   OH232502   0.477   3.505   4.352  0.0255 -0.0246 -0.0227
 3696TIP3    H132503   0.518   3.473   4.271 -0.4188 -0.2750 -0.1528
 3696TIP3    H232504   0.384   3.515   4.329  0.0336  0.6518  0.2328
 3697TIP3   OH232505   4.499   3.023  13.689 -0.1681 -0.4975 -0.4094
 3697TIP3    H132506   4.526   3.029  13.598  2.2421 -0.3681  0.2433
 3697TIP3    H232507   4.562   3.076  13.737 -1.0670 -0.9652  1.4061
 3698TIP3   OH232508   2.425   4.946   3.618 -0.4067 -0.1998  0.2842
 3698TIP3    H132509   2.344   4.997   3.621 -1.7179 -2.1543 -0.0182
 3698TIP3    H232510   2.485   4.993   3.676 -2.7360 -0.2886  2.9687
 3699TIP3   OH232511   5.876   4.372   2.836 -0.0284  0.3740 -0.2493
 3699TIP3    H132512   5.832   4.433   2.777 -1.0248  1.7635  1.8069
 3699TIP3    H232513   5.807   4.314   2.867  0.6680 -0.9927 -1.1412
 3700TIP3   OH232514   5.314   3.013  11.517 -0.8037 -0.6471 -0.0295
 3700TIP3    H132515   5.249   3.084  11.521 -0.6690 -0.4818 -0.6365
 3700TIP3    H232516   5.345   3.015  11.427 -0.3927 -1.1226  0.1002
 3701TIP3   OH232517   4.735   4.575  16.300 -0.3870 -0.0089 -0.1283
 3701TIP3    H132518   4.805   4.620  16.252 -0.0900  0.8946  1.1149
 3701TIP3    H232519   4.737   4.485  16.265 -0.1153  0.5748 -1.7126
 3702TIP3   OH232520   3.768   2.365   5.124 -0.0492 -0.3197 -0.2003
 3702TIP3    H132521   3.848   2.313   5.124  0.0823 -0.1314  0.4484
 3702TIP3    H232522   3.759   2.396   5.034 -0.0961 -1.3987 -0.5732
 3703TIP3   OH232523   3.195   4.202  12.406 -0.0008  0.1368 -0.6302
 3703TIP3    H132524   3.269   4.223  12.463  1.2421 -2.9389 -0.8559
 3703TIP3    H232525   3.220   4.236  12.320  0.7694 -0.1081 -0.5081
 3704TIP3   OH232526   3.117   1.236   0.405 -0.1297  0.0185 -0.1611
 3704TIP3    H132527   3.158   1.226   0.319 -0.2099  1.2199 -0.3524
 3704TIP3    H232528   3.104   1.146   0.436  0.4099 -0.4155 -1.1576
 3705TIP3   OH232529   0.201   5.244  13.965 -0.2820 -0.2186 -0.0114
 3705TIP3    H132530   0.190   5.152  13.989  1.4943 -0.4006  0.2635
 3705TIP3    H232531   0.283   5.270  14.008  0.7123  0.7016 -2.3109
 3706TIP3   OH232532   4.276   1.163  11.016 -0.1446  0.4068  0.0635
 3706TIP3    H132533   4.184   1.144  11.030 -0.8744  2.3784 -1.5677
 3706TIP3    H232534   4.314   1.079  10.987 -1.5778 -0.2421 -0.0103
 3707TIP3   OH232535   3.436   1.056   5.473  0.0460  0.1078 -0.0162
 3707TIP3    H132536   3.501   1.084   5.408  1.0126  2.2548  1.7379
 3707TIP3    H232537   3.484   0.997   5.531  0.2833  1.1199  0.8543
 3708TIP3   OH232538   2.115   2.808   4.020  0.4738 -0.1653 -0.9614
 3708TIP3    H132539   2.040   2.767   4.064  1.1703 -1.6324 -1.1118
 3708TIP3    H232540   2.161   2.736   3.978  2.2048  0.6541 -0.5372
 3709TIP3   OH232541   3.031   2.313  12.724  0.3730 -0.2822 -0.2014
 3709TIP3    H132542   2.947   2.324  12.767  1.2242 -1.6121  1.9960
 3709TIP3    H232543   3.068   2.401  12.720 -1.0622  0.3149 -1.1811
 3710TIP3   OH232544   2.374   1.064  11.286 -0.0967 -0.5174 -0.8268
 3710TIP3    H132545   2.341   1.064  11.197  0.8622 -1.6335 -1.2065
 3710TIP3    H232546   2.401   1.155  11.302 -0.3866 -0.2901 -1.6102
 3711TIP3   OH232547   4.882   1.386   0.089 -0.1647 -0.1438  0.5461
 3711TIP3    H132548   4.791   1.401   0.066  0.2977  1.1881 -0.5386
 3711TIP3    H232549   4.916   1.473   0.109  1.4414 -0.2989 -1.2957
 3712TIP3   OH232550   3.768   4.030   5.715  0.0684  0.2242  0.5636
 3712TIP3    H132551   3.692   4.089   5.720  1.2972  2.1835 -1.7455
 3712TIP3    H232552   3.827   4.073   5.654  2.8320 -1.5092  1.8354
 3713TIP3   OH232553   6.391   5.764   3.666  0.2791 -0.5611  0.1882
 3713TIP3    H132554   6.410   5.841   3.719 -1.2588  0.0065 -0.0284
 3713TIP3    H232555   6.357   5.799   3.583  0.5715 -1.4571 -0.3274
 3714TIP3   OH232556   3.881   6.425  16.779  0.0355  0.1076  0.1084
 3714TIP3    H132557   3.786   6.438  16.783 -0.0030 -0.4808  2.1095
 3714TIP3    H232558   3.912   6.493  16.719 -1.4536  1.4618  0.8172
 3715TIP3   OH232559   0.686   3.948  12.530 -0.7084 -0.3693  0.0385
 3715TIP3    H132560   0.679   3.907  12.444 -0.6952  0.8151 -0.5504
 3715TIP3    H232561   0.695   4.042  12.511 -0.1339 -0.1471  1.3100
 3716TIP3   OH232562   3.946   2.312  11.767  0.6989 -0.6276  0.3205
 3716TIP3    H132563   3.871   2.363  11.735  0.3798  0.6973  2.9559
 3716TIP3    H232564   3.929   2.223  11.736 -0.5292  0.1624 -1.4666
 3717TIP3   OH232565   1.459   0.042  16.691  0.0971  0.2068  0.1835
 3717TIP3    H132566   1.542   0.022  16.647  0.1554  0.0341  0.3691
 3717TIP3    H232567   1.476   0.020  16.783 -0.6946 -1.4764 -0.0439
 3718TIP3   OH232568   1.655   2.136   6.356  0.2778 -0.0707  0.1974
 3718TIP3    H132569   1.652   2.113   6.449 -0.0912  0.0712  0.2251
 3718TIP3    H232570   1.687   2.058   6.312 -0.8427 -0.6007  0.2961
 3719TIP3   OH232571   4.263   3.265  13.129 -0.4095 -0.1579  0.9374
 3719TIP3    H132572   4.247   3.349  13.085  3.6330  0.5515  0.4601
 3719TIP3    H232573   4.269   3.201  13.057  2.5739  0.3625  0.5954
 3720TIP3   OH232574   5.152   1.602  16.854  0.3391  0.2045 -0.1584
 3720TIP3    H132575   5.222   1.566  16.799 -0.8455  0.9951 -2.2915
 3720TIP3    H232576   5.115   1.526  16.898  2.0554 -0.3074  0.5050
 3721TIP3   OH232577   5.039   6.785   6.194 -0.4180 -1.2918  0.3734
 3721TIP3    H132578   5.009   6.876   6.191 -2.6394 -1.9666 -0.0373
 3721TIP3    H232579   5.076   6.768   6.108 -1.1332 -1.1146  0.0261
 3722TIP3   OH232580   2.203   1.006  15.209 -0.1219 -0.2042 -0.0650
 3722TIP3    H132581   2.128   0.963  15.250  1.3694 -1.0852  1.8820
 3722TIP3    H232582   2.166   1.048  15.131 -2.6642 -0.4213  0.9081
 3723TIP3   OH232583   5.137   5.423   5.518 -0.5353 -0.2655  0.6052
 3723TIP3    H132584   5.112   5.334   5.493  1.3007  0.0063 -2.6858
 3723TIP3    H232585   5.233   5.423   5.517 -0.4636  2.0120 -0.9076
 3724TIP3   OH232586   3.673   1.048   4.566  0.4195  0.0780  0.2038
 3724TIP3    H132587   3.643   1.048   4.657 -1.1237  1.7504 -0.2648
 3724TIP3    H232588   3.702   1.138   4.551 -0.9721  0.2945 -1.4418
 3725TIP3   OH232589   1.692   6.797   3.463  0.0573  0.0999 -0.1917
 3725TIP3    H132590   1.724   6.839   3.543  1.5856 -1.2205 -0.0570
 3725TIP3    H232591   1.721   6.855   3.392 -2.2400  1.8574  0.1685
 3726TIP3   OH232592   2.602   3.650   1.694  0.4405  0.0716  0.2860
 3726TIP3    H132593   2.652   3.674   1.616 -1.5072  1.3972 -0.6426
 3726TIP3    H232594   2.667   3.645   1.764  2.4492 -2.3184 -1.5621
 3727TIP3   OH232595   2.778   1.069   4.778  0.4546  0.2329  0.2051
 3727TIP3    H132596   2.823   0.989   4.753 -1.2052 -0.6329 -0.1442
 3727TIP3    H232597   2.816   1.093   4.863 -0.5879 -2.2137  1.4451
 3728TIP3   OH232598   1.397   1.199  16.475  0.2671 -0.0818 -0.1368
 3728TIP3    H132599   1.390   1.215  16.381 -1.7601  0.2838  0.0362
 3728TIP3    H232600   1.461   1.263  16.506  0.4757  0.2191 -1.1724
 3729TIP3   OH232601   3.718   1.239   2.709 -0.2323 -0.4691 -0.1813
 3729TIP3    H132602   3.638   1.243   2.656 -1.2754 -1.4640  1.2323
 3729TIP3    H232603   3.688   1.209   2.795  1.6440 -0.6568  0.4536
 3730TIP3   OH232604   1.365   3.343   0.758  1.0021  0.4285 -0.7309
 3730TIP3    H132605   1.283   3.310   0.797  1.5049 -0.7858 -0.6394
 3730TIP3    H232606   1.336   3.407   0.693 -0.0235  0.1329 -0.5924
 3731TIP3   OH232607   5.250   1.722  12.822 -1.1050  0.3055  0.2160
 3731TIP3    H132608   5.222   1.803  12.780 -0.9849  0.0559 -0.3559
 3731TIP3    H232609   5.320   1.689  12.765 -0.0877  0.5950  1.2729
 3732TIP3   OH232610   1.947   6.044  14.528  0.1538 -0.7770  0.4773
 3732TIP3    H132611   1.926   6.059  14.620 -0.5845 -2.7163  0.6678
 3732TIP3    H232612   1.897   5.966  14.504 -0.5806  0.3426 -1.9159
 3733TIP3   OH232613   0.194   4.024  12.209 -0.2692  0.4797  0.3184
 3733TIP3    H132614   0.241   3.949  12.172  1.3959  2.1550 -1.1884
 3733TIP3    H232615   0.116   4.033  12.154  0.4830  0.9233 -0.7133
 3734TIP3   OH232616   2.247   4.039  11.157 -0.3218 -0.4536  0.1131
 3734TIP3    H132617   2.284   3.951  11.156 -0.2459 -0.4212 -0.0573
 3734TIP3    H232618   2.205   4.049  11.071  1.1075  0.2613 -0.5437
 3735TIP3   OH232619   6.192   0.795  11.439  0.0804 -0.0873  0.1314
 3735TIP3    H132620   6.203   0.835  11.525 -0.5204 -0.2203  0.2739
 3735TIP3    H232621   6.169   0.704  11.457  1.1294 -0.4337 -0.1906
 3736TIP3   OH232622   0.600   1.117   2.663 -0.1383 -0.1837 -0.3284
 3736TIP3    H132623   0.693   1.135   2.655 -0.1875  0.5793  0.5990
 3736TIP3    H232624   0.557   1.197   2.631 -0.4063  0.5982  1.8301
 3737TIP3   OH232625   1.928   6.414   5.281 -0.4586  0.0701 -0.5238
 3737TIP3    H132626   1.976   6.348   5.230 -1.8944  0.1449 -2.0556
 3737TIP3    H232627   1.963   6.405   5.370  0.7243 -1.4446 -1.0890
 3738TIP3   OH232628   2.620   1.665  15.120 -0.3297  0.4988  0.3253
 3738TIP3    H132629   2.589   1.661  15.210 -1.3992  1.6500  0.0271
 3738TIP3    H232630   2.604   1.755  15.092  3.2124  1.1995  0.0971
 3739TIP3   OH232631   4.577   3.280   6.128 -0.3762  0.2266 -0.4683
 3739TIP3    H132632   4.666   3.290   6.162 -0.6785  0.4740  0.2798
 3739TIP3    H232633   4.534   3.363   6.148 -1.3983 -0.6360  1.1361
 3740TIP3   OH232634   3.209   4.469  16.594 -0.4452  0.2145  0.1133
 3740TIP3    H132635   3.114   4.481  16.583 -0.2432  1.2201 -0.6349
 3740TIP3    H232636   3.239   4.550  16.636  0.1663  0.1133 -0.1210
 3741TIP3   OH232637   5.492   2.966  16.196  0.0204 -0.1005  0.1584
 3741TIP3    H132638   5.568   2.985  16.251  0.5132  1.8242 -1.0977
 3741TIP3    H232639   5.431   3.038  16.214 -1.1121 -1.0870  0.4064
 3742TIP3   OH232640   4.007   4.807   1.601  0.4073  0.1662 -0.3141
 3742TIP3    H132641   3.963   4.860   1.667 -0.2366  1.3221 -1.5966
 3742TIP3    H232642   4.074   4.865   1.565  0.8340 -0.4836 -0.5792
 3743TIP3   OH232643   4.811   2.572  14.765  0.5906 -0.2212  0.3479
 3743TIP3    H132644   4.794   2.533  14.850  1.9006  0.2878  0.8737
 3743TIP3    H232645   4.811   2.667  14.782  0.8098 -0.1149 -0.2163
 3744TIP3   OH232646   0.413   3.547  15.868 -0.1340  0.4572  0.2782
 3744TIP3    H132647   0.393   3.467  15.918 -0.2838  0.9378  1.0105
 3744TIP3    H232648   0.381   3.528  15.780 -1.0306  0.0460  0.6687
 3745TIP3   OH232649   0.928   6.763  10.286  0.0672 -0.2482 -0.3982
 3745TIP3    H132650   0.909   6.680  10.241  1.5539 -1.0076  0.3143
 3745TIP3    H232651   1.011   6.792  10.249  0.0942  0.3736  0.1297
 3746TIP3   OH232652   0.859   0.495  12.043  0.1278 -0.1820  0.6774
 3746TIP3    H132653   0.905   0.421  12.002  1.2016 -0.0680  1.6187
 3746TIP3    H232654   0.853   0.561  11.974  0.8635 -0.4331  0.3584
 3747TIP3   OH232655   4.029   1.434  11.243  0.5431  0.1472 -0.1187
 3747TIP3    H132656   3.970   1.494  11.289  1.1036  1.1403 -0.6754
 3747TIP3    H232657   4.010   1.348  11.282 -1.1951  0.4561 -0.2172
 3748TIP3   OH232658   6.341   5.632   5.392 -0.4246 -0.1447  1.1138
 3748TIP3    H132659   6.346   5.684   5.312 -0.7981  0.6495  1.5927
 3748TIP3    H232660   6.401   5.559   5.378 -0.0580  0.3001  0.3432
 3749TIP3   OH232661   0.223   1.846  12.503 -0.4243  0.1735  0.2701
 3749TIP3    H132662   0.157   1.820  12.567 -0.9676 -0.6352 -0.5904
 3749TIP3    H232663   0.225   1.941  12.508 -2.2875  0.2860 -0.2815
 3750TIP3   OH232664   0.811   5.151  13.278  0.0635 -0.0197 -0.0366
 3750TIP3    H132665   0.763   5.070  13.293 -0.6643  0.4970  0.5199
 3750TIP3    H232666   0.749   5.207  13.231  0.0499  0.7101  0.8243
 3751TIP3   OH232667   3.242   4.380   0.688  0.2166  0.4953 -0.5965
 3751TIP3    H132668   3.315   4.340   0.735 -0.3453 -1.0511 -0.9914
 3751TIP3    H232669   3.255   4.353   0.597 -0.0646  1.4085 -0.9182
 3752TIP3   OH232670   0.959   6.704   1.586  0.2059 -0.0101 -0.0807
 3752TIP3    H132671   1.051   6.675   1.587 -0.1910 -1.3759 -0.2741
 3752TIP3    H232672   0.918   6.653   1.656 -0.2723  1.1314  0.4955
 3753TIP3   OH232673   5.856   6.298   5.071 -0.3130 -0.6099 -0.2300
 3753TIP3    H132674   5.791   6.249   5.021  0.3498 -0.8498 -0.8797
 3753TIP3    H232675   5.874   6.375   5.017 -2.8320  1.5045  1.6890
 3754TIP3   OH232676   6.000   1.092   0.087  0.1261 -0.0681 -0.5886
 3754TIP3    H132677   5.988   1.135   0.003  1.3423 -1.6385 -1.6229
 3754TIP3    H232678   6.086   1.052   0.082 -0.3486 -1.3887  0.8620
 3755TIP3   OH232679   1.886   4.295   2.376 -0.7444 -0.5625  0.5772
 3755TIP3    H132680   1.973   4.262   2.357 -1.5767 -1.0932 -3.0453
 3755TIP3    H232681   1.894   4.390   2.369 -0.6944 -0.6723 -1.4230
 3756TIP3   OH232682   4.356   0.162  13.750 -0.1171 -0.5439 -0.7959
 3756TIP3    H132683   4.373   0.256  13.742 -1.7723 -0.2548 -1.1105
 3756TIP3    H232684   4.395   0.125  13.671  0.6090 -0.1568 -0.6385
 3757TIP3   OH232685   3.116   5.308   4.160 -0.7601  0.0771 -0.1388
 3757TIP3    H132686   3.182   5.261   4.212 -0.9125 -0.1223 -0.1221
 3757TIP3    H232687   3.032   5.274   4.193 -0.8583 -0.0303 -0.4951
 3758TIP3   OH232688   6.261   4.952  12.705  0.1005 -0.0760  0.2570
 3758TIP3    H132689   6.264   4.860  12.681  1.2009 -0.3228  1.2707
 3758TIP3    H232690   6.229   4.952  12.795  3.1833  0.2419  1.4674
 3759TIP3   OH232691   3.876   4.594  15.519  0.2100  0.0070 -0.1875
 3759TIP3    H132692   3.921   4.510  15.534  0.1105 -0.3301 -1.6033
 3759TIP3    H232693   3.786   4.578  15.547  0.7263  0.4327  1.8853
 3760TIP3   OH232694   6.536   2.485  11.166 -0.5126 -0.2956  0.7077
 3760TIP3    H132695   6.527   2.439  11.250 -0.1181 -1.8888 -0.0890
 3760TIP3    H232696   6.620   2.457  11.132 -0.1626  1.2095  0.2594
 3761TIP3   OH232697   0.526   5.811   3.735  0.5819 -0.2221  0.3739
 3761TIP3    H132698   0.475   5.790   3.813  0.0108  0.2649  0.1407
 3761TIP3    H232699   0.463   5.852   3.675  0.7289 -1.6298 -0.8187
 3762TIP3   OH232700   4.694   6.509  16.863 -0.6164 -0.5408  0.3234
 3762TIP3    H132701   4.608   6.550  16.854 -0.3085  0.4610  1.6382
 3762TIP3    H232702   4.675   6.420  16.890 -1.2474 -0.4150  0.3158
 3763TIP3   OH232703   5.392   1.131  14.580  0.7660 -0.0288 -0.5187
 3763TIP3    H132704   5.431   1.173  14.657  1.4975  0.4958 -1.1516
 3763TIP3    H232705   5.298   1.148  14.588  0.7913 -0.3214  0.4515
 3764TIP3   OH232706   0.750   6.211  14.016 -0.0066 -0.0160  0.2282
 3764TIP3    H132707   0.790   6.223  13.929 -2.6398 -0.2012 -1.1234
 3764TIP3    H232708   0.684   6.144  14.002  0.3288 -0.9794  2.7520
 3765TIP3   OH232709   1.840   6.724   6.242 -0.1922 -0.0515 -0.5663
 3765TIP3    H132710   1.767   6.771   6.282  0.0708  0.0871 -0.2534
 3765TIP3    H232711   1.844   6.758   6.153  0.4373  1.0182 -0.1374
 3766TIP3   OH232712   6.514   4.522   5.713  0.2960  0.6778 -0.4476
 3766TIP3    H132713   6.553   4.470   5.783  2.0242  1.5045 -0.7387
 3766TIP3    H232714   6.488   4.458   5.647  0.3108  0.0310  0.1612
 3767TIP3   OH232715   6.210   3.832   0.809  0.3548 -0.4691 -0.2379
 3767TIP3    H132716   6.283   3.777   0.782 -0.0297 -1.0071 -0.2030
 3767TIP3    H232717   6.135   3.772   0.813 -0.1338  0.1172 -0.4944
 3768TIP3   OH232718   0.611   1.757  11.359 -0.2054  0.1072  0.2645
 3768TIP3    H132719   0.559   1.733  11.436 -0.1584  0.1717  0.3171
 3768TIP3    H232720   0.681   1.813  11.395  1.6686 -2.3434  0.6602
 3769TIP3   OH232721   2.038   2.127   4.115  0.4303 -0.2391 -0.1674
 3769TIP3    H132722   2.086   2.124   4.198 -0.7743 -2.6623  0.5532
 3769TIP3    H232723   2.027   2.221   4.097  4.2129  0.4392  0.2231
 3770TIP3   OH232724   5.524   6.396   4.096  0.5334  0.4479 -0.5827
 3770TIP3    H132725   5.580   6.318   4.094  0.7511  0.6098 -0.7493
 3770TIP3    H232726   5.557   6.448   4.169 -0.7816 -0.4829  0.7429
 3771TIP3   OH232727   4.488   4.218   3.176  0.5243  0.8001 -0.1395
 3771TIP3    H132728   4.409   4.253   3.136 -0.4156 -0.4387  0.5595
 3771TIP3    H232729   4.544   4.194   3.102 -0.1884  0.7551 -0.6718
 3772TIP3   OH232730   1.032   0.300  11.109  0.2620 -0.0662  0.1531
 3772TIP3    H132731   0.975   0.304  11.032 -0.7399 -0.2478  0.8719
 3772TIP3    H232732   1.004   0.374  11.164  1.2194  0.2882  0.1823
 3773TIP3   OH232733   2.501   3.304  15.943 -0.6650  0.3581 -0.7540
 3773TIP3    H132734   2.489   3.395  15.972  0.2684  0.7617 -1.5672
 3773TIP3    H232735   2.468   3.251  16.016  0.8509  1.3431  0.7295
 3774TIP3   OH232736   6.786   2.446   3.075  0.2911 -0.5421 -0.1043
 3774TIP3    H132737   6.848   2.502   3.121 -0.4458  2.6137 -2.5830
 3774TIP3    H232738   6.840   2.379   3.035  1.3878 -0.9546  1.9100
 3775TIP3   OH232739   4.391   4.226   1.334 -0.3817  0.3698 -0.2559
 3775TIP3    H132740   4.430   4.258   1.253  0.6484  1.1154  0.4999
 3775TIP3    H232741   4.422   4.286   1.401  1.6968 -2.1478  1.2626
 3776TIP3   OH232742   2.782   2.340  13.090 -0.5205  0.2354 -0.0272
 3776TIP3    H132743   2.807   2.405  13.024  3.3328 -1.2342 -0.2688
 3776TIP3    H232744   2.743   2.269  13.040  1.5982 -0.5009 -0.7478
 3777TIP3   OH232745   2.254   2.667  12.706 -0.6692  0.2179  0.1433
 3777TIP3    H132746   2.258   2.682  12.800 -0.5360 -1.4064  0.4238
 3777TIP3    H232747   2.171   2.704  12.679 -0.8247  0.4651  0.9486
 3778TIP3   OH232748   3.092   4.303   4.277  0.1245 -0.8616  0.2943
 3778TIP3    H132749   3.013   4.326   4.227  1.0814 -1.3959 -1.5629
 3778TIP3    H232750   3.088   4.208   4.285  0.5787 -0.8933  0.1726
 3779TIP3   OH232751   0.176   0.733   5.385  0.3640 -0.5600 -0.3295
 3779TIP3    H132752   0.196   0.825   5.371 -0.2169 -0.5291 -1.0060
 3779TIP3    H232753   0.257   0.687   5.363 -0.0513 -0.3884 -2.4489
 3780TIP3   OH232754   2.797   3.531   5.778 -0.3501 -0.0371  0.5353
 3780TIP3    H132755   2.736   3.521   5.705 -1.1284 -0.5147  1.2364
 3780TIP3    H232756   2.870   3.473   5.757 -0.7811 -0.5131  0.3532
 3781TIP3   OH232757   0.157   0.899   3.654  0.9645 -0.7252  0.2263
 3781TIP3    H132758   0.168   0.926   3.563 -1.2753 -1.7165 -0.4209
 3781TIP3    H232759   0.147   0.804   3.649 -0.7596 -0.6407  1.2983
 3782TIP3   OH232760   4.340   5.525   3.926 -0.0667 -0.4812 -0.0651
 3782TIP3    H132761   4.311   5.493   4.011  2.4882  0.4413  1.2485
 3782TIP3    H232762   4.272   5.589   3.901 -0.6026 -0.3684  1.5380
 3783TIP3   OH232763   1.011   3.793  15.966 -0.0830  0.2158 -0.1652
 3783TIP3    H132764   0.938   3.804  15.904  0.4098 -0.4168 -0.8777
 3783TIP3    H232765   1.048   3.881  15.975 -0.1673  0.3197 -0.7648
 3784TIP3   OH232766   0.806   4.487   6.224  0.2594 -0.2282  0.0741
 3784TIP3    H132767   0.738   4.476   6.158 -0.7283  0.9442  0.8552
 3784TIP3    H232768   0.865   4.552   6.186  1.0438 -1.3429 -0.6601
 3785TIP3   OH232769   4.913   2.573  15.370 -0.1586  0.4287 -0.1554
 3785TIP3    H132770   4.897   2.480  15.380 -0.6704  0.6546  1.3853
 3785TIP3    H232771   4.825   2.612  15.368  0.0345  0.8372 -1.3378
 3786TIP3   OH232772   5.672   2.276   2.594 -0.3873  0.1185  0.2849
 3786TIP3    H132773   5.669   2.332   2.671 -0.8886  0.3104  0.1335
 3786TIP3    H232774   5.761   2.286   2.560  0.0299 -0.4343  1.1695
 3787TIP3   OH232775   2.197   6.135  13.601  0.0773 -0.3977  0.4221
 3787TIP3    H132776   2.120   6.135  13.545  0.4500 -0.9203 -0.0923
 3787TIP3    H232777   2.181   6.064  13.664  0.3528 -0.8218  0.0164
 3788TIP3   OH232778   3.380   4.563   4.896 -0.0912  0.4294 -0.1950
 3788TIP3    H132779   3.413   4.501   4.832  2.3009  1.8368 -0.4579
 3788TIP3    H232780   3.392   4.649   4.855  0.1552  1.2705  1.5269
 3789TIP3   OH232781   3.588   2.230   3.905 -0.0684  0.6752 -0.6196
 3789TIP3    H132782   3.551   2.312   3.874 -2.1194  0.9769  2.2725
 3789TIP3    H232783   3.638   2.253   3.983 -0.0642 -0.6951 -0.1840
 3790TIP3   OH232784   6.502   2.173  15.484  0.3022  0.0547  0.1399
 3790TIP3    H132785   6.464   2.095  15.526  0.3122 -0.9094 -1.5595
 3790TIP3    H232786   6.467   2.246  15.534 -1.4818 -0.9420  0.4292
 3791TIP3   OH232787   3.686   2.885  12.367 -0.4948  0.1304 -0.0642
 3791TIP3    H132788   3.645   2.889  12.453 -2.3904 -3.0544 -0.6307
 3791TIP3    H232789   3.613   2.878  12.305  0.7968 -1.1947 -1.5670
 3792TIP3   OH232790   4.219   2.915   1.515  0.0953  0.7296 -0.3201
 3792TIP3    H132791   4.138   2.963   1.536  0.4441  0.3178  2.3832
 3792TIP3    H232792   4.288   2.965   1.557  0.8054 -0.6219  0.2001
 3793TIP3   OH232793   1.421   1.833   3.976  0.3730  0.1850 -0.1180
 3793TIP3    H132794   1.417   1.777   3.898 -0.1611  0.9927 -0.6760
 3793TIP3    H232795   1.493   1.796   4.027  0.3075 -0.7577 -0.6743
 3794TIP3   OH232796   6.247   2.447  12.345 -0.9526 -0.0200  0.1034
 3794TIP3    H132797   6.175   2.464  12.285 -1.1792  0.2139  0.4393
 3794TIP3    H232798   6.263   2.531  12.387  1.7986  0.9121 -2.4060
 3795TIP3   OH232799   4.684   0.885  15.666 -0.4222  0.5079 -0.1337
 3795TIP3    H132800   4.764   0.929  15.640  0.5636 -0.4749  1.0809
 3795TIP3    H232801   4.639   0.948  15.722 -0.1993  0.8356 -0.3203
 3796TIP3   OH232802   1.849   0.362  15.326  0.0483 -0.2881  0.3436
 3796TIP3    H132803   1.910   0.376  15.398  0.7631 -0.4406 -0.2171
 3796TIP3    H232804   1.904   0.329  15.254 -0.7822 -0.9515 -0.0025
 3797TIP3   OH232805   2.970   2.056  13.820 -0.3698  0.2262 -0.2788
 3797TIP3    H132806   3.052   2.011  13.798 -0.9404 -0.6663 -0.6775
 3797TIP3    H232807   2.909   2.029  13.751 -0.9129  1.1342 -0.1704
 3798TIP3   OH232808   6.551   0.767   2.692  0.0960 -0.4641 -0.0355
 3798TIP3    H132809   6.544   0.690   2.636  0.3269 -0.9431  0.5868
 3798TIP3    H232810   6.496   0.833   2.650  1.1649 -0.4348 -1.4578
 3799TIP3   OH232811   6.706   4.472   6.132 -0.3768 -0.5489 -0.2944
 3799TIP3    H132812   6.638   4.536   6.153 -0.7568 -1.3157  0.8592
 3799TIP3    H232813   6.703   4.408   6.203  0.9733 -1.0732 -0.6731
 3800TIP3   OH232814   4.927   6.211   4.694 -0.1593 -0.1281 -0.0310
 3800TIP3    H132815   4.845   6.243   4.733  0.1491 -0.1882  0.6967
 3800TIP3    H232816   4.904   6.129   4.652 -0.6232  0.2272 -0.4842
 3801TIP3   OH232817   6.696   0.094  15.866  0.2147  0.5506  0.4098
 3801TIP3    H132818   6.653   0.014  15.896  0.6971 -0.4533 -1.4121
 3801TIP3    H232819   6.660   0.163  15.922 -2.0672 -0.5810  0.4478
 3802TIP3   OH232820   1.449   6.626   3.464 -0.1147  0.0450  0.6186
 3802TIP3    H132821   1.427   6.618   3.556 -1.0119 -0.9935  0.3348
 3802TIP3    H232822   1.543   6.646   3.463  0.0386 -0.5524  1.7427
 3803TIP3   OH232823   6.089   5.193   3.860  0.1128  0.1695  0.8820
 3803TIP3    H132824   6.101   5.178   3.954  2.1171  0.8917  0.7906
 3803TIP3    H232825   6.143   5.269   3.841 -0.1601 -0.0440 -0.9042
 3804TIP3   OH232826   1.584   3.726   1.162  0.4588  0.5372 -0.1857
 3804TIP3    H132827   1.675   3.743   1.186  0.4194 -0.4554  0.7611
 3804TIP3    H232828   1.551   3.670   1.232 -0.0162 -1.5654 -1.9688
 3805TIP3   OH232829   3.921   0.304  15.786  0.3608  0.4381  0.2379
 3805TIP3    H132830   3.922   0.340  15.698 -1.6653  0.6221  0.2403
 3805TIP3    H232831   3.896   0.378  15.842  2.4756  0.5526  1.1266
 3806TIP3   OH232832   3.079   1.933   2.864  0.1569  0.1671 -0.2799
 3806TIP3    H132833   3.001   1.910   2.915  1.2886 -1.3644  0.8709
 3806TIP3    H232834   3.090   2.027   2.879 -0.9496  0.2231  0.2763
 3807TIP3   OH232835   3.643   0.042   4.057  0.8515 -0.1420  0.3621
 3807TIP3    H132836   3.736   0.024   4.040  0.8739 -1.3179  1.5345
 3807TIP3    H232837   3.609  -0.040   4.093  0.3360  1.3936  3.7706
 3808TIP3   OH232838   6.089   5.185   1.702  0.0298 -0.2603  0.6950
 3808TIP3    H132839   6.144   5.207   1.626 -1.9855  0.1912 -0.7119
 3808TIP3    H232840   6.022   5.253   1.703 -0.3829 -0.6514  2.5060
 3809TIP3   OH232841   6.132   3.553  11.051  0.1815  0.3382 -0.2298
 3809TIP3    H132842   6.182   3.634  11.057  0.9888 -0.1498 -0.1715
 3809TIP3    H232843   6.178   3.501  10.985 -1.3016  0.5794 -1.5215
 3810TIP3   OH232844   1.453   5.139   1.980  0.3802 -0.0937 -0.8410
 3810TIP3    H132845   1.471   5.088   1.901 -0.6122 -0.2033 -1.0085
 3810TIP3    H232846   1.364   5.171   1.968 -1.0646 -2.7392  1.6041
 3811TIP3   OH232847   2.419   5.313  14.930  0.1175  0.3031  0.0429
 3811TIP3    H132848   2.453   5.402  14.938  0.1674  0.3928 -0.9829
 3811TIP3    H232849   2.417   5.297  14.835 -0.4163 -0.5814  0.1934
 3812TIP3   OH232850   2.741   3.926   0.780  0.2508  0.2547 -0.5206
 3812TIP3    H132851   2.667   3.888   0.733 -0.5515  1.5511 -0.3650
 3812TIP3    H232852   2.767   3.859   0.843 -1.5719  0.2035  0.2346
 3813TIP3   OH232853   3.368   2.834  13.654 -0.2961 -0.2870 -0.1068
 3813TIP3    H132854   3.454   2.854  13.618 -0.2858 -0.8927 -0.4191
 3813TIP3    H232855   3.385   2.808  13.745 -0.0130 -1.6041 -0.5241
 3814TIP3   OH232856   3.855   0.904  13.033 -0.4799  0.6574 -0.7268
 3814TIP3    H132857   3.830   0.949  13.114 -1.5667 -1.2971  0.0903
 3814TIP3    H232858   3.927   0.957  12.998  0.0458  1.5626  1.5191
 3815TIP3   OH232859   1.541   6.111   0.610  0.6878  0.8143 -0.1141
 3815TIP3    H132860   1.556   6.206   0.602 -2.0473  1.4195  0.7468
 3815TIP3    H232861   1.535   6.081   0.519  2.6120  1.2165 -0.4205
 3816TIP3   OH232862   6.338   3.883  11.556 -0.2467  0.3550 -0.0560
 3816TIP3    H132863   6.401   3.910  11.623  0.3845 -1.4280  0.1243
 3816TIP3    H232864   6.263   3.849  11.606 -0.5088  0.6116 -0.2697
 3817TIP3   OH232865   0.220   2.831  16.951  0.3329 -0.3255  0.3985
 3817TIP3    H132866   0.182   2.747  16.978 -0.0351 -0.0542  0.7393
 3817TIP3    H232867   0.309   2.830  16.986  0.3089 -0.5480  0.4508
 3818TIP3   OH232868   3.879   0.762   2.033 -0.3431  0.4812 -0.5116
 3818TIP3    H132869   3.824   0.799   1.964  0.6436  0.3216 -1.4178
 3818TIP3    H232870   3.938   0.834   2.057  0.3679  0.0627 -0.9765
 3819TIP3   OH232871   3.334   2.257  14.162  0.5844 -0.1385  0.3804
 3819TIP3    H132872   3.410   2.200  14.176  0.9559 -0.0492 -1.1254
 3819TIP3    H232873   3.274   2.204  14.110  0.0388  0.1449  0.7112
 3820TIP3   OH232874   2.530   3.220  10.961  0.0124  0.0822  0.6838
 3820TIP3    H132875   2.619   3.254  10.970 -0.3325  1.0379  0.5673
 3820TIP3    H232876   2.536   3.158  10.887 -0.1467  2.9315 -1.9186
 3821TIP3   OH232877   5.645   1.668  13.475 -0.1482  0.4740  0.1582
 3821TIP3    H132878   5.564   1.635  13.512 -0.7323  0.6627 -0.9122
 3821TIP3    H232879   5.714   1.626  13.527 -0.8694 -1.8307 -0.6126
 3822TIP3   OH232880   2.248   5.086   3.158  0.0952  0.6034 -0.4065
 3822TIP3    H132881   2.189   5.049   3.223  0.0591  2.2039  0.5444
 3822TIP3    H232882   2.310   5.016   3.139 -0.9981 -0.4978 -0.0402
 3823TIP3   OH232883   5.605   1.200  15.696 -0.3703 -0.0551 -0.2570
 3823TIP3    H132884   5.621   1.293  15.709 -1.7672 -0.0245  1.7916
 3823TIP3    H232885   5.692   1.162  15.680  0.2535  1.5232 -0.7919
 3824TIP3   OH232886   1.787   1.392   2.103  0.9899  0.1262  0.3239
 3824TIP3    H132887   1.760   1.327   2.038  1.0242  1.0154 -0.5979
 3824TIP3    H232888   1.868   1.429   2.068 -0.1503  2.2194 -0.3310
 3825TIP3   OH232889   0.167   4.132  11.070 -0.3191  0.1373  0.2410
 3825TIP3    H132890   0.076   4.160  11.057 -0.6615 -1.8440 -2.3410
 3825TIP3    H232891   0.196   4.103  10.984  2.4619 -0.2867  1.2175
 3826TIP3   OH232892   2.109   4.768  17.168  0.6653 -0.2293 -0.0390
 3826TIP3    H132893   2.131   4.679  17.197  0.7027  0.0688  0.8719
 3826TIP3    H232894   2.131   4.824  17.243  0.3423  0.5118 -0.4887
 3827TIP3   OH232895   1.032   4.394   3.295  0.4433  0.2931 -0.0795
 3827TIP3    H132896   0.995   4.470   3.249  1.0454  1.3772  1.1383
 3827TIP3    H232897   1.004   4.319   3.243  0.7278  1.4004 -1.9544
 3828TIP3   OH232898   5.612   3.373  14.179  0.7209 -0.1446  0.0123
 3828TIP3    H132899   5.641   3.308  14.116 -0.8134 -0.6724 -0.1816
 3828TIP3    H232900   5.541   3.331  14.227  0.6740  0.8775  0.8872
 3829TIP3   OH232901   3.297   0.360  12.733  0.0755 -0.3104  0.2659
 3829TIP3    H132902   3.321   0.315  12.814 -1.4592  0.8349  1.4375
 3829TIP3    H232903   3.335   0.447  12.742  1.8508 -0.8758 -1.3431
 3830TIP3   OH232904   6.670   0.833  14.232 -0.0733  0.4339 -0.3334
 3830TIP3    H132905   6.755   0.843  14.189  0.6104 -0.8353  0.6318
 3830TIP3    H232906   6.631   0.756  14.191 -1.3557  1.7293 -1.6444
 3831TIP3   OH232907   5.627   6.632   1.383 -0.6698 -0.6131  0.1760
 3831TIP3    H132908   5.552   6.679   1.418 -2.2532 -1.5044 -1.8386
 3831TIP3    H232909   5.700   6.693   1.393 -2.1976  1.3981 -0.3243
 3832TIP3   OH232910   6.795   0.319  12.105  0.3115 -0.8407 -0.3482
 3832TIP3    H132911   6.720   0.278  12.061  0.1935 -0.5176 -0.4524
 3832TIP3    H232912   6.854   0.344  12.033  0.3263 -0.7140 -0.2923
 3833TIP3   OH232913   6.110   3.999  14.708 -0.1360  0.3093  0.2514
 3833TIP3    H132914   6.178   4.064  14.725 -0.6990  1.3232 -1.1777
 3833TIP3    H232915   6.151   3.915  14.730  1.1563  0.9995  0.5763
 3834TIP3   OH232916   6.423   4.969  10.325 -0.3582 -0.8011  0.1336
 3834TIP3    H132917   6.503   4.927  10.293  0.2671 -1.5705  2.4368
 3834TIP3    H232918   6.453   5.052  10.362 -0.7077 -0.7892  0.3952
 3835TIP3   OH232919   5.908   0.041  16.321  0.2854 -0.0530 -0.2447
 3835TIP3    H132920   5.970   0.100  16.364  1.8543 -1.4354 -0.5192
 3835TIP3    H232921   5.873   0.093  16.248  0.3663  1.0814  0.5099
 3836TIP3   OH232922   0.121   2.153  16.256  0.7414  0.0451  0.0301
 3836TIP3    H132923   0.116   2.224  16.192  0.0506 -0.3612 -0.3764
 3836TIP3    H232924   0.056   2.176  16.323  1.0935  0.2020  0.3252
 3837TIP3   OH232925   1.892   4.086  13.106  0.0071  0.4040 -0.2124
 3837TIP3    H132926   1.820   4.067  13.046  1.2303 -0.5393 -1.4551
 3837TIP3    H232927   1.873   4.036  13.185 -0.9676  0.6164 -0.3055
 3838TIP3   OH232928   3.619   4.549  15.585  0.1337  0.1765 -0.1378
 3838TIP3    H132929   3.587   4.574  15.499  0.1917  1.6480  0.2402
 3838TIP3    H232930   3.623   4.454  15.583  0.4495  0.1962 -1.8686
 3839TIP3   OH232931   2.884   0.903  14.404 -0.6703  0.3673 -0.0369
 3839TIP3    H132932   2.813   0.925  14.344 -1.5660 -0.7363  0.5619
 3839TIP3    H232933   2.919   0.820  14.371 -0.2233  0.4809  0.1504
 3840TIP3   OH232934   1.790   1.934   6.246  0.0450 -0.1662  0.1637
 3840TIP3    H132935   1.852   1.901   6.181  1.6114  0.6612  1.1657
 3840TIP3    H232936   1.746   1.856   6.279  0.5821 -0.7879 -0.5433
 3841TIP3   OH232937   2.522   5.075  15.266 -0.1486 -0.4104  0.1334
 3841TIP3    H132938   2.448   5.079  15.206 -1.5335 -2.1123  1.6102
 3841TIP3    H232939   2.513   5.152  15.322 -0.1192 -0.0062 -0.4131
 3842TIP3   OH232940   2.785   2.535  14.442 -0.3556 -0.2497 -0.2123
 3842TIP3    H132941   2.715   2.470  14.441 -0.2887 -0.3322 -1.2343
 3842TIP3    H232942   2.828   2.525  14.357  0.8546 -0.1490  0.3615
 3843TIP3   OH232943   6.039   3.926  16.745  0.5980  0.0461  0.2095
 3843TIP3    H132944   6.014   3.935  16.653  0.7977 -1.0566  0.0314
 3843TIP3    H232945   6.092   4.003  16.764 -0.2774  0.7914 -0.3091
 3844TIP3   OH232946   3.407   4.913  11.694  0.0961 -0.2261  0.3539
 3844TIP3    H132947   3.340   4.975  11.666 -0.2831 -0.5302  0.5819
 3844TIP3    H232948   3.485   4.937  11.642 -0.5309 -0.6570 -0.8178
 3845TIP3   OH232949   5.390   4.858  13.351 -0.3624 -0.3198  0.3433
 3845TIP3    H132950   5.340   4.939  13.359 -1.6276 -1.0714  0.3912
 3845TIP3    H232951   5.473   4.875  13.396 -0.2537  1.2082 -0.3882
 3846TIP3   OH232952   5.921   3.708  14.901  0.1733  0.3121 -0.4689
 3846TIP3    H132953   5.893   3.677  14.987 -1.5910 -0.9692 -1.4368
 3846TIP3    H232954   6.015   3.691  14.899  0.0542 -0.6179  0.8152
 3847TIP3   OH232955   2.312   0.735  16.172  0.4894  0.0571 -0.5478
 3847TIP3    H132956   2.341   0.791  16.100 -0.8147  1.5231  0.0190
 3847TIP3    H232957   2.225   0.704  16.144  0.1826  0.2534  0.1594
 3848TIP3   OH232958   1.871   5.783  13.307  0.4085 -0.3084  0.1838
 3848TIP3    H132959   1.861   5.692  13.335 -2.1837  0.0054  0.4776
 3848TIP3    H232960   1.887   5.832  13.388 -1.3828 -0.1309  0.4591
 3849TIP3   OH232961   1.300   0.202  10.542 -0.2386  0.0055  0.7375
 3849TIP3    H132962   1.251   0.120  10.528  1.3840 -0.7383 -0.9348
 3849TIP3    H232963   1.391   0.179  10.523  0.0987  2.4916 -1.0725
 3850TIP3   OH232964   5.657   5.962  12.301  0.0800 -0.0242  0.5987
 3850TIP3    H132965   5.639   6.011  12.221 -0.3581 -0.0702  0.6693
 3850TIP3    H232966   5.571   5.942  12.337  0.2351 -1.3931  0.2407
 3851TIP3   OH232967   5.526   0.055   5.670  0.1448 -0.6713 -0.0902
 3851TIP3    H132968   5.540   0.111   5.747 -1.6540 -1.8134  1.1370
 3851TIP3    H232969   5.569  -0.027   5.691  1.0398 -0.4730 -1.0385
 3852TIP3   OH232970   5.498   1.348   1.771 -0.1275  0.2550 -0.2818
 3852TIP3    H132971   5.533   1.410   1.835 -3.1519  2.1768 -0.2745
 3852TIP3    H232972   5.490   1.266   1.818  0.6767  0.7998  0.8404
 3853TIP3   OH232973   1.797   1.660   0.227  0.0743  0.0798 -0.2537
 3853TIP3    H132974   1.728   1.606   0.265 -0.7386 -0.3564 -2.1995
 3853TIP3    H232975   1.753   1.741   0.200  1.1470  1.5483  2.0124
 3854TIP3   OH232976   6.637   3.521  11.071  0.8387  0.0029 -0.7343
 3854TIP3    H132977   6.718   3.471  11.062 -0.3354 -1.8899 -1.6368
 3854TIP3    H232978   6.584   3.495  10.995 -0.7675  0.8505  0.0320
 3855TIP3   OH232979   4.094   4.141  12.739 -0.0307  0.2492  0.2822
 3855TIP3    H132980   4.115   4.181  12.824 -0.6860 -0.5841  0.8461
 3855TIP3    H232981   4.165   4.170  12.681  0.9854  0.0063  1.3694
 3856TIP3   OH232982   4.446   0.760   4.921 -0.3849  0.4863  0.0802
 3856TIP3    H132983   4.409   0.735   5.006 -1.2511  1.6284  0.0766
 3856TIP3    H232984   4.488   0.681   4.888 -0.0389  0.0186  1.5661
 3857TIP3   OH232985   5.754   0.441  17.164  0.2553 -0.0525 -0.1039
 3857TIP3    H132986   5.837   0.471  17.128  0.8428 -1.8016 -0.2988
 3857TIP3    H232987   5.779   0.391  17.242 -0.5655 -0.9268 -0.3821
 3858TIP3   OH232988   6.711   4.592  13.080  0.0337  0.0400 -0.0304
 3858TIP3    H132989   6.682   4.635  13.000  0.5419 -0.8416 -0.7110
 3858TIP3    H232990   6.712   4.499  13.058  1.5816 -0.1058  0.5219
 3859TIP3   OH232991   4.993   0.271   3.203 -0.1140  0.1008  0.2274
 3859TIP3    H132992   4.974   0.217   3.126  0.8968 -1.2563  0.8795
 3859TIP3    H232993   4.908   0.301   3.233 -0.4924  1.3056 -1.8405
 3860TIP3   OH232994   6.357   4.739  13.635  0.6758  0.6444  0.5081
 3860TIP3    H132995   6.316   4.779  13.711 -1.1681  0.4824 -0.3438
 3860TIP3    H232996   6.314   4.780  13.560  1.2393 -0.4101 -0.4224
 3861TIP3   OH232997   1.595   2.068  11.369  0.1167  0.1532 -0.0828
 3861TIP3    H132998   1.560   2.074  11.280 -1.8632 -0.1320  0.6296
 3861TIP3    H232999   1.601   2.159  11.398 -1.6844  0.1802  0.3433
 3862TIP3   OH233000   2.126   4.416   3.589 -0.4222 -0.1935 -0.2555
 3862TIP3    H133001   2.072   4.468   3.649  0.1088 -1.5375  1.4566
 3862TIP3    H233002   2.213   4.455   3.594 -0.4967  0.0241 -0.5926
 3863TIP3   OH233003   1.914   2.150  12.625  0.1330  0.3439 -0.1228
 3863TIP3    H133004   1.938   2.156  12.718 -0.5235 -1.0458  0.1558
 3863TIP3    H233005   1.823   2.180  12.622  0.2943  0.8179 -0.3993
 3864TIP3   OH233006   3.947   0.333   5.783  0.6857  0.2046 -0.3718
 3864TIP3    H133007   3.873   0.339   5.843  1.8062  1.7291  0.9149
 3864TIP3    H233008   3.936   0.248   5.740 -0.9326 -0.2860  0.9346
 3865TIP3   OH233009   0.506   0.066  12.312  0.1720  0.1328 -0.0637
 3865TIP3    H133010   0.491   0.090  12.221  2.0758  1.5712 -0.0639
 3865TIP3    H233011   0.564  -0.011  12.308 -1.2948 -1.0091 -0.0373
 3866TIP3   OH233012   0.677   5.587   3.797 -0.0866 -0.4491  0.1581
 3866TIP3    H133013   0.636   5.670   3.774 -1.6123 -1.1160  0.3800
 3866TIP3    H233014   0.707   5.551   3.713  1.6240  0.8090  0.1723
 3867TIP3   OH233015   5.648   2.596  16.931 -0.3354 -0.1533  1.0979
 3867TIP3    H133016   5.553   2.608  16.929 -0.3240 -0.1095  0.8180
 3867TIP3    H233017   5.661   2.515  16.981 -0.7477 -2.4945 -2.3044
 3868TIP3   OH233018   2.517   2.990   3.731  0.1649  0.4291 -0.1546
 3868TIP3    H133019   2.537   3.029   3.646 -0.1937  0.3955 -0.2566
 3868TIP3    H233020   2.548   2.899   3.724 -0.1836  0.3269 -0.3713
 3869TIP3   OH233021   2.357   6.412   0.915 -0.0749  0.8283  0.5000
 3869TIP3    H133022   2.382   6.394   1.006  0.9031  2.2058  0.5373
 3869TIP3    H233023   2.372   6.330   0.869 -1.1344 -0.0754  1.6669
 3870TIP3   OH233024   4.673   0.065   3.498 -0.1591  0.2543  0.3712
 3870TIP3    H133025   4.679   0.073   3.403  0.9846 -1.0836  0.3075
 3870TIP3    H233026   4.633  -0.020   3.513  0.8195 -0.0941  1.0834
 3871TIP3   OH233027   2.995   2.557  12.338  0.1825  0.0843 -0.4646
 3871TIP3    H133028   3.049   2.482  12.311 -1.9841 -1.3513 -1.0667
 3871TIP3    H233029   2.985   2.545  12.432  0.2560 -0.0976 -0.4773
 3872TIP3   OH233030   6.490   5.834  11.641  0.2373  0.1736 -0.2159
 3872TIP3    H133031   6.547   5.763  11.671  1.9838  0.0504 -3.4092
 3872TIP3    H233032   6.504   5.904  11.704  2.7971 -0.4061 -0.0155
 3873TIP3   OH233033   5.698   5.814   4.681 -0.3670  0.0689 -0.1524
 3873TIP3    H133034   5.732   5.895   4.718 -1.0327 -0.7110  2.3388
 3873TIP3    H233035   5.772   5.753   4.684 -0.0495  0.3546 -1.4305
 3874TIP3   OH233036   1.054   1.559   2.851 -0.5025 -0.0494 -0.6723
 3874TIP3    H133037   1.017   1.512   2.926  0.3328 -0.3109 -0.4189
 3874TIP3    H233038   1.021   1.512   2.775  0.6054 -1.3027 -0.4219
 3875TIP3   OH233039   4.492   6.476   2.611 -0.5044 -0.7119 -0.5583
 3875TIP3    H133040   4.416   6.427   2.642  0.0064 -1.8434 -1.0043
 3875TIP3    H233041   4.560   6.409   2.598  1.1281  0.4448  1.4082
 3876TIP3   OH233042   2.040   3.414  14.395  0.0826 -0.6055 -0.0856
 3876TIP3    H133043   2.068   3.424  14.304 -1.2470  0.3053 -0.4248
 3876TIP3    H233044   2.112   3.367  14.437  3.0396  3.1370 -0.4217
 3877TIP3   OH233045   4.299   3.126   3.215  0.6405  0.6275 -0.0984
 3877TIP3    H133046   4.278   3.197   3.154  1.0465 -0.3401 -1.4016
 3877TIP3    H233047   4.339   3.171   3.290 -0.7601  1.9357 -0.0726
 3878TIP3   OH233048   1.201   2.940   2.232 -0.7770  0.2567 -0.0579
 3878TIP3    H133049   1.140   2.876   2.268 -0.9160  0.7944  0.6873
 3878TIP3    H233050   1.206   2.919   2.138 -0.2651 -1.2833  0.2920
 3879TIP3   OH233051   4.055   2.551   4.216 -0.4283 -0.5985  0.3357
 3879TIP3    H133052   4.139   2.522   4.180 -0.2524  0.2937  0.0111
 3879TIP3    H233053   4.065   2.540   4.311  1.2228  2.2859  0.6287
 3880TIP3   OH233054   3.411   1.522  13.181  0.0304 -0.2978 -0.3656
 3880TIP3    H133055   3.396   1.602  13.231  2.4830 -1.3336  2.2617
 3880TIP3    H233056   3.406   1.550  13.089  0.5917  2.7975  0.4361
 3881TIP3   OH233057   4.052   1.736  12.371  0.6842 -0.0385 -0.1330
 3881TIP3    H133058   4.120   1.677  12.401  1.5851  1.9156  1.9923
 3881TIP3    H233059   4.094   1.791  12.305  0.1051 -1.1143 -1.4381
 3882TIP3   OH233060   1.738   4.770  15.812 -0.4431 -0.4872 -0.2960
 3882TIP3    H133061   1.797   4.842  15.790 -0.9237  0.1518  0.4426
 3882TIP3    H233062   1.748   4.758  15.906 -1.4400 -0.3893 -0.1586
 3883TIP3   OH233063   4.518   6.202  12.537 -0.0184 -0.3722  0.0165
 3883TIP3    H133064   4.506   6.267  12.468 -1.1217 -2.1877 -1.6168
 3883TIP3    H233065   4.604   6.221  12.574 -0.6176  2.4490  0.1465
 3884TIP3   OH233066   6.436   4.163   3.528  0.2420 -0.1590 -0.2353
 3884TIP3    H133067   6.393   4.177   3.612 -0.3925 -0.0696 -0.5709
 3884TIP3    H233068   6.459   4.070   3.528  1.7191  0.1738  0.7153
 3885TIP3   OH233069   0.588   1.580   2.054  0.1025  0.4671  0.1368
 3885TIP3    H133070   0.533   1.638   2.107 -1.5151 -1.7361  0.9968
 3885TIP3    H233071   0.527   1.533   1.998  1.2834 -0.9119 -0.0569
 3886TIP3   OH233072   6.224   6.415  14.105 -0.7258  0.0529 -0.0598
 3886TIP3    H133073   6.228   6.330  14.150 -0.1775  0.0819 -0.0474
 3886TIP3    H233074   6.278   6.472  14.158 -0.5426  0.2389 -0.4466
 3887TIP3   OH233075   5.097   3.267  16.668  0.1100 -0.4785  0.0449
 3887TIP3    H133076   5.131   3.356  16.681 -0.8775 -0.1207  0.2265
 3887TIP3    H233077   5.077   3.236  16.756 -1.0888 -0.2545 -0.1312
 3888TIP3   OH233078   2.329   5.471  12.677 -0.6706 -0.2734 -0.2321
 3888TIP3    H133079   2.369   5.507  12.597 -0.1904 -1.0327 -0.3488
 3888TIP3    H233080   2.305   5.548  12.729 -1.8096  0.2612 -1.4882
 3889TIP3   OH233081   0.844   0.156   3.180  0.6703  0.2498  0.3325
 3889TIP3    H133082   0.827   0.242   3.217  1.0498  0.0650  0.9490
 3889TIP3    H233083   0.810   0.161   3.090  0.3060  0.8973  0.5037
 3890TIP3   OH233084   0.639   2.725   4.538  0.1901  0.1640 -0.0932
 3890TIP3    H133085   0.622   2.632   4.553 -1.4907  0.1010 -1.9188
 3890TIP3    H233086   0.560   2.757   4.494  1.3677  2.0892 -0.9672
 3891TIP3   OH233087   3.749   2.166  17.047 -0.4551 -0.2045 -0.5687
 3891TIP3    H133088   3.660   2.148  17.018 -0.5064 -0.6600 -0.1395
 3891TIP3    H233089   3.761   2.111  17.124 -0.5444  1.4602  0.6972
 3892TIP3   OH233090   6.706   5.054   3.847  0.2269  0.3420  0.4010
 3892TIP3    H133091   6.661   5.129   3.886 -2.7716 -1.9324  1.7762
 3892TIP3    H233092   6.711   4.990   3.918 -1.9100 -2.5425 -1.7891
 3893TIP3   OH233093   1.477   4.540   4.673  0.0193  0.1857 -0.4835
 3893TIP3    H133094   1.559   4.492   4.660  1.2921  2.3038 -0.6577
 3893TIP3    H233095   1.456   4.575   4.587 -2.0306 -1.6782 -0.8260
 3894TIP3   OH233096   3.051   4.520  14.173  0.8240  0.4088 -0.4496
 3894TIP3    H133097   3.116   4.589  14.176  0.9672  0.2447  0.9175
 3894TIP3    H233098   2.997   4.541  14.097  1.0908  1.8059 -0.2815
 3895TIP3   OH233099   6.611   4.858  16.164 -0.0125  0.0525 -0.0549
 3895TIP3    H133100   6.542   4.791  16.157  0.2303 -0.1423 -0.6915
 3895TIP3    H233101   6.567   4.933  16.202 -0.7729  0.1815 -1.1242
 3896TIP3   OH233102   5.180   4.154   0.500 -0.6273  0.1135  0.4364
 3896TIP3    H133103   5.249   4.126   0.560 -1.4234  1.1494  1.9095
 3896TIP3    H233104   5.127   4.076   0.487  0.2511 -0.4351  0.0917
 3897TIP3   OH233105   6.151   6.294  10.565 -0.1477 -0.5374 -0.1307
 3897TIP3    H133106   6.167   6.385  10.588  0.6892 -0.5704 -0.5412
 3897TIP3    H233107   6.127   6.252  10.648  2.5176 -0.5919  0.7159
 3898TIP3   OH233108   1.130   3.411  15.451  0.1920 -0.0255 -0.0348
 3898TIP3    H133109   1.093   3.461  15.524  0.1358  0.4507 -0.3864
 3898TIP3    H233110   1.201   3.361  15.490 -0.1545 -0.1476  0.4446
 3899TIP3   OH233111   1.510   4.417  16.587  0.2221  0.0835 -0.1571
 3899TIP3    H133112   1.491   4.486  16.523  0.9061 -0.5886 -1.1198
 3899TIP3    H233113   1.599   4.389  16.565  1.3396  1.2856  2.4542
 3900TIP3   OH233114   2.928   2.619  11.681  0.4039 -0.1790 -0.4756
 3900TIP3    H133115   2.978   2.663  11.612 -0.6716  2.0500  0.0616
 3900TIP3    H233116   2.844   2.597  11.639  0.0808  0.3828 -0.1335
 3901TIP3   OH233117   4.795   6.761  12.764 -0.2689  0.2663 -0.0680
 3901TIP3    H133118   4.777   6.768  12.670 -0.2337  1.4087 -0.0015
 3901TIP3    H233119   4.851   6.684  12.772  1.5768  1.4070 -1.2689
 3902TIP3   OH233120   2.404   4.575  15.010 -0.2497 -0.2658  0.1952
 3902TIP3    H133121   2.474   4.542  15.067  0.0220 -2.3274 -1.1931
 3902TIP3    H233122   2.384   4.500  14.953 -3.2634  0.4162  0.2274
 3903TIP3   OH233123   0.022   6.082  13.461  1.2224  0.1729  0.1429
 3903TIP3    H133124   0.026   6.025  13.383 -1.4037 -0.9494  0.7045
 3903TIP3    H233125  -0.002   6.168  13.426 -0.0474 -0.3478 -0.3265
 3904TIP3   OH233126   6.521   0.350   0.802  0.9273 -0.8699 -0.3043
 3904TIP3    H133127   6.534   0.442   0.780 -1.3489 -0.7101 -1.2275
 3904TIP3    H233128   6.588   0.331   0.868  3.4576  0.5679 -2.2901
 3905TIP3   OH233129   0.969   0.931  11.671  0.2292 -0.3493  0.3021
 3905TIP3    H133130   1.060   0.911  11.653  0.0551 -1.0094  0.1155
 3905TIP3    H233131   0.968   1.023  11.694  0.7141  0.0986 -1.3277
 3906TIP3   OH233132   3.933   4.067   4.241 -0.3224 -0.2324 -0.6860
 3906TIP3    H133133   3.927   4.077   4.336 -0.6995 -1.1713 -0.6075
 3906TIP3    H233134   3.948   3.974   4.227 -0.9792 -0.2158 -1.5795
 3907TIP3   OH233135   6.782   0.086  16.561 -0.0961 -0.2180 -0.3543
 3907TIP3    H133136   6.800   0.050  16.474 -0.3525 -2.4006  0.4450
 3907TIP3    H233137   6.844   0.042  16.619 -0.8394  0.1771  0.7787
 3908TIP3   OH233138   6.439   4.749   3.254 -0.6742  0.0553 -0.5304
 3908TIP3    H133139   6.492   4.691   3.200  0.8638 -0.1606  1.1303
 3908TIP3    H233140   6.431   4.829   3.201  0.6177 -0.2077 -1.1669
 3909TIP3   OH233141   5.023   3.487  12.001 -0.6667  0.3484 -0.4470
 3909TIP3    H133142   5.030   3.446  11.915 -1.3643 -1.8872  0.4953
 3909TIP3    H233143   5.109   3.529  12.015  0.5054 -1.7013 -1.0739
 3910TIP3   OH233144   2.759   1.205  11.110 -0.0554 -0.7289  0.3553
 3910TIP3    H133145   2.820   1.200  11.037 -0.5238  0.6683 -0.1681
 3910TIP3    H233146   2.676   1.176  11.075 -0.6591  1.4379 -0.1766
 3911TIP3   OH233147   2.347   0.092   6.042  0.1746 -0.2667 -0.0820
 3911TIP3    H133148   2.277   0.050   5.992  1.8719 -0.5027 -2.4000
 3911TIP3    H233149   2.397   0.020   6.080  0.8477 -0.2459 -0.8908
 3912TIP3   OH233150   1.953   1.871  14.832 -0.2428  0.3464 -0.0281
 3912TIP3    H133151   1.884   1.900  14.892  0.9419  1.2324  0.9607
 3912TIP3    H233152   2.021   1.938  14.840  0.5279 -0.2417 -1.3576
 3913TIP3   OH233153   1.808   3.736  12.023  0.2332  0.6492  0.0231
 3913TIP3    H133154   1.898   3.726  11.992  0.6104  1.0335  0.9644
 3913TIP3    H233155   1.794   3.661  12.081 -0.6292 -0.3312 -1.3784
 3914TIP3   OH233156   0.580   3.632   5.768  0.8385 -0.0667 -0.3526
 3914TIP3    H133157   0.518   3.589   5.709  1.3523 -0.4580 -0.6135
 3914TIP3    H233158   0.527   3.697   5.814 -0.1503 -1.4689  0.6023
 3915TIP3   OH233159   1.751   0.795   5.716  0.4657  0.1368  0.1250
 3915TIP3    H133160   1.793   0.881   5.721  0.4894  0.1485 -0.2221
 3915TIP3    H233161   1.823   0.733   5.717  0.3934  0.0424  1.8577
 3916TIP3   OH233162   2.496   3.841  15.795 -0.9744  0.3963 -0.0259
 3916TIP3    H133163   2.557   3.838  15.721 -1.1061  1.2418 -0.1889
 3916TIP3    H233164   2.509   3.928  15.833  1.0128 -0.9189  2.6370
 3917TIP3   OH233165   4.058   6.366   5.615 -0.5582 -0.3859 -0.3125
 3917TIP3    H133166   4.126   6.299   5.610  0.0138  0.0637  0.9250
 3917TIP3    H233167   4.040   6.375   5.709 -0.2163  1.5646 -0.3824
 3918TIP3   OH233168   1.855   5.227  12.176 -0.4685  0.0028 -0.0625
 3918TIP3    H133169   1.809   5.300  12.133 -0.1488  1.6942  2.2563
 3918TIP3    H233170   1.903   5.269  12.248  1.5780 -2.2300 -0.0073
 3919TIP3   OH233171   0.731   2.986  14.120 -0.4565 -0.5010 -0.3418
 3919TIP3    H133172   0.672   2.981  14.194  0.0568  0.4769  0.1568
 3919TIP3    H233173   0.765   2.897  14.109 -2.0946 -1.1045 -0.7251
 3920TIP3   OH233174   5.073   1.130  12.469  0.0255 -0.1743  0.2525
 3920TIP3    H133175   4.987   1.155  12.502  0.1248 -0.7755  0.9888
 3920TIP3    H233176   5.120   1.098  12.546  0.5824 -0.7415 -0.3132
 3921TIP3   OH233177   0.891   1.699  14.940 -0.1909 -0.0706  0.6594
 3921TIP3    H133178   0.833   1.735  15.008 -1.9266 -0.7113 -0.3969
 3921TIP3    H233179   0.928   1.776  14.897 -1.6686  0.4475  0.2353
 3922TIP3   OH233180   2.808   0.939   0.222  0.1700  0.5523 -0.0131
 3922TIP3    H133181   2.730   0.960   0.273  0.3723  0.7193  0.2272
 3922TIP3    H233182   2.879   0.988   0.264 -0.0443  2.5621 -1.7989
 3923TIP3   OH233183   1.359   6.238   5.800  0.2615 -0.9165 -0.2614
 3923TIP3    H133184   1.414   6.310   5.769  0.1967  0.6209  2.8229
 3923TIP3    H233185   1.270   6.273   5.796  0.2741 -0.5108  1.7232
 3924TIP3   OH233186   4.624   3.872  16.262 -0.1483 -0.3059  0.2415
 3924TIP3    H133187   4.623   3.960  16.227 -0.0111  0.0651  1.1420
 3924TIP3    H233188   4.696   3.872  16.325  2.4993 -2.1814 -2.4892
 3925TIP3   OH233189   2.053   5.244  16.789  0.7014  0.4203  0.0214
 3925TIP3    H133190   2.115   5.302  16.743  0.7579  0.6147  0.3402
 3925TIP3    H233191   2.065   5.159  16.748  2.1357  0.1372  0.9555
 3926TIP3   OH233192   3.512   1.350   5.717  0.1401  0.0858 -0.1933
 3926TIP3    H133193   3.426   1.391   5.718  0.2724  0.3858  1.4507
 3926TIP3    H233194   3.573   1.423   5.732  0.5083 -0.4440  0.9559
 3927TIP3   OH233195   1.306   2.642  12.545  0.4017  0.3123 -0.2137
 3927TIP3    H133196   1.392   2.671  12.574  0.6545 -0.7968  0.1742
 3927TIP3    H233197   1.305   2.659  12.451  1.7886 -1.4295 -0.5865
 3928TIP3   OH233198   5.571   2.209   2.318 -0.3759 -0.0517 -0.0193
 3928TIP3    H133199   5.603   2.196   2.408  2.8227 -2.3742 -1.2764
 3928TIP3    H233200   5.491   2.157   2.314  0.0757 -0.9036  1.2038
 3929TIP3   OH233201   3.683   2.169  14.464  0.0989  0.1262  0.0869
 3929TIP3    H133202   3.620   2.191  14.533 -0.0875  0.2396 -0.1197
 3929TIP3    H233203   3.712   2.080  14.485  1.2874  0.7391  1.2740
 3930TIP3   OH233204   3.557   3.182  11.547 -0.4075  0.0457  0.0036
 3930TIP3    H133205   3.501   3.258  11.561 -0.6421 -0.2048  0.4687
 3930TIP3    H233206   3.645   3.211  11.572 -0.7140 -0.2077  1.4856
 3931TIP3   OH233207   1.198   3.565   3.008  0.0842 -0.1417 -0.2222
 3931TIP3    H133208   1.167   3.477   3.030  1.6244 -0.9719 -1.1522
 3931TIP3    H233209   1.293   3.555   3.002  0.2037  1.3695 -1.3011
 3932TIP3   OH233210   4.851   3.844   2.963 -0.6242  0.5923  0.0374
 3932TIP3    H133211   4.830   3.902   2.889 -0.4928  2.7831  1.6074
 3932TIP3    H233212   4.767   3.806   2.988 -0.6399 -0.3447 -1.3125
 3933TIP3   OH233213   4.229   1.051   2.354 -0.1268 -0.2271  0.2263
 3933TIP3    H133214   4.283   1.039   2.433  1.0619  1.4983 -0.2638
 3933TIP3    H233215   4.292   1.046   2.282 -0.5537  1.9345 -0.3628
 3934TIP3   OH233216   0.914   0.053  16.466  0.2228  0.0558  0.0951
 3934TIP3    H133217   0.979  -0.015  16.453  0.0670 -0.0129 -0.3236
 3934TIP3    H233218   0.889   0.081  16.378  0.0117  0.3920  0.2565
 3935TIP3   OH233219   3.333   3.729   4.467  0.0130  0.3163 -0.0009
 3935TIP3    H133220   3.362   3.662   4.530  1.3074  1.3263  0.5205
 3935TIP3    H233221   3.414   3.756   4.423 -0.6424  0.8567 -0.9011
 3936TIP3   OH233222   1.246   1.423  15.156 -0.4254 -0.3806  0.3083
 3936TIP3    H133223   1.181   1.353  15.164 -0.6589 -0.1833  0.1574
 3936TIP3    H233224   1.270   1.423  15.064 -0.2911 -0.3830  0.3434
 3937TIP3   OH233225   3.838   4.067  12.215  0.1969 -0.5603  0.4158
 3937TIP3    H133226   3.929   4.097  12.227 -0.2141  1.0195 -0.0925
 3937TIP3    H233227   3.787   4.127  12.269 -0.5952 -1.1121  0.2892
 3938TIP3   OH233228   1.356   6.058  16.392 -0.6477 -0.3218  0.1179
 3938TIP3    H133229   1.273   6.011  16.403 -0.2383 -0.9618  0.5422
 3938TIP3    H233230   1.412   5.997  16.343  0.5616 -1.1598  2.3625
 3939TIP3   OH233231   5.022   2.091   1.604  0.0855 -0.0718  0.5871
 3939TIP3    H133232   4.983   2.004   1.595 -3.7924  1.4673  0.7779
 3939TIP3    H233233   5.053   2.113   1.516  2.8557 -2.1929  0.8752
 3940TIP3   OH233234   1.753   3.381   0.234 -0.2821 -0.0952 -0.5265
 3940TIP3    H133235   1.750   3.400   0.328 -0.0213 -0.0338 -0.5286
 3940TIP3    H233236   1.720   3.460   0.193 -1.9013 -0.6872 -0.4367
 3941TIP3   OH233237   2.345   6.300  15.674 -0.2307 -0.3331 -0.0822
 3941TIP3    H133238   2.356   6.206  15.664 -0.8755 -0.5319  0.9562
 3941TIP3    H233239   2.383   6.337  15.595 -0.9197 -1.5220 -0.9953
 3942TIP3   OH233240   1.534   5.727   5.336  0.3457 -0.2482 -0.3661
 3942TIP3    H133241   1.497   5.718   5.423  1.1336  0.9421  0.1126
 3942TIP3    H233242   1.628   5.709   5.347  0.8507  1.9861 -0.5155
 3943TIP3   OH233243   4.821   0.945   3.259 -0.0012 -0.1189 -0.2585
 3943TIP3    H133244   4.870   0.868   3.230 -1.0835 -0.4307 -1.3391
 3943TIP3    H233245   4.832   1.008   3.188 -0.2684  0.2102 -0.0096
 3944TIP3   OH233246   0.432   1.923  11.250 -0.1456 -0.4801  0.2638
 3944TIP3    H133247   0.482   2.002  11.230 -1.2092  0.1195 -0.0752
 3944TIP3    H233248   0.497   1.862  11.284  0.6985  0.5152  0.4807
 3945TIP3   OH233249   2.720   3.064  12.978 -0.4850 -0.1753 -0.0440
 3945TIP3    H133250   2.674   2.994  12.931  1.7109 -2.7391  1.3322
 3945TIP3    H233251   2.691   3.054  13.068 -0.5530  1.0982  0.0845
 3946TIP3   OH233252   0.664   2.490  14.563  0.5466 -0.1449  0.1700
 3946TIP3    H133253   0.618   2.466  14.643 -0.8272 -2.9707 -1.3292
 3946TIP3    H233254   0.600   2.477  14.493  1.7986  1.8781 -1.4925
 3947TIP3   OH233255   4.227   2.534  10.678  0.2707  0.0089 -0.1150
 3947TIP3    H133256   4.263   2.532  10.590 -0.3761  1.4941 -0.4438
 3947TIP3    H233257   4.241   2.624  10.708 -2.0091  0.3207  0.2047
 3948TIP3   OH233258   4.434   4.853  11.851  0.5703 -0.3858 -0.2644
 3948TIP3    H133259   4.517   4.901  11.846  1.3535 -1.2844  2.5823
 3948TIP3    H233260   4.367   4.921  11.837  1.7107  0.4716 -1.9389
 3949TIP3   OH233261   2.142   3.617  13.199  0.3791 -0.1066  0.0670
 3949TIP3    H133262   2.233   3.603  13.173  0.9608  0.5796  1.5761
 3949TIP3    H233263   2.096   3.636  13.117  1.6612 -0.1021 -0.6841
 3950TIP3   OH233264   4.669   2.148  11.074  0.3480  0.5244  0.4817
 3950TIP3    H133265   4.656   2.160  10.980 -0.5549  0.8243  0.6324
 3950TIP3    H233266   4.723   2.069  11.082  0.5449  0.5769 -0.2830
 3951TIP3   OH233267   5.164   5.170   1.068  0.4639  0.2118  0.1411
 3951TIP3    H133268   5.087   5.191   1.015  2.1017 -0.6966 -2.8091
 3951TIP3    H233269   5.233   5.226   1.033  1.9660 -1.4674  0.2847
 3952TIP3   OH233270   0.956   1.231   3.366 -0.3096  0.2639  0.4161
 3952TIP3    H133271   1.022   1.280   3.317 -1.1767  0.0969 -0.9639
 3952TIP3    H233272   0.941   1.283   3.445  1.4620  0.2995  0.7679
 3953TIP3   OH233273   2.022   3.546  11.440  0.4065 -0.3798 -0.2447
 3953TIP3    H133274   2.019   3.571  11.532  0.1087  0.8629 -0.5694
 3953TIP3    H233275   1.984   3.458  11.437 -0.4291 -0.0706  0.7041
 3954TIP3   OH233276   1.201   4.339   0.936 -0.4886 -0.5718 -0.6367
 3954TIP3    H133277   1.198   4.260   0.881 -0.7918  0.4148 -2.1018
 3954TIP3    H233278   1.264   4.396   0.891 -1.7804  0.8083 -0.7408
 3955TIP3   OH233279   3.597   1.898  12.412 -0.0708  0.4511 -0.0594
 3955TIP3    H133280   3.550   1.833  12.360 -0.9819 -0.8468  2.2610
 3955TIP3    H233281   3.663   1.847  12.460 -0.8182  1.1484  1.8166
 3956TIP3   OH233282   4.741   4.543   0.452  0.1587  0.2535  0.4300
 3956TIP3    H133283   4.773   4.525   0.364  0.1905  0.8446  0.3163
 3956TIP3    H233284   4.724   4.457   0.490  1.1753 -0.0551  0.2310
 3957TIP3   OH233285   1.293   5.510   4.902 -0.0442 -0.2807  0.4618
 3957TIP3    H133286   1.353   5.556   4.961 -0.8214 -1.5383  2.3055
 3957TIP3    H233287   1.275   5.427   4.946 -2.8950 -0.0961 -0.1775
 3958TIP3   OH233288   4.353   1.399  13.316 -0.5763  0.0745  0.0666
 3958TIP3    H133289   4.414   1.422  13.247 -0.8071  2.5748  0.5973
 3958TIP3    H233290   4.322   1.312  13.293  0.0141  0.4618 -2.5020
 3959TIP3   OH233291   6.370   3.916   2.951 -0.1494 -0.4885  0.0620
 3959TIP3    H133292   6.360   3.942   3.043  0.7895 -0.4799  0.1702
 3959TIP3    H233293   6.452   3.867   2.949 -0.5766 -1.2036 -0.6288
 3960TIP3   OH233294   5.404   1.393   5.310 -0.3557 -0.0238  0.3753
 3960TIP3    H133295   5.396   1.406   5.404 -1.6762  0.4201  0.2238
 3960TIP3    H233296   5.382   1.478   5.272 -0.3856 -0.3475 -0.3545
 3961TIP3   OH233297   0.402   1.295  14.082 -0.0207 -0.2617  0.3450
 3961TIP3    H133298   0.368   1.297  13.993  0.4646  1.3694  0.1711
 3961TIP3    H233299   0.398   1.386  14.112  1.1564 -0.5467  1.4701
 3962TIP3   OH233300   2.100   0.956  11.120  0.3509 -0.2566 -0.4347
 3962TIP3    H133301   2.159   1.014  11.072 -2.5774  1.4272 -2.2368
 3962TIP3    H233302   2.080   0.885  11.059  0.2927 -0.7146  0.0982
 3963TIP3   OH233303   3.648   2.025  15.410 -0.4448 -0.2299 -0.0210
 3963TIP3    H133304   3.610   1.969  15.342 -0.6186 -1.8494  1.3452
 3963TIP3    H233305   3.679   2.102  15.363 -3.7971  0.4106 -1.4861
 3964TIP3   OH233306   6.081   6.716  11.460 -0.4664  0.2638  0.1312
 3964TIP3    H133307   6.111   6.672  11.380 -0.7029 -1.6683  1.0541
 3964TIP3    H233308   5.987   6.701  11.462 -0.3855 -0.1575  1.0342
 3965TIP3   OH233309   2.379   6.275  11.425  0.2982 -0.6934  0.0144
 3965TIP3    H133310   2.397   6.262  11.518 -0.5176 -1.4014  0.0818
 3965TIP3    H233311   2.284   6.274  11.419  0.3212  0.3464 -0.6932
 3966TIP3   OH233312   4.659   0.417   5.138  0.3101  0.5731  0.4893
 3966TIP3    H133313   4.729   0.364   5.099  0.0753 -0.1222  0.9933
 3966TIP3    H233314   4.609   0.450   5.063  0.4192  0.0189  0.1655
 3967TIP3   OH233315   5.352   2.068   5.605  0.0971 -0.3602  0.3621
 3967TIP3    H133316   5.301   2.000   5.561  0.0762 -0.4206  0.4789
 3967TIP3    H233317   5.400   2.022   5.674  1.9316 -0.6834 -1.0361
 3968TIP3   OH233318   5.782   5.869  13.446 -0.3365 -0.2341  0.1579
 3968TIP3    H133319   5.822   5.789  13.480  2.3172  1.7309  2.1176
 3968TIP3    H233320   5.847   5.904  13.386 -1.8831  0.0539 -1.4307
 3969TIP3   OH233321   1.462   4.665   1.445  0.2236 -0.4589 -0.5773
 3969TIP3    H133322   1.488   4.613   1.521 -1.1331 -1.5156 -0.8084
 3969TIP3    H233323   1.543   4.678   1.396  0.2540 -5.5708 -2.4788
 3970TIP3   OH233324   0.078   6.452  13.692 -0.1777  0.4109 -0.1862
 3970TIP3    H133325   0.041   6.377  13.645  1.2412  0.3757 -1.3063
 3970TIP3    H233326   0.171   6.432  13.698 -0.2288  0.6027  2.3636
 3971TIP3   OH233327   0.902   1.325  16.095 -0.0934  0.3270 -0.3648
 3971TIP3    H133328   0.907   1.336  16.189 -1.6043  1.3113 -0.3581
 3971TIP3    H233329   0.847   1.247  16.083 -1.0339  0.9831 -0.4132
 3972TIP3   OH233330   3.726   2.897  10.590  0.8543  0.5185 -0.4965
 3972TIP3    H133331   3.651   2.839  10.578 -0.1725  1.8286 -0.6982
 3972TIP3    H233332   3.802   2.843  10.570 -0.0824 -0.6431 -1.0364
 3973TIP3   OH233333   3.852   0.452   0.251 -0.1377 -0.3873  0.2368
 3973TIP3    H133334   3.842   0.457   0.346 -1.4570 -0.7987  0.1407
 3973TIP3    H233335   3.870   0.359   0.234 -1.6357 -0.6491 -0.0344
 3974TIP3   OH233336   1.183   6.742  13.783 -0.1734 -0.1080  0.0505
 3974TIP3    H133337   1.101   6.705  13.814  0.8221 -0.7495  2.1402
 3974TIP3    H233338   1.183   6.831  13.818  0.6890 -0.6387  1.5068
 3975TIP3   OH233339   5.604   0.665  16.382 -0.0043  0.1002  0.1379
 3975TIP3    H133340   5.693   0.699  16.375  0.8077 -1.8142  0.5931
 3975TIP3    H233341   5.577   0.646  16.292  0.9502 -1.4095  0.1296
 3976TIP3   OH233342   2.090   5.810  16.929  0.2556  0.0657 -0.1988
 3976TIP3    H133343   2.155   5.828  16.997  0.7908 -1.5630 -0.2449
 3976TIP3    H233344   2.141   5.780  16.854 -0.4108  0.7976 -0.9603
 3977TIP3   OH233345   2.896   2.472   3.833  0.1932  0.1111 -0.8318
 3977TIP3    H133346   2.810   2.430   3.833 -0.1883  0.7891  1.1755
 3977TIP3    H233347   2.947   2.422   3.897  0.0766  1.9190  0.7701
 3978TIP3   OH233348   1.972   5.121  12.964 -0.0848 -0.1585  0.1580
 3978TIP3    H133349   1.925   5.061  12.906  0.1666  0.6596 -0.9249
 3978TIP3    H233350   1.968   5.079  13.050 -1.5801 -0.7889 -0.1844
 3979TIP3   OH233351   0.623   3.109   2.043 -0.2434 -0.4788  0.0362
 3979TIP3    H133352   0.668   3.189   2.014 -1.0939  0.3084  0.8017
 3979TIP3    H233353   0.537   3.140   2.073 -0.8269 -1.7761 -0.2380
 3980TIP3   OH233354   5.519   4.228   1.599 -0.4688  0.4181 -0.2026
 3980TIP3    H133355   5.570   4.286   1.542 -0.8421 -0.0634 -1.0531
 3980TIP3    H233356   5.529   4.265   1.686  1.1718  0.4335 -0.3712
 3981TIP3   OH233357   5.842   3.358   1.826  0.5339  0.5193  0.3419
 3981TIP3    H133358   5.890   3.429   1.782 -0.7011  1.2116  0.0817
 3981TIP3    H233359   5.763   3.400   1.860 -0.3096 -0.7652  0.0321
 3982TIP3   OH233360   4.914   3.902  16.281 -0.1778  0.3063  0.1478
 3982TIP3    H133361   4.972   3.977  16.289  0.3203 -0.1566  0.9702
 3982TIP3    H233362   4.883   3.885  16.370 -2.5069  1.2497 -0.4042
 3983TIP3   OH233363   3.976   3.559  14.337  0.0495  0.0484 -1.0322
 3983TIP3    H133364   3.923   3.517  14.405  0.6604 -0.1498 -0.6721
 3983TIP3    H233365   4.001   3.643  14.374 -0.4170  0.3638 -1.4017
 3984TIP3   OH233366   2.355   6.453  14.041  0.3967  0.1460  0.6309
 3984TIP3    H133367   2.326   6.403  13.964 -0.9482  1.5017  0.2052
 3984TIP3    H233368   2.278   6.456  14.098  1.2775 -0.5409  1.9005
 3985TIP3   OH233369   4.616   4.612  13.311  0.1018 -0.5253 -0.0358
 3985TIP3    H133370   4.568   4.612  13.228  0.2551  1.9634 -0.1972
 3985TIP3    H233371   4.680   4.682  13.302  1.4393 -1.4814  1.4949
 3986TIP3   OH233372   6.305   2.031   4.698 -0.7517  0.0265  0.0015
 3986TIP3    H133373   6.302   1.953   4.643  1.0445 -0.9889  1.2312
 3986TIP3    H233374   6.215   2.063   4.699 -1.3331 -1.4234 -1.3675
 3987TIP3   OH233375   5.995   6.293   5.355  0.0785  0.0581  0.6531
 3987TIP3    H133376   5.961   6.285   5.265  1.3554  0.8715  0.0773
 3987TIP3    H233377   5.918   6.277   5.410 -1.2458  1.6507 -0.5966
 3988TIP3   OH233378   3.010   0.707   4.618  0.4663  0.1641 -0.0994
 3988TIP3    H133379   2.915   0.695   4.611  0.3260  0.3853  1.2255
 3988TIP3    H233380   3.020   0.787   4.668  1.3420 -0.3166  0.5193
 3989TIP3   OH233381   0.978   6.256   5.237 -0.0698  0.3055 -0.4167
 3989TIP3    H133382   0.917   6.330   5.243 -0.4363 -0.0472  0.4070
 3989TIP3    H233383   1.028   6.260   5.319  0.8095  0.3992 -0.9419
 3990TIP3   OH233384   1.003   1.856   5.825 -0.1805  0.0566  0.2891
 3990TIP3    H133385   0.915   1.831   5.800  0.0266 -1.3421  0.8272
 3990TIP3    H233386   0.996   1.946   5.855 -1.8622 -0.6545  2.2873
 3991TIP3   OH233387   0.965   5.232  12.520 -0.1260  0.1160 -0.4385
 3991TIP3    H133388   0.908   5.309  12.522  0.2648  0.4078  1.1270
 3991TIP3    H233389   0.919   5.167  12.574  1.0343  0.4067  0.9760
 3992TIP3   OH233390   4.530   5.378   2.199 -0.1351 -0.3233  0.1100
 3992TIP3    H133391   4.535   5.406   2.108  0.4442 -0.5864  0.0582
 3992TIP3    H233392   4.528   5.459   2.249 -0.5464 -0.1784 -0.1382
 3993TIP3   OH233393   0.659   5.001  14.755  0.2046 -0.0256  0.2133
 3993TIP3    H133394   0.570   5.008  14.721 -0.0928  1.0188  1.1560
 3993TIP3    H233395   0.678   4.907  14.755 -1.7473 -0.4898  2.1146
 3994TIP3   OH233396   1.693   1.107   4.384  0.3799  0.4212  0.0179
 3994TIP3    H133397   1.731   1.036   4.435  0.1315 -1.1368 -1.8672
 3994TIP3    H233398   1.635   1.153   4.445  0.3916 -1.1097  1.2275
 3995TIP3   OH233399   2.674   5.479   2.551 -0.0250 -0.2949  0.5527
 3995TIP3    H133400   2.678   5.389   2.581  0.5747 -0.0923  1.1048
 3995TIP3    H233401   2.724   5.528   2.616  0.1517  0.3510 -0.0612
 3996TIP3   OH233402   5.925   3.630   2.902 -0.3580  0.2027  0.0685
 3996TIP3    H133403   6.003   3.580   2.925  0.1775  0.0640 -1.8521
 3996TIP3    H233404   5.925   3.632   2.806 -0.2801  3.9101 -0.0266
 3997TIP3   OH233405   3.075   2.383  12.083 -0.0480  0.0906  0.1909
 3997TIP3    H133406   3.019   2.411  12.011  0.9317  3.0957  0.4959
 3997TIP3    H233407   3.123   2.461  12.110  0.4290 -1.1263  3.4313
 3998TIP3   OH233408   6.216   5.102  10.542  0.1020  0.5028  0.1693
 3998TIP3    H133409   6.202   5.152  10.622  0.0353 -0.3313  0.6859
 3998TIP3    H233410   6.277   5.155  10.491 -1.3835  2.0217 -0.1377
 3999TIP3   OH233411   3.648   2.358  11.001  0.7751 -0.0406  0.3053
 3999TIP3    H133412   3.653   2.339  10.908 -1.4372  0.9417 -0.0688
 3999TIP3    H233413   3.670   2.276  11.044  0.7740 -0.7963 -1.0967
 4000TIP3   OH233414   0.095   2.059  13.186 -0.0104 -0.1025 -0.4464
 4000TIP3    H133415   0.049   2.104  13.258  0.1538  0.0208 -0.4171
 4000TIP3    H233416   0.160   2.005  13.230  0.7432  0.7111 -0.5371
 4001TIP3   OH233417   2.626   3.466  12.873 -0.3030 -0.0506 -0.0212
 4001TIP3    H133418   2.541   3.423  12.858 -0.5652  0.2816  0.4914
 4001TIP3    H233419   2.641   3.516  12.793 -0.6186 -0.0666 -0.0958
 4002TIP3   OH233420   5.428   5.680   2.742 -0.3751  0.9630  0.3360
 4002TIP3    H133421   5.339   5.668   2.710 -0.0434  0.0057 -0.2978
 4002TIP3    H233422   5.441   5.774   2.745 -1.6148  1.1312  1.0445
 4003TIP3   OH233423   4.971   6.728   4.512  0.6895  0.2457  0.2361
 4003TIP3    H133424   5.028   6.744   4.587  0.3154 -0.3278  0.6467
 4003TIP3    H233425   4.900   6.792   4.522 -0.5088 -1.2318  1.5711
 4004TIP3   OH233426   5.280   3.502  15.655  0.6945  0.2269  0.1628
 4004TIP3    H133427   5.277   3.597  15.638  0.9662  0.5587  1.8545
 4004TIP3    H233428   5.188   3.476  15.664  0.6702  0.6380  1.2205
 4005TIP3   OH233429   3.042   6.736  16.080 -0.2383 -0.3069 -0.6306
 4005TIP3    H133430   3.033   6.808  16.142  0.9726  0.1478 -0.9533
 4005TIP3    H233431   3.102   6.675  16.122  0.2799 -0.1814 -1.1616
 4006TIP3   OH233432   5.268   5.866   2.912 -0.1432 -0.2388 -0.5965
 4006TIP3    H133433   5.317   5.796   2.954 -3.6686 -2.5802  0.1288
 4006TIP3    H233434   5.249   5.928   2.982 -0.8314 -0.9650 -0.1249
 4007TIP3   OH233435   5.374   6.676  17.014 -0.8417  0.2216  0.0089
 4007TIP3    H133436   5.459   6.655  16.976 -1.0012 -0.5805  0.0820
 4007TIP3    H233437   5.360   6.768  16.992  0.1101  0.4054  0.1190
 4008TIP3   OH233438   1.941   3.152   2.941  0.2047 -0.3606 -0.6858
 4008TIP3    H133439   2.029   3.191   2.942  0.4494 -0.9028  0.2680
 4008TIP3    H233440   1.905   3.174   3.026 -1.1612  1.0681 -1.5752
 4009TIP3   OH233441   0.495   1.476   0.935  0.2864 -0.2998  0.2442
 4009TIP3    H133442   0.531   1.503   1.020 -0.2511 -3.1047  1.4879
 4009TIP3    H233443   0.402   1.466   0.951 -0.3461  1.7804 -1.5316
 4010TIP3   OH233444   0.785   6.174   6.248  0.8333 -0.1931  0.1499
 4010TIP3    H133445   0.709   6.231   6.253  1.7733  1.0746  0.5196
 4010TIP3    H233446   0.858   6.233   6.226  1.6080 -1.4510 -0.8168
 4011TIP3   OH233447   1.361   0.067   4.363  0.0130  0.2982  0.0171
 4011TIP3    H133448   1.412   0.111   4.430 -0.9742 -0.2896  1.1947
 4011TIP3    H233449   1.416  -0.006   4.334 -0.0768 -0.2302  1.1474
 4012TIP3   OH233450   2.292   3.429  12.732 -0.1256  0.6447  0.0362
 4012TIP3    H133451   2.288   3.395  12.821  0.8486  1.5363  0.4433
 4012TIP3    H233452   2.210   3.400  12.692 -0.2780 -0.3455  1.0011
 4013TIP3   OH233453   2.191   6.693  14.428 -0.2388 -0.1553  0.3218
 4013TIP3    H133454   2.269   6.678  14.376  0.4343  1.5384  0.7766
 4013TIP3    H233455   2.154   6.605  14.443  2.1605 -1.1224  1.0149
 4014TIP3   OH233456   5.912   4.257   4.470 -0.3031 -0.4414 -0.1515
 4014TIP3    H133457   5.924   4.265   4.565  0.7673  0.0519 -0.3147
 4014TIP3    H233458   5.895   4.346   4.441  2.4607 -0.0175 -0.7900
 4015TIP3   OH233459   2.588   6.670   1.483 -0.1805  0.1513  0.0611
 4015TIP3    H133460   2.588   6.575   1.490 -1.5189  0.2385  1.8957
 4015TIP3    H233461   2.507   6.691   1.437 -0.4786  0.4520  0.7210
 4016TIP3   OH233462   4.723   2.453   1.157 -0.3766 -0.6130 -0.9606
 4016TIP3    H133463   4.782   2.388   1.195 -0.6382 -0.2239  0.1501
 4016TIP3    H233464   4.636   2.420   1.177 -0.5097 -0.0709 -0.6364
 4017TIP3   OH233465   0.162   2.955  12.704  0.1750  0.1153  0.0807
 4017TIP3    H133466   0.106   3.033  12.699  0.9023  0.5809 -1.4237
 4017TIP3    H233467   0.215   2.958  12.624  0.8016 -1.4955  0.3943
 4018TIP3   OH233468   5.830   0.367  12.157 -0.1501  0.1166 -0.8361
 4018TIP3    H133469   5.837   0.447  12.106 -3.0801  0.3098 -1.0679
 4018TIP3    H233470   5.767   0.313  12.109  1.5320 -2.2555 -0.5487
 4019TIP3   OH233471   4.070   0.135  15.398 -0.3276  0.2695 -0.1001
 4019TIP3    H133472   4.068   0.047  15.360 -0.9063  0.4873 -0.5752
 4019TIP3    H233473   4.083   0.120  15.492  0.2169 -0.2987 -0.2629
 4020TIP3   OH233474   1.174   4.367   0.533 -0.1506 -0.6369 -0.5927
 4020TIP3    H133475   1.266   4.392   0.532 -0.5928  1.1474 -1.0897
 4020TIP3    H233476   1.166   4.306   0.606  1.6341 -1.7897 -1.2974
 4021TIP3   OH233477   0.521   4.550  16.843  0.3785 -0.2015  0.3573
 4021TIP3    H133478   0.438   4.554  16.795  0.7760  0.7176 -0.2819
 4021TIP3    H233479   0.497   4.568  16.933 -0.1416 -0.1390  0.2122
 4022TIP3   OH233480   0.541   6.368   1.286  0.4054 -0.2198  0.0103
 4022TIP3    H133481   0.495   6.322   1.357 -0.4525  0.8764  0.1955
 4022TIP3    H233482   0.559   6.454   1.322 -3.1494  1.6776 -2.1258
 4023TIP3   OH233483   3.406   1.658   5.743 -0.3517 -0.7280 -0.0153
 4023TIP3    H133484   3.343   1.588   5.761 -0.1020 -0.8941  0.2202
 4023TIP3    H233485   3.491   1.614   5.739 -0.2732 -0.5393 -0.5614
 4024TIP3   OH233486   4.906   4.507   5.521  0.5214  0.3278  0.1480
 4024TIP3    H133487   4.813   4.490   5.535  0.4981  1.6513  1.9223
 4024TIP3    H233488   4.916   4.510   5.426 -1.3695  0.8298 -0.0688
 4025TIP3   OH233489   5.521   1.801   6.026 -0.2764  0.6016 -0.2167
 4025TIP3    H133490   5.543   1.882   6.072  0.9326  0.7033 -0.9385
 4025TIP3    H233491   5.605   1.767   5.994 -0.4982 -1.8246  1.4795
 4026TIP3   OH233492   3.129   3.329  14.704  0.2817 -0.5275  0.2118
 4026TIP3    H133493   3.058   3.376  14.747  1.2305  0.4915  0.7080
 4026TIP3    H233494   3.093   3.242  14.686 -2.0012  0.7456 -1.9848
 4027TIP3   OH233495   0.307   0.146   5.486 -0.0682  0.5368  0.0383
 4027TIP3    H133496   0.360   0.205   5.540 -0.7005 -0.1465  1.4644
 4027TIP3    H233497   0.329   0.170   5.396  0.9449  1.7979  0.5818
 4028TIP3   OH233498   6.031   5.681  15.597  0.3637  0.2895  0.1060
 4028TIP3    H133499   6.073   5.758  15.558 -1.9649  2.4432  1.5820
 4028TIP3    H233500   6.095   5.650  15.661  0.5855  2.2414  0.8974
 4029TIP3   OH233501   6.206   1.287   1.935  0.1787 -0.0281  0.5509
 4029TIP3    H133502   6.286   1.236   1.946  0.7026 -0.1412 -2.7665
 4029TIP3    H233503   6.225   1.371   1.976  1.1154 -0.8144  1.7810
 4030TIP3   OH233504   0.497   4.081  13.675  0.0727  0.8472  0.1371
 4030TIP3    H133505   0.522   3.990  13.659  1.8017  0.9918  1.7163
 4030TIP3    H233506   0.579   4.130  13.673 -0.7909  2.3548 -0.4002
 4031TIP3   OH233507   0.118   5.296  13.444 -0.1030 -0.2840  0.0438
 4031TIP3    H133508   0.162   5.251  13.373 -0.9223  1.7849 -1.8890
 4031TIP3    H233509   0.035   5.327  13.406 -0.4439  1.1433  1.7833
 4032TIP3   OH233510   2.949   3.804  11.511 -0.2961  0.4110  0.0945
 4032TIP3    H133511   2.867   3.755  11.514 -1.5121  2.1330 -1.9127
 4032TIP3    H233512   2.997   3.766  11.437 -0.1450  0.6441  0.0719
 4033TIP3   OH233513   3.586   4.716   1.574 -0.1389  1.0306 -0.2812
 4033TIP3    H133514   3.516   4.677   1.522 -0.3230  0.2127  0.5532
 4033TIP3    H233515   3.665   4.700   1.522 -0.2292 -0.3555 -0.0441
 4034TIP3   OH233516   3.321   1.813  12.092  0.0890  0.4440 -0.1323
 4034TIP3    H133517   3.343   1.816  11.999 -0.0804  0.5823 -0.1703
 4034TIP3    H233518   3.227   1.792  12.093  0.5320 -1.8138  0.0555
 4035TIP3   OH233519   4.843   2.247   0.678 -0.4677 -0.1215 -0.5168
 4035TIP3    H133520   4.897   2.323   0.698 -0.4249 -0.1775 -0.4202
 4035TIP3    H233521   4.754   2.281   0.675 -0.3895  0.0421 -1.0429
 4036TIP3   OH233522   2.756   5.819   2.106 -0.3881 -0.2879 -0.1620
 4036TIP3    H133523   2.811   5.841   2.031 -1.5061  1.4943 -0.5225
 4036TIP3    H233524   2.812   5.768   2.164 -0.0291 -3.5099 -3.0465
 4037TIP3   OH233525   2.314   5.465  11.216 -0.2301 -0.7238  0.2900
 4037TIP3    H133526   2.322   5.441  11.124  0.7304  1.1357 -0.1431
 4037TIP3    H233527   2.301   5.559  11.216 -1.7267 -0.8610  2.0242
 4038TIP3   OH233528   0.175   2.517  14.716 -0.2492 -0.2338  0.4374
 4038TIP3    H133529   0.176   2.594  14.660 -0.3462  0.3603  1.2297
 4038TIP3    H233530   0.131   2.450  14.664 -1.9277  0.8085  0.4173
 4039TIP3   OH233531   4.617   2.798  10.662 -0.5635  0.1296  0.6977
 4039TIP3    H133532   4.524   2.799  10.682 -0.9452  1.9821 -0.8659
 4039TIP3    H233533   4.659   2.780  10.746 -2.3152 -3.0538  1.0389
 4040TIP3   OH233534   4.891   5.242  14.303  0.3782 -0.4147  0.1471
 4040TIP3    H133535   4.964   5.303  14.292  0.5085 -0.3532  1.2386
 4040TIP3    H233536   4.840   5.278  14.375 -0.2369 -0.9358 -0.0208
 4041TIP3   OH233537   4.922   4.143  15.890 -0.2027  0.3785  0.2502
 4041TIP3    H133538   4.986   4.137  15.961  0.0045 -1.1202 -0.0215
 4041TIP3    H233539   4.889   4.232  15.895  0.6316  0.6493  1.5088
 4042TIP3   OH233540   1.682   0.986  17.172 -0.0752 -0.4023 -0.2860
 4042TIP3    H133541   1.753   0.971  17.109  0.2472 -1.6448  0.3378
 4042TIP3    H233542   1.701   0.925  17.244 -1.9666 -1.0313 -0.2730
 4043TIP3   OH233543   3.698   5.774   5.685 -0.0944 -0.8286 -0.0067
 4043TIP3    H133544   3.739   5.772   5.772 -1.6180 -0.8493  0.7363
 4043TIP3    H233545   3.650   5.857   5.683 -1.9399 -1.8314  0.0974
 4044TIP3   OH233546   3.624   1.487  11.770  1.2001  0.1719  0.5019
 4044TIP3    H133547   3.601   1.568  11.724 -1.5494 -0.9409 -0.2931
 4044TIP3    H233548   3.660   1.430  11.702 -2.1283 -1.1837 -0.3535
 4045TIP3   OH233549   2.535   1.121  13.976 -0.0566  0.6413 -0.6280
 4045TIP3    H133550   2.500   1.188  13.917  0.3816  1.4927  0.0570
 4045TIP3    H233551   2.509   1.151  14.063 -2.7311 -1.7730 -0.4544
 4046TIP3   OH233552   4.754   6.264  13.859 -0.4141  0.3047  0.6428
 4046TIP3    H133553   4.792   6.194  13.805 -1.2424  0.0450  0.3824
 4046TIP3    H233554   4.769   6.344  13.809 -1.0817  0.0789  0.0620
 4047TIP3   OH233555   3.530   4.209  12.024 -0.3203  0.0613  0.1716
 4047TIP3    H133556   3.559   4.239  12.111 -1.6672  0.3514  0.5410
 4047TIP3    H233557   3.481   4.282  11.988  0.8167  0.2049 -1.1606
 4048TIP3   OH233558   1.659   3.834  16.806 -0.6513  0.0919  0.2084
 4048TIP3    H133559   1.753   3.821  16.796 -0.7968 -1.3050  0.4073
 4048TIP3    H233560   1.625   3.837  16.717 -0.5103 -0.1821  0.1458
 4049TIP3   OH233561   4.778   1.533   1.081  0.3160  0.4557  0.0914
 4049TIP3    H133562   4.700   1.575   1.119 -0.6711 -1.2646  0.0675
 4049TIP3    H233563   4.793   1.457   1.136  1.3237  0.1594 -0.5737
 4050TIP3   OH233564   0.987   3.912   6.661  0.2277  0.0117 -0.2116
 4050TIP3    H133565   0.968   3.837   6.604  2.1760 -0.3656 -0.4171
 4050TIP3    H233566   0.993   3.986   6.601 -0.2544  0.0890 -0.1730
 4051TIP3   OH233567   5.183   0.943  16.070  0.4472  0.0642 -0.3000
 4051TIP3    H133568   5.139   0.876  16.018  0.4780  0.4182 -0.7890
 4051TIP3    H233569   5.152   0.929  16.159  0.9730 -1.0254 -0.2823
 4052TIP3   OH233570   4.193   5.517   6.187  0.2338 -0.0861  0.1703
 4052TIP3    H133571   4.205   5.441   6.130  0.6874 -0.0320  0.1886
 4052TIP3    H233572   4.167   5.587   6.127  2.4483  0.4368 -0.2693
 4053TIP3   OH233573   6.590   0.438   0.152 -0.3708  0.1223 -0.4158
 4053TIP3    H133574   6.505   0.426   0.110 -0.1081 -2.4613 -0.3610
 4053TIP3    H233575   6.569   0.473   0.239 -1.3643 -0.3086 -0.4720
 4054TIP3   OH233576   6.508   5.462   5.245 -0.8949 -0.5291 -0.1533
 4054TIP3    H133577   6.574   5.484   5.179 -1.5599 -1.7186 -1.2580
 4054TIP3    H233578   6.526   5.371   5.268 -0.8699 -0.2244  1.1022
 4055TIP3   OH233579   4.452   1.204  11.221  0.1229  0.2211  0.2435
 4055TIP3    H133580   4.391   1.199  11.148  1.2584 -1.6521 -0.6440
 4055TIP3    H233581   4.435   1.290  11.260 -1.5295  0.6592 -1.2913
 4056TIP3   OH233582   0.178   2.045  13.542 -0.3781  0.3117  0.4501
 4056TIP3    H133583   0.247   2.081  13.597 -0.9730 -1.0300  2.1441
 4056TIP3    H233584   0.115   2.116  13.532  0.3946  0.9963  0.3173
 4057TIP3   OH233585   6.089   0.755  15.130 -0.1438 -0.2556 -1.0737
 4057TIP3    H133586   6.080   0.743  15.035 -2.4500  0.0123 -0.9438
 4057TIP3    H233587   6.022   0.699  15.168  1.6348 -1.4300  0.5360
 4058TIP3   OH233588   0.007   1.756   4.285  0.2274 -0.1120 -0.1242
 4058TIP3    H133589  -0.002   1.851   4.294  0.5840 -0.2278  1.8954
 4058TIP3    H233590  -0.080   1.721   4.307  0.7809 -0.3507  1.8477
 4059TIP3   OH233591   1.856   1.209   2.906  0.1184 -0.0431  0.2165
 4059TIP3    H133592   1.902   1.255   2.977 -1.2532 -0.1179  1.1716
 4059TIP3    H233593   1.772   1.254   2.898 -0.6761 -1.4714  0.1944
 4060TIP3   OH233594   2.727   5.899   2.627 -0.4523  0.1647 -0.0244
 4060TIP3    H133595   2.646   5.949   2.642  0.1598  1.4748 -0.9341
 4060TIP3    H233596   2.797   5.961   2.647  0.3307 -0.3122 -1.2039
 4061TIP3   OH233597   3.640   5.148   5.310  0.4449  0.3750  0.6686
 4061TIP3    H133598   3.603   5.178   5.227 -0.1047  0.1027  0.8128
 4061TIP3    H233599   3.566   5.110   5.358  1.3387 -2.5429 -0.0912
 4062TIP3   OH233600   1.821   1.938   4.101 -0.2665 -0.0125 -0.1108
 4062TIP3    H133601   1.888   2.006   4.106 -0.2310  0.0991 -1.6099
 4062TIP3    H233602   1.749   1.971   4.155  0.8942 -0.1953  1.6512
 4063TIP3   OH233603   4.622   3.729  14.413  0.2682 -0.2414  0.2276
 4063TIP3    H133604   4.606   3.656  14.474 -0.3346 -0.5997 -0.3485
 4063TIP3    H233605   4.656   3.687  14.334 -0.1851  0.0897 -0.1458
 4064TIP3   OH233606   1.976   6.067   4.368 -0.1396 -0.3714 -1.0002
 4064TIP3    H133607   1.930   5.983   4.369 -0.0193 -0.4671  1.3968
 4064TIP3    H233608   1.916   6.128   4.410  0.7141  0.1806 -0.5528
 4065TIP3   OH233609   1.631   1.775  12.794 -0.5124 -0.4345 -0.2791
 4065TIP3    H133610   1.606   1.855  12.840 -2.2716 -1.4199  0.6111
 4065TIP3    H233611   1.724   1.764  12.813 -0.8850 -0.1071  2.0282
 4066TIP3   OH233612   1.858   2.778  12.979  0.1303 -0.6593 -0.0017
 4066TIP3    H133613   1.876   2.721  12.904 -1.5753 -1.9811  0.5056
 4066TIP3    H233614   1.848   2.717  13.053 -0.8192  0.3608  0.7455
 4067TIP3   OH233615   2.567   1.558   1.080 -0.2060  0.0043 -0.3338
 4067TIP3    H133616   2.515   1.565   1.000 -1.2375 -0.7282  0.2460
 4067TIP3    H233617   2.559   1.466   1.106 -1.7044  0.6472  1.7675
 4068TIP3   OH233618   2.657   2.592   0.457 -0.3770  0.3356  0.0356
 4068TIP3    H133619   2.596   2.623   0.390 -2.2556 -3.6243 -0.4024
 4068TIP3    H233620   2.724   2.543   0.408  0.3097  0.4463  0.8391
 4069TIP3   OH233621   0.687   5.235   3.342  0.2495  0.6382 -0.1014
 4069TIP3    H133622   0.629   5.207   3.272 -0.6847  0.5259  0.7000
 4069TIP3    H233623   0.697   5.158   3.398 -0.6143  1.2659  0.9523
 4070TIP3   OH233624   0.162   6.703   5.342  0.2149 -0.7386 -0.2487
 4070TIP3    H133625   0.226   6.747   5.398  0.1359  0.0650 -0.7658
 4070TIP3    H233626   0.114   6.775   5.301  0.1387 -1.3099 -1.1844
 4071TIP3   OH233627   3.466   4.496   3.294  0.6266  0.2439 -0.0389
 4071TIP3    H133628   3.482   4.556   3.368  2.3322  2.0155 -1.7134
 4071TIP3    H233629   3.450   4.554   3.220 -0.6617 -1.4794 -1.1845
 4072TIP3   OH233630   5.177   5.171   5.020 -0.5640 -0.0298 -0.0020
 4072TIP3    H133631   5.154   5.263   5.035 -2.4093 -0.8531  3.3577
 4072TIP3    H233632   5.094   5.129   4.999 -0.2072 -1.3037  1.0051
 4073TIP3   OH233633   6.170   4.910   3.306  0.2804 -0.0695 -0.2554
 4073TIP3    H133634   6.141   4.943   3.221  2.5916 -0.6791 -1.3644
 4073TIP3    H233635   6.188   4.817   3.291  0.1007 -0.3476  1.0945
 4074TIP3   OH233636   6.600   4.253   4.153 -0.0239 -0.1743 -0.0016
 4074TIP3    H133637   6.532   4.212   4.207  0.7424 -0.1373  1.0156
 4074TIP3    H233638   6.602   4.344   4.183  0.3772 -0.1424 -0.1197
 4075TIP3   OH233639   3.026   2.291   1.273  0.0851 -0.0561  0.3291
 4075TIP3    H133640   3.066   2.213   1.237  0.9799  0.3968  0.3283
 4075TIP3    H233641   3.092   2.329   1.331 -0.1761  0.9088  0.0279
 4076TIP3   OH233642   6.770   1.304   4.448  0.6814 -0.6801 -0.0926
 4076TIP3    H133643   6.676   1.316   4.459  0.9080  0.0526  1.3003
 4076TIP3    H233644   6.794   1.240   4.515  1.3306  0.0069  0.3556
 4077TIP3   OH233645   0.546   0.911  13.656  0.2537 -0.0775  0.1787
 4077TIP3    H133646   0.641   0.923  13.660  0.3815 -1.3155  1.7766
 4077TIP3    H233647   0.535   0.818  13.635 -0.5920 -0.1251  0.7924
 4078TIP3   OH233648   4.588   3.944  12.773 -0.5922  0.0592  0.0600
 4078TIP3    H133649   4.680   3.927  12.794 -0.2434  1.1444 -0.4774
 4078TIP3    H233650   4.581   3.925  12.679 -0.6473  0.9578 -0.1275
 4079TIP3   OH233651   3.589   5.193  13.423 -0.3640 -0.4483 -0.4939
 4079TIP3    H133652   3.572   5.112  13.374 -0.7154 -0.6684 -0.0206
 4079TIP3    H233653   3.502   5.222  13.453 -0.0602 -0.9710  1.0049
 4080TIP3   OH233654   2.261   4.895  14.096 -0.0422  0.2755  0.1245
 4080TIP3    H133655   2.248   4.930  14.184  0.3668  1.7695 -0.3704
 4080TIP3    H233656   2.293   4.806  14.109 -1.1445  0.0484  1.4546
 4081TIP3   OH233657   6.026   1.608   2.483 -0.6522 -0.1216 -0.3816
 4081TIP3    H133658   5.957   1.584   2.544 -0.0776 -0.3745  0.1762
 4081TIP3    H233659   6.107   1.602   2.534 -0.2799  0.8557 -0.8251
 4082TIP3   OH233660   1.660   5.302   4.922 -0.4454 -0.7624 -0.0380
 4082TIP3    H133661   1.722   5.238   4.956  1.0664  0.6429 -0.0088
 4082TIP3    H233662   1.652   5.368   4.991  1.3635  1.2570 -1.6118
 4083TIP3   OH233663   1.221   4.949  15.255  0.1988 -0.2206  0.2640
 4083TIP3    H133664   1.212   4.954  15.159 -3.3343 -1.8003  0.3669
 4083TIP3    H233665   1.251   4.860  15.271 -1.7505 -0.8517  0.6448
 4084TIP3   OH233666   2.455   0.565   0.012 -0.1885  0.5011  0.4545
 4084TIP3    H133667   2.466   0.513  -0.068  0.7963  0.0470  0.8774
 4084TIP3    H233668   2.544   0.575   0.046 -0.4901  1.5863  0.9363
 4085TIP3   OH233669   6.598   2.114   4.611  0.4028  0.1147 -0.3500
 4085TIP3    H133670   6.510   2.080   4.598 -0.1215 -0.4742  3.4814
 4085TIP3    H233671   6.656   2.044   4.581 -0.4435 -0.1245 -1.4667
 4086TIP3   OH233672   2.596   5.586  14.122 -0.7700  0.2894 -0.1851
 4086TIP3    H133673   2.610   5.544  14.207 -0.9880  0.0981 -0.2432
 4086TIP3    H233674   2.580   5.514  14.061  0.9283  0.3156 -0.7178
 4087TIP3   OH233675   6.030   3.513   1.089  0.0334  0.2855  0.3739
 4087TIP3    H133676   6.070   3.434   1.052  0.6690  1.0616 -0.6764
 4087TIP3    H233677   5.937   3.492   1.096  0.2481 -0.6874  0.4958
 4088TIP3   OH233678   4.592   1.176   0.340  0.8469 -0.4133 -0.0078
 4088TIP3    H133679   4.537   1.245   0.378 -0.7395 -1.0621 -1.0159
 4088TIP3    H233680   4.589   1.105   0.404 -1.7473 -1.4697 -1.1558
 4089TIP3   OH233681   5.622   4.967   1.859 -0.2795  0.5903  0.0996
 4089TIP3    H133682   5.581   5.042   1.817 -0.3575  0.2797 -0.3957
 4089TIP3    H233683   5.572   4.892   1.827 -0.5697  0.3705  1.0375
 4090TIP3   OH233684   0.614   5.033   5.933  0.1050 -0.4255 -0.0455
 4090TIP3    H133685   0.636   4.940   5.939  0.1758 -0.5146 -1.4242
 4090TIP3    H233686   0.599   5.048   5.839  2.3886  1.4779 -0.1693
 4091TIP3   OH233687   5.753   0.014   3.371  0.7994  0.2150  0.1096
 4091TIP3    H133688   5.722  -0.025   3.453 -1.0473 -0.4112 -0.8109
 4091TIP3    H233689   5.674   0.021   3.317  1.8072  1.4402 -1.2991
 4092TIP3   OH233690   5.254   5.385  12.002  0.4428  0.2341 -0.6364
 4092TIP3    H133691   5.278   5.338  12.082  4.2136  1.0903 -1.0443
 4092TIP3    H233692   5.203   5.322  11.952  1.3974 -1.7850  0.7723
 4093TIP3   OH233693   1.855   5.483   0.015 -0.8394  0.0950  0.4582
 4093TIP3    H133694   1.927   5.421   0.028  0.5196  1.8636  1.8508
 4093TIP3    H233695   1.890   5.548  -0.046 -1.3555  0.8154  0.9232
 4094TIP3   OH233696   3.811   1.332  13.521  0.4152 -0.0881 -0.6858
 4094TIP3    H133697   3.807   1.390  13.445  0.6509  0.4212 -0.3163
 4094TIP3    H233698   3.905   1.327  13.542  0.2427  1.0637  0.5292
 4095TIP3   OH233699   2.116   1.271   4.049  0.3365 -0.3888 -0.1487
 4095TIP3    H133700   2.092   1.193   4.100  0.1306  0.3590  0.9373
 4095TIP3    H233701   2.204   1.293   4.079 -0.0362  0.4312  0.3635
 4096TIP3   OH233702   3.555   5.028   2.974  0.3949  0.2038 -0.3822
 4096TIP3    H133703   3.607   5.006   3.052  1.7333  0.8314 -1.0657
 4096TIP3    H233704   3.603   5.100   2.933 -0.9594  0.7106 -1.1338
 4097TIP3   OH233705   2.810   2.929   4.104 -0.0679 -0.4990  0.1378
 4097TIP3    H133706   2.753   3.004   4.120 -0.2762 -0.9118  1.4667
 4097TIP3    H233707   2.799   2.910   4.011 -1.5560 -0.1077  0.2113
 4098TIP3   OH233708   5.440   2.230  16.502 -0.4707 -0.0273 -0.2561
 4098TIP3    H133709   5.355   2.186  16.493 -0.9985  0.9049  0.0674
 4098TIP3    H233710   5.463   2.256  16.413 -0.1574 -0.9272 -0.4495
 4099TIP3   OH233711   4.101   0.213  15.102  0.7611  0.4328 -0.1819
 4099TIP3    H133712   4.037   0.267  15.148  2.7720  2.1742  0.7558
 4099TIP3    H233713   4.146   0.164  15.172 -0.7490 -2.2839 -0.9736
 4100TIP3   OH233714   3.623   1.158   2.962 -0.2558 -0.0147  0.1593
 4100TIP3    H133715   3.608   1.249   2.986 -0.1198 -0.1220  0.6567
 4100TIP3    H233716   3.682   1.124   3.029  0.9677 -0.0427 -0.8935
 4101TIP3   OH233717   4.845   3.937  15.717  0.4992  0.3257 -0.0356
 4101TIP3    H133718   4.926   3.886  15.721  0.2000 -0.1469  3.7879
 4101TIP3    H233719   4.865   4.018  15.764 -1.4887 -0.3691  2.2187
 4102TIP3   OH233720   3.691   5.238   2.828  0.3815  0.0239  0.2903
 4102TIP3    H133721   3.740   5.259   2.749  0.9427  0.7585  0.8115
 4102TIP3    H233722   3.687   5.322   2.875  0.8105 -0.5870  1.4412
 4103TIP3   OH233723   1.497   6.413   1.589 -0.8148  0.3956  0.6485
 4103TIP3    H133724   1.557   6.469   1.540  1.6907 -0.5337  2.4490
 4103TIP3    H233725   1.426   6.471   1.615 -0.6078  1.6318 -1.2850
 4104TIP3   OH233726   6.361   5.844  12.548  0.2678 -0.2418 -0.1509
 4104TIP3    H133727   6.399   5.757  12.559  0.5404  0.1160  2.4377
 4104TIP3    H233728   6.268   5.833  12.568 -0.2354 -0.3672 -2.3888
 4105TIP3   OH233729   2.884   4.541  13.952 -0.2868 -0.6163  0.0670
 4105TIP3    H133730   2.845   4.593  13.882  0.4542 -0.2100 -0.0542
 4105TIP3    H233731   2.836   4.459  13.951 -0.4819 -0.4964 -0.7169
 4106TIP3   OH233732   5.391   2.065   1.629 -0.1880 -0.6323  0.1193
 4106TIP3    H133733   5.391   1.995   1.695  0.9743  0.4631  1.3695
 4106TIP3    H233734   5.338   2.134   1.669 -0.5005 -0.4165 -0.6650
 4107TIP3   OH233735   4.289   5.065   0.036 -0.0929 -0.8186  0.1336
 4107TIP3    H133736   4.372   5.057   0.083  1.1082 -1.0421 -1.9127
 4107TIP3    H233737   4.283   4.985  -0.017 -0.5213  0.1914 -1.3994
 4108TIP3   OH233738   3.146   4.508  14.529 -0.2619  0.5958  0.4536
 4108TIP3    H133739   3.157   4.579  14.466  1.5981 -0.1127 -0.0708
 4108TIP3    H233740   3.231   4.500  14.572 -0.2398 -1.6333  0.1241
 4109TIP3   OH233741   1.139   3.570   2.636 -0.0692 -0.6407  0.0351
 4109TIP3    H133742   1.233   3.579   2.654  0.0877  0.7089 -1.2404
 4109TIP3    H233743   1.109   3.660   2.622 -1.3865 -1.1216 -0.3825
 4110TIP3   OH233744   4.089   5.961  13.528  0.2209 -0.0712 -0.0843
 4110TIP3    H133745   4.043   5.885  13.490  0.3904 -0.0530 -0.3260
 4110TIP3    H233746   4.024   6.002  13.585 -1.7814  2.7426 -3.9467
 4111TIP3   OH233747   4.783   1.134  12.093  0.2909 -0.2016  0.7398
 4111TIP3    H133748   4.855   1.144  12.031  0.8879 -0.2590  1.4228
 4111TIP3    H233749   4.792   1.045  12.127 -0.3345 -0.3472  0.5546
 4112TIP3   OH233750   0.034   0.471  16.248 -0.1562 -0.0968  0.2964
 4112TIP3    H133751   0.018   0.427  16.331 -3.6831 -2.9412 -1.6119
 4112TIP3    H233752   0.085   0.409  16.196  0.7806  1.0512 -0.2300
 4113TIP3   OH233753   2.868   5.463  13.990 -0.1325  0.0651  0.5505
 4113TIP3    H133754   2.880   5.440  14.082  1.3336 -0.0445  0.3536
 4113TIP3    H233755   2.874   5.379  13.943 -1.0951  0.0896  0.3532
 4114TIP3   OH233756   5.313   1.455  10.415 -0.1592  0.0691  0.4906
 4114TIP3    H133757   5.263   1.536  10.410 -1.4976 -0.4924  2.9179
 4114TIP3    H233758   5.251   1.387  10.390  0.4179 -0.3611  0.1992
 4115TIP3   OH233759   5.697   1.093  14.638 -0.4672 -0.1887  0.2637
 4115TIP3    H133760   5.702   1.188  14.652  2.9506 -0.2675  0.4757
 4115TIP3    H233761   5.691   1.084  14.543  1.6306  0.3284  0.0203
 4116TIP3   OH233762   0.702   2.907  13.614  0.0745 -0.0199  0.2814
 4116TIP3    H133763   0.616   2.928  13.579 -1.4535 -2.3522  2.3379
 4116TIP3    H233764   0.718   2.974  13.681  0.3428  0.9715 -0.7419
 4117TIP3   OH233765   0.000   3.983  16.998  0.1571  0.1147 -0.0815
 4117TIP3    H133766  -0.079   3.929  17.000  0.2958 -0.0757  0.4409
 4117TIP3    H233767   0.059   3.942  17.062  0.7033  0.2172 -0.5086
 4118TIP3   OH233768   3.921   1.453   6.138  0.2081  1.0036  0.3947
 4118TIP3    H133769   3.992   1.482   6.194  1.0216  0.9221 -0.5646
 4118TIP3    H233770   3.848   1.437   6.198  1.4947 -0.5697  1.6521
 4119TIP3   OH233771   2.694   4.787  15.270  0.1242 -0.2837 -1.0638
 4119TIP3    H133772   2.669   4.703  15.233 -0.3467 -0.6972  0.1438
 4119TIP3    H233773   2.765   4.818  15.213  0.3957 -1.5553 -1.4487
 4120TIP3   OH233774   1.679   5.053  11.539 -0.3024 -0.3250  0.2278
 4120TIP3    H133775   1.590   5.062  11.573  0.2652  0.0319  1.6696
 4120TIP3    H233776   1.735   5.059  11.616  0.9574 -1.0311 -0.6005
 4121TIP3   OH233777   3.045   6.087  12.662  0.2653  0.4159 -0.3510
 4121TIP3    H133778   3.086   6.007  12.695  0.0008  0.5442  0.3042
 4121TIP3    H233779   2.980   6.056  12.599  0.5561  0.1503 -0.5286
 4122TIP3   OH233780   0.856   2.211   6.586  0.8830  0.8703  0.4355
 4122TIP3    H133781   0.794   2.244   6.651 -0.8477  0.7532 -1.1067
 4122TIP3    H233782   0.903   2.289   6.555  0.3230  1.1914  0.3971
 4123TIP3   OH233783   0.390   0.853   4.819  0.2445 -0.9698  0.3206
 4123TIP3    H133784   0.352   0.836   4.905  0.1248  1.1474  0.7532
 4123TIP3    H233785   0.454   0.923   4.834 -1.6012  1.3445 -1.6000
 4124TIP3   OH233786   5.942   1.236  13.824  0.3205 -0.5746 -0.9606
 4124TIP3    H133787   6.001   1.188  13.883  0.0822 -0.1925 -0.4056
 4124TIP3    H233788   5.908   1.169  13.765  0.6696 -0.9401 -0.7564
 4125TIP3   OH233789   3.445   0.708   4.551  0.2325  0.6854  0.1860
 4125TIP3    H133790   3.459   0.617   4.578 -1.2196  0.0391 -1.0321
 4125TIP3    H233791   3.523   0.730   4.500  0.2671 -0.1764 -0.1629
 4126TIP3   OH233792   4.738   5.530  13.841 -0.5843  0.2294  0.1839
 4126TIP3    H133793   4.803   5.574  13.896 -0.8250  0.6556  0.1357
 4126TIP3    H233794   4.660   5.526  13.896 -1.8978  3.6335 -1.1420
 4127TIP3   OH233795   3.372   5.894   5.390 -0.1042 -0.2373  0.1945
 4127TIP3    H133796   3.412   5.840   5.459 -1.4970 -2.4665 -0.6156
 4127TIP3    H233797   3.292   5.847   5.367  0.2128  0.4794 -2.8192
 4128TIP3   OH233798   6.624   3.550   6.375 -0.2987  0.1347 -0.0065
 4128TIP3    H133799   6.609   3.561   6.469 -0.9750  0.3898 -0.1389
 4128TIP3    H233800   6.609   3.457   6.359  4.5506 -1.0880  0.9593
 4129TIP3   OH233801   5.300   0.014  10.696 -0.8037 -0.1154 -0.3232
 4129TIP3    H133802   5.234   0.050  10.637 -1.8174 -1.0932  0.1659
 4129TIP3    H233803   5.345  -0.053  10.644 -1.3389 -0.6074 -0.1666
 4130TIP3   OH233804   4.310   6.286   2.654  0.8230 -0.2696 -0.2765
 4130TIP3    H133805   4.214   6.291   2.657  0.3448 -4.9798  2.3793
 4130TIP3    H233806   4.329   6.229   2.580  1.6165  0.2757 -0.5100
 4131TIP3   OH233807   3.552   4.968  11.443  0.3049  0.4235  0.3123
 4131TIP3    H133808   3.505   5.049  11.421 -0.0058  0.3466  0.6840
 4131TIP3    H233809   3.626   4.966  11.382 -0.0640  0.6486 -0.1475
 4132TIP3   OH233810   0.915   6.025  13.650  0.1526 -0.0951  0.1449
 4132TIP3    H133811   0.939   6.035  13.743  0.3816  2.3077 -0.1119
 4132TIP3    H233812   0.985   5.971  13.614  0.9252  0.2473  1.0618
 4133TIP3   OH233813   5.332   6.417  15.518  0.4066 -0.1570  0.0204
 4133TIP3    H133814   5.243   6.426  15.552  1.0388 -1.1017  2.0376
 4133TIP3    H233815   5.377   6.496  15.547  0.5861 -0.3110  0.1603
 4134TIP3   OH233816   6.450   1.684   1.280  0.4818  0.3957  0.2791
 4134TIP3    H133817   6.419   1.638   1.357  1.3608 -0.4031  0.1814
 4134TIP3    H233818   6.378   1.741   1.254 -0.8771 -1.3601  0.0575
 4135TIP3   OH233819   0.034   4.627  10.792 -0.2649 -0.0395 -0.5691
 4135TIP3    H133820   0.031   4.557  10.727  0.6897 -0.2390 -0.4084
 4135TIP3    H233821   0.105   4.603  10.851  0.9589  1.6805 -1.2328
 4136TIP3   OH233822   0.613   2.051   6.167 -0.4195 -0.0302 -0.8204
 4136TIP3    H133823   0.627   1.957   6.163  0.2271  0.1053 -3.3579
 4136TIP3    H233824   0.645   2.076   6.254 -0.4274 -2.1011 -0.1676
 4137TIP3   OH233825   1.756   5.459   5.167 -0.2541 -0.5705 -0.1162
 4137TIP3    H133826   1.752   5.537   5.222 -0.6604 -0.7300  0.0858
 4137TIP3    H233827   1.744   5.386   5.227 -1.1786 -0.7257 -0.4592
 4138TIP3   OH233828   3.557   1.437   3.061  0.0001  0.3517 -0.2585
 4138TIP3    H133829   3.490   1.370   3.050  1.1148 -0.9459  0.5317
 4138TIP3    H233830   3.523   1.494   3.131 -0.6799  0.2503 -0.5054
 4139TIP3   OH233831   3.268   3.512  15.384 -0.6165  0.0068  0.3555
 4139TIP3    H133832   3.179   3.548  15.390 -0.1300  1.5595 -1.0285
 4139TIP3    H233833   3.255   3.421  15.358 -1.8111  0.0543  0.7190
 4140TIP3   OH233834   5.225   0.294   3.605  0.6542  0.2733 -0.0859
 4140TIP3    H133835   5.234   0.298   3.700  1.5413  0.2726 -0.1595
 4140TIP3    H233836   5.131   0.295   3.589  0.4623 -0.9114  0.8378
 4141TIP3   OH233837   6.370   1.607  11.248 -0.0583 -0.1173  0.3509
 4141TIP3    H133838   6.307   1.669  11.210 -1.0611 -1.4906 -0.3046
 4141TIP3    H233839   6.455   1.649  11.236 -0.4857  0.2150 -1.9941
 4142TIP3   OH233840   1.039   1.812  16.871 -0.1746  0.0206  0.2660
 4142TIP3    H133841   1.125   1.836  16.835 -0.5367 -0.8307 -1.2596
 4142TIP3    H233842   1.047   1.718  16.888 -1.0137 -0.2014 -0.5224
 4143TIP3   OH233843   5.460   6.534  14.076 -0.0480 -0.0869  0.0195
 4143TIP3    H133844   5.438   6.627  14.083  0.2660 -0.0943  1.3440
 4143TIP3    H233845   5.533   6.521  14.136 -0.0218 -1.1766 -0.2126
 4144TIP3   OH233846   2.083   1.855   3.970  0.1115  0.4118 -0.1167
 4144TIP3    H133847   2.125   1.925   4.020  0.8531 -0.2791  0.2578
 4144TIP3    H233848   1.997   1.845   4.011  0.0618  0.9963 -0.0720
 4145TIP3   OH233849   5.239   1.187   4.778 -0.0263  0.3242 -0.3186
 4145TIP3    H133850   5.233   1.121   4.708  0.3134  0.7410 -0.7397
 4145TIP3    H233851   5.148   1.206   4.799 -0.1318 -0.3055 -0.1685
 4146TIP3   OH233852   6.049   0.221   2.651 -0.5145 -0.0223 -0.3976
 4146TIP3    H133853   6.094   0.305   2.662 -0.0091 -0.2121 -0.9649
 4146TIP3    H233854   5.957   0.240   2.671 -0.4687  0.7437 -0.8814
 4147TIP3   OH233855   4.869   0.417   0.150  0.6544  0.2938  0.5827
 4147TIP3    H133856   4.856   0.500   0.197  2.9044  0.6274  0.7405
 4147TIP3    H233857   4.839   0.436   0.061 -0.8192  0.5884  1.1062
 4148TIP3   OH233858   0.556   1.353  11.727  0.2957  0.7877  0.2870
 4148TIP3    H133859   0.622   1.319  11.787  0.1660  1.3662  0.7765
 4148TIP3    H233860   0.495   1.400  11.784 -1.3079 -0.8672  0.0228
 4149TIP3   OH233861   6.491   0.306  11.997  0.0431  0.1992  0.1940
 4149TIP3    H133862   6.452   0.287  12.082  0.8698  0.8481  0.7238
 4149TIP3    H233863   6.505   0.401  11.996  0.2293  0.1768 -0.5849
 4150TIP3   OH233864   2.137   0.245   2.713  0.0289 -0.2571  0.2378
 4150TIP3    H133865   2.045   0.236   2.688 -0.0023  0.9351 -0.1786
 4150TIP3    H233866   2.154   0.172   2.772 -1.0640 -0.7430 -0.0298
 4151TIP3   OH233867   6.237   4.582  12.311 -0.0564 -0.2052 -0.1867
 4151TIP3    H133868   6.321   4.624  12.329 -0.4501 -0.1003  1.5782
 4151TIP3    H233869   6.176   4.621  12.374 -1.2227 -0.9344 -0.8203
 4152TIP3   OH233870   2.070   5.962  11.817  0.7827 -0.2282 -0.3410
 4152TIP3    H133871   2.112   6.047  11.802 -2.3353  1.3081 -1.1155
 4152TIP3    H233872   2.035   5.969  11.906  1.3220 -1.1280 -0.0429
 4153TIP3   OH233873   3.385   3.236  10.765  0.6473  0.1338 -0.4969
 4153TIP3    H133874   3.304   3.185  10.758  0.8100 -0.4237  1.1755
 4153TIP3    H233875   3.453   3.170  10.781  1.5373  0.5519 -2.3373
 4154TIP3   OH233876   5.758   0.495   0.645  0.4835  0.3303 -0.2850
 4154TIP3    H133877   5.746   0.589   0.632  1.1665  0.1644 -2.5926
 4154TIP3    H233878   5.796   0.464   0.563  1.1600 -1.8271  0.7625
 4155TIP3   OH233879   1.095   5.223  14.977 -0.2779 -0.1949 -0.2365
 4155TIP3    H133880   1.173   5.267  14.943 -0.7265 -0.0274 -1.0765
 4155TIP3    H233881   1.116   5.204  15.069  0.7685 -0.2122 -0.4688
 4156TIP3   OH233882   0.599   5.793  11.799  0.3190  0.0433 -0.0084
 4156TIP3    H133883   0.542   5.749  11.862  0.7377 -0.0655  0.2997
 4156TIP3    H233884   0.542   5.813  11.725  0.1358 -1.1061 -0.2005
 4157TIP3   OH233885   2.560   1.188  12.313  0.0142  0.1018  0.1836
 4157TIP3    H133886   2.590   1.268  12.271 -1.4153 -0.0063 -1.1355
 4157TIP3    H233887   2.633   1.126  12.304 -0.2940  0.0189 -2.4015
 4158TIP3   OH233888   0.115   5.089   3.052  0.0445  0.0757 -0.8606
 4158TIP3    H133889   0.178   5.049   2.993 -0.6583  0.0653 -1.6135
 4158TIP3    H233890   0.167   5.150   3.105  0.3606  1.7961 -3.0258
 4159TIP3   OH233891   4.237   4.699   2.510 -0.3594 -0.8646 -0.2919
 4159TIP3    H133892   4.327   4.728   2.526 -0.4878  0.2294 -1.4139
 4159TIP3    H233893   4.217   4.641   2.583  1.6203 -1.9851 -0.5932
 4160TIP3   OH233894   4.796   4.522   6.441  0.3829 -0.0515  0.1229
 4160TIP3    H133895   4.750   4.581   6.502  1.8645  0.1526  1.1027
 4160TIP3    H233896   4.782   4.435   6.478  1.4884  0.0947  0.9475
 4161TIP3   OH233897   4.156   4.945  14.423 -0.4282  0.0660  0.1941
 4161TIP3    H133898   4.074   4.971  14.382 -0.8853 -0.1459  0.9659
 4161TIP3    H233899   4.223   4.971  14.360 -1.1326 -0.5157 -0.8334
 4162TIP3   OH233900   2.047   2.393  12.619  0.3041 -0.3300 -0.1157
 4162TIP3    H133901   2.096   2.376  12.539  0.6091 -1.7704  0.3436
 4162TIP3    H233902   1.995   2.314  12.632 -1.1344  0.6372  0.1325
 4163TIP3   OH233903   0.181   2.954  12.439  0.1734  0.7605 -0.2503
 4163TIP3    H133904   0.252   2.908  12.393  1.9646  1.7264  1.4379
 4163TIP3    H233905   0.195   3.046  12.418 -1.6820  0.8396 -1.3052
 4164TIP3   OH233906   4.806   3.880  12.546  0.6616 -0.4630 -0.0839
 4164TIP3    H133907   4.852   3.928  12.616  0.7860 -1.2238  0.3659
 4164TIP3    H233908   4.795   3.945  12.476 -0.2311  0.5642  0.9634
 4165TIP3   OH233909   5.783   2.636   3.002  0.1462 -0.6441 -0.1699
 4165TIP3    H133910   5.757   2.611   2.913 -1.2005 -0.4039  0.1298
 4165TIP3    H233911   5.878   2.626   3.003 -0.0552 -3.4030 -0.7852
 4166TIP3   OH233912   3.285   0.752  12.937  0.2691  0.0112  0.4866
 4166TIP3    H133913   3.316   0.686  12.875  0.7812  1.0980 -0.4541
 4166TIP3    H233914   3.271   0.830  12.884  0.7988  1.0030  1.7646
 4167TIP3   OH233915   3.900   5.068   4.799  0.1864 -0.8687  0.2275
 4167TIP3    H133916   3.946   5.145   4.767  0.3904 -0.9692  0.2742
 4167TIP3    H233917   3.966   5.019   4.847 -0.0919 -0.7784  0.7031
 4168TIP3   OH233918   0.596   4.213   3.413  0.3805  0.0544  0.2093
 4168TIP3    H133919   0.638   4.286   3.458 -1.3794  1.4810 -0.3020
 4168TIP3    H233920   0.502   4.229   3.426 -0.0871 -3.2444  1.7547
 4169TIP3   OH233921   3.064   5.074   2.462  0.0364  0.1845  0.2036
 4169TIP3    H133922   3.100   5.100   2.547  0.2669  1.2535 -0.2085
 4169TIP3    H233923   2.970   5.086   2.470 -0.0005 -0.2840  0.4949
 4170TIP3   OH233924   1.660   2.484  13.867 -0.2177 -0.0623 -0.0395
 4170TIP3    H133925   1.654   2.436  13.949 -1.9186 -1.2717 -0.8229
 4170TIP3    H233926   1.749   2.465  13.835  0.0229 -0.5761  0.9076
 4171TIP3   OH233927   5.918   3.877  11.581  0.3067 -0.3818  0.0140
 4171TIP3    H133928   5.911   3.804  11.643  0.8671 -1.2074 -0.8665
 4171TIP3    H233929   5.893   3.839  11.497 -0.3023  0.6878 -0.3015
 4172TIP3   OH233930   6.178   0.213   0.620 -0.2077  0.0542  0.0561
 4172TIP3    H133931   6.178   0.135   0.563 -2.1899 -0.3042  0.4739
 4172TIP3    H233932   6.179   0.177   0.708  2.1742  0.6064  0.3299
 4173TIP3   OH233933   6.440   4.797  10.619  0.5797  0.3120  0.1810
 4173TIP3    H133934   6.528   4.797  10.581  0.8309 -0.2230  0.7454
 4173TIP3    H233935   6.446   4.735  10.692 -0.1806  0.5165  0.4192
 4174TIP3   OH233936   4.138   0.560   4.747 -0.4806  0.1732  0.2930
 4174TIP3    H133937   4.084   0.500   4.798 -0.7445 -0.0606 -0.2484
 4174TIP3    H233938   4.216   0.510   4.724 -0.8637 -0.0990 -0.4676
 4175TIP3   OH233939   0.287   5.010  11.466  0.1901 -0.1289  0.3226
 4175TIP3    H133940   0.258   4.919  11.470 -0.7453  0.1360 -0.0415
 4175TIP3    H233941   0.312   5.024  11.375 -1.7251  0.5475 -0.1531
 4176TIP3   OH233942   3.732   3.826  12.142  0.3331  0.4844 -0.9393
 4176TIP3    H133943   3.650   3.859  12.105 -1.1321 -0.5922  1.1414
 4176TIP3    H233944   3.789   3.903  12.148 -1.2552  1.6672 -0.5759
 4177TIP3   OH233945   0.311   4.304  13.230  0.3758  0.0578  0.6557
 4177TIP3    H133946   0.388   4.256  13.259 -0.2878 -1.3265  0.1953
 4177TIP3    H233947   0.241   4.240  13.231 -0.0664  0.3817 -2.2362
 4178TIP3   OH233948   6.268   1.861   6.318 -0.1107 -0.3240  0.2154
 4178TIP3    H133949   6.313   1.810   6.251 -1.6917  0.2506 -1.3786
 4178TIP3    H233950   6.219   1.796   6.369  0.4171 -0.6864  0.2642
 4179TIP3   OH233951   4.241   4.229   2.572 -0.0931  0.5784  0.2231
 4179TIP3    H133952   4.151   4.257   2.583 -0.8782 -1.9146  0.7082
 4179TIP3    H233953   4.289   4.310   2.554 -2.2994  2.0377  0.5072
 4180TIP3   OH233954   3.939   3.282   2.620 -0.3820  0.3992  0.1126
 4180TIP3    H133955   3.908   3.312   2.705  0.4628  1.2080  0.1527
 4180TIP3    H233956   3.873   3.220   2.591 -1.3664  1.1097  0.7630
 4181TIP3   OH233957   5.431   1.109  12.064  0.1274  0.3940  0.1211
 4181TIP3    H133958   5.457   1.198  12.090 -1.2308  0.3396  1.9025
 4181TIP3    H233959   5.368   1.122  11.994  0.3889  0.8049 -0.0412
 4182TIP3   OH233960   1.090   2.349   0.968 -0.2404  0.0436  0.0043
 4182TIP3    H133961   1.150   2.409   0.924 -1.7463  1.4551 -0.2089
 4182TIP3    H233962   1.075   2.280   0.903  2.4234 -1.3259  0.6739
 4183TIP3   OH233963   3.936   2.275  15.586  0.1966 -0.1415  0.6169
 4183TIP3    H133964   4.003   2.207  15.581 -1.2205 -1.6171  1.1757
 4183TIP3    H233965   3.962   2.328  15.662  1.4178  0.1125  0.0571
 4184TIP3   OH233966   5.154   3.984  11.365  0.7654  0.9688 -0.1544
 4184TIP3    H133967   5.248   3.984  11.381  1.2391  1.6344 -2.5416
 4184TIP3    H233968   5.126   4.075  11.380  0.1655  0.4983  1.9411
 4185TIP3   OH233969   4.731   5.301  16.007 -0.0158 -0.2367  0.2014
 4185TIP3    H133970   4.817   5.328  16.039  1.1424 -0.6685 -2.3181
 4185TIP3    H233971   4.750   5.249  15.929 -2.4933 -2.2024  0.7911
 4186TIP3   OH233972   4.502   0.365  12.124  0.1748 -0.0100  0.1006
 4186TIP3    H133973   4.444   0.441  12.125  0.6366  0.3572 -0.3366
 4186TIP3    H233974   4.581   0.394  12.170  0.8602  0.1978 -1.1659
 4187TIP3   OH233975   4.507   3.416   1.089  1.2011 -0.4255  0.4965
 4187TIP3    H133976   4.541   3.327   1.081  1.3525 -0.2548 -1.0220
 4187TIP3    H233977   4.548   3.464   1.018 -1.5163 -0.0138 -0.9411
 4188TIP3   OH233978   4.308   6.112  12.740 -0.1642 -0.2780  0.4888
 4188TIP3    H133979   4.217   6.111  12.710 -0.1880 -0.0905  0.5515
 4188TIP3    H233980   4.334   6.020  12.743  0.8271 -0.2573 -3.1393
 4189TIP3   OH233981   4.898   2.703   1.940 -0.7079 -0.3951  0.0497
 4189TIP3    H133982   4.833   2.736   1.878 -0.7273 -0.4947  0.0169
 4189TIP3    H233983   4.949   2.639   1.890  0.2594  0.6224 -0.2957
 4190TIP3   OH233984   0.689   5.626   0.712 -0.4676  0.7660  0.0164
 4190TIP3    H133985   0.697   5.654   0.803 -0.5942 -2.6302  1.2030
 4190TIP3    H233986   0.778   5.606   0.684 -0.5671  0.5872 -0.1797
 4191TIP3   OH233987   2.737   6.489   4.071  0.7062  0.6744  0.6210
 4191TIP3    H133988   2.746   6.560   4.006 -0.0172  0.2711  0.0678
 4191TIP3    H233989   2.736   6.534   4.155 -1.8044  1.5386  0.1975
 4192TIP3   OH233990   5.325   2.321  17.041  0.4877 -0.0447 -0.3803
 4192TIP3    H133991   5.374   2.246  17.009  1.0643  0.7089 -1.2993
 4192TIP3    H233992   5.265   2.343  16.970 -0.0420  0.0488  0.0910
 4193TIP3   OH233993   5.741   0.924   3.744 -0.1599  0.1295  0.0649
 4193TIP3    H133994   5.650   0.894   3.745  0.2244 -1.0948 -0.0726
 4193TIP3    H233995   5.773   0.900   3.656  0.0839  1.2367 -0.1654
 4194TIP3   OH233996   4.418   2.751   5.850 -0.0575  0.4938  0.4479
 4194TIP3    H133997   4.459   2.682   5.902 -0.8115  0.6213  1.2237
 4194TIP3    H233998   4.472   2.828   5.866  0.4120  0.2459  0.0833
 4195TIP3   OH233999   0.352   6.737  16.454 -0.1959  0.3846  0.4136
 4195TIP3    H134000   0.417   6.674  16.423 -0.0238  1.3097 -1.2247
 4195TIP3    H234001   0.268   6.698  16.433 -0.0840  0.9411 -1.2292
 4196TIP3   OH234002   1.192   5.091   0.276  0.6693  0.2433 -0.1257
 4196TIP3    H134003   1.225   5.161   0.220  0.6334 -1.8558 -3.0443
 4196TIP3    H234004   1.134   5.041   0.219  0.4848 -2.0034  1.8756
 4197TIP3   OH234005   3.700   6.649   3.282 -0.2994  0.4083 -0.2274
 4197TIP3    H134006   3.777   6.706   3.279  0.0150  0.0255  0.3370
 4197TIP3    H234007   3.667   6.650   3.192 -0.6648  1.9503 -0.1071
 4198TIP3   OH234008   5.625   0.945  11.136 -0.6367  0.6730  0.4034
 4198TIP3    H134009   5.619   1.029  11.091 -0.4749 -0.2217 -1.3675
 4198TIP3    H234010   5.708   0.908  11.108 -0.8443 -0.2208  0.9105
 4199TIP3   OH234011   2.402   6.738  11.191 -0.4720  0.6778  0.1152
 4199TIP3    H134012   2.402   6.646  11.163 -2.7667  0.7577 -0.3549
 4199TIP3    H234013   2.423   6.787  11.112 -0.8338  0.6349 -0.0068
 4200TIP3   OH234014   4.326   2.394   0.962  0.6563 -0.1610  0.1013
 4200TIP3    H134015   4.247   2.340   0.954  1.3755 -1.0109 -1.8849
 4200TIP3    H234016   4.294   2.482   0.982 -0.7261 -0.6726  0.2441
 4201TIP3   OH234017   2.849   1.062   3.414 -0.2512  0.2593  0.3035
 4201TIP3    H134018   2.802   1.001   3.357 -0.4358 -0.7249  1.4464
 4201TIP3    H234019   2.817   1.041   3.502  1.5284  0.2791  1.0038
 4202TIP3   OH234020   0.946   4.051  13.522 -0.2978  0.8890  0.4518
 4202TIP3    H134021   1.033   4.011  13.527 -1.5785 -2.6410 -1.7168
 4202TIP3    H234022   0.907   4.034  13.608  0.3600  0.3338  0.6497
 4203TIP3   OH234023   4.549   2.692  14.249 -0.1199  0.0590 -0.3617
 4203TIP3    H134024   4.497   2.620  14.214  2.0339 -1.0429 -1.4873
 4203TIP3    H234025   4.595   2.654  14.324 -1.3060  1.1828  0.9975
 4204TIP3   OH234026   3.336   0.649  11.654  0.3499 -0.2580 -0.3345
 4204TIP3    H134027   3.419   0.697  11.655  0.9818 -1.1449  3.1354
 4204TIP3    H234028   3.355   0.570  11.603  1.1055  0.3019 -0.9575
 4205TIP3   OH234029   1.768   4.516   3.944 -0.2507  0.6420 -0.1470
 4205TIP3    H134030   1.687   4.567   3.951 -0.0166  0.8761  0.9252
 4205TIP3    H234031   1.789   4.492   4.034  1.0061  0.7888 -0.3887
 4206TIP3   OH234032   4.393   6.342  16.054  0.2207 -0.2281  0.4737
 4206TIP3    H134033   4.387   6.307  15.965  2.3231 -1.3773  0.7166
 4206TIP3    H234034   4.317   6.305  16.100 -1.2681  0.9267 -0.9751
 4207TIP3   OH234035   1.838   3.604  13.636 -0.1868 -0.2938  0.1478
 4207TIP3    H134036   1.865   3.517  13.663  0.8148  0.0359  0.2639
 4207TIP3    H234037   1.763   3.590  13.578  0.1626 -1.2347 -0.0810
 4208TIP3   OH234038   2.649   1.057   0.047  0.9722 -0.3953 -0.0938
 4208TIP3    H134039   2.720   1.011   0.090  0.4539 -0.7009  0.4472
 4208TIP3    H234040   2.584   0.989   0.028  0.4467  0.0136  0.2093
 4209TIP3   OH234041   1.779   5.376  11.634 -0.7971 -0.3787 -0.4509
 4209TIP3    H134042   1.730   5.405  11.557 -3.2520 -2.5339  0.1479
 4209TIP3    H234043   1.737   5.420  11.708 -1.3596 -1.6162  0.0002
 4210TIP3   OH234044   4.958   3.396  15.277  0.0767 -0.5351  0.3979
 4210TIP3    H134045   4.982   3.350  15.197  1.9726  0.7750  0.1396
 4210TIP3    H234046   4.875   3.439  15.256  0.4137 -0.4331 -0.7717
 4211TIP3   OH234047   6.600   0.448   3.086  0.1349  0.3005  0.2857
 4211TIP3    H134048   6.677   0.463   3.032  0.1020 -0.7252 -0.0765
 4211TIP3    H234049   6.618   0.367   3.132 -1.1987 -0.6446 -0.7475
 4212TIP3   OH234050   4.221   5.104   4.863 -0.2753 -0.1430  0.8759
 4212TIP3    H134051   4.210   5.141   4.950  1.9679  1.0149  0.7416
 4212TIP3    H234052   4.282   5.032   4.874 -0.5090 -0.4291  0.3567
 4213TIP3   OH234053   5.809   0.590   5.624  0.0735  0.5039 -0.4396
 4213TIP3    H134054   5.781   0.620   5.711 -0.0366 -0.8029  0.0043
 4213TIP3    H234055   5.746   0.631   5.564 -2.4657 -1.7541  0.4781
 4214TIP3   OH234056   1.856   1.341  11.824  0.1567 -0.4405  0.1468
 4214TIP3    H134057   1.923   1.315  11.762 -0.6405 -0.6478 -0.6428
 4214TIP3    H234058   1.816   1.419  11.785 -0.0761 -0.3252  0.6058
 4215TIP3   OH234059   6.410   0.510   3.459  0.4535  0.4237 -0.6032
 4215TIP3    H134060   6.342   0.546   3.517  0.5609  0.2944 -0.3962
 4215TIP3    H234061   6.437   0.429   3.501  0.7246  0.4645 -0.6962
 4216TIP3   OH234062   0.854   4.883   5.735  0.5403  0.3265  0.1181
 4216TIP3    H134063   0.937   4.868   5.780  1.0504  2.2557 -0.1255
 4216TIP3    H234064   0.791   4.829   5.783  1.6795 -0.1745  1.1037
 4217TIP3   OH234065   2.611   0.904   0.991 -0.3554  0.7471 -0.7753
 4217TIP3    H134066   2.527   0.943   0.968 -0.3719  2.1319  1.3546
 4217TIP3    H234067   2.594   0.854   1.070  0.5095 -0.3474 -1.2569
 4218TIP3   OH234068   1.914   0.496   5.471 -0.1486  0.2731  0.3989
 4218TIP3    H134069   1.962   0.577   5.489  0.9668 -0.1120 -0.7061
 4218TIP3    H234070   1.837   0.523   5.423  1.6163  0.5166 -2.4997
 4219TIP3   OH234071   1.605   3.124   2.377  0.3493  0.1624 -0.0720
 4219TIP3    H134072   1.653   3.148   2.456 -2.0196  1.3053  1.1218
 4219TIP3    H234073   1.613   3.029   2.372 -0.9826 -0.2133  2.6931
 4220TIP3   OH234074   1.759   1.156   5.451  0.6216  0.4503 -0.1640
 4220TIP3    H134075   1.722   1.234   5.409  1.1270  0.6214 -0.2938
 4220TIP3    H234076   1.686   1.093   5.453  0.4944  0.5600 -0.9948
 4221TIP3   OH234077   2.434   5.273  13.006  0.3901  0.2580  0.2858
 4221TIP3    H134078   2.392   5.195  12.970  0.6968  0.0556  0.3702
 4221TIP3    H234079   2.419   5.268  13.100  0.0325  0.5281  0.2488
 4222TIP3   OH234080   4.111   0.918  14.587 -0.2312  0.2215 -0.2586
 4222TIP3    H134081   4.188   0.954  14.544 -1.3518  0.8521 -1.8321
 4222TIP3    H234082   4.082   0.987  14.646  0.6840 -0.2251  0.7483
 4223TIP3   OH234083   4.445   0.396  15.167  0.5602 -0.1115  0.7115
 4223TIP3    H134084   4.372   0.359  15.218  0.1234  1.3800  1.2113
 4223TIP3    H234085   4.403   0.455  15.104  1.0667 -1.9794 -1.5550
 4224TIP3   OH234086   4.098   5.375  12.358  0.2297  0.1127 -0.3068
 4224TIP3    H134087   4.052   5.381  12.442 -0.8522 -0.4128 -0.8407
 4224TIP3    H234088   4.035   5.408  12.294 -0.1269 -2.2459 -1.2916
 4225TIP3   OH234089   5.820   2.264  16.225  0.2855  0.5587 -0.3032
 4225TIP3    H134090   5.729   2.245  16.247  0.6241  0.5143  1.1658
 4225TIP3    H234091   5.861   2.178  16.213  0.4927  0.5197  0.6312
 4226TIP3   OH234092   1.610   0.887  10.985  0.0110 -0.2263  0.6549
 4226TIP3    H134093   1.674   0.922  11.047 -0.2313 -0.5693  1.1093
 4226TIP3    H234094   1.568   0.815  11.032 -0.8287  0.0989  0.4331
 4227TIP3   OH234095   3.262   3.563   2.327 -0.7242  0.4965  0.4959
 4227TIP3    H134096   3.265   3.524   2.240  0.7252  0.4467  0.5443
 4227TIP3    H234097   3.266   3.488   2.387  0.4815  0.6064  0.5848
 4228TIP3   OH234098   4.788   1.327   1.313  0.1595 -0.0534  0.5373
 4228TIP3    H134099   4.866   1.345   1.366 -0.1361  1.3136  0.5460
 4228TIP3    H234100   4.783   1.231   1.309  2.9614 -0.2339 -1.1322
 4229TIP3   OH234101   5.200   2.256   1.712 -0.6383 -0.0476 -0.6051
 4229TIP3    H134102   5.174   2.312   1.639  0.6225 -1.4801 -2.2282
 4229TIP3    H234103   5.152   2.175   1.698  2.2006 -1.6334 -1.9546
 4230TIP3   OH234104   0.369   4.960   2.894  0.3719 -0.2399 -0.0308
 4230TIP3    H134105   0.374   4.865   2.886  0.4660 -0.4291  1.7324
 4230TIP3    H234106   0.426   4.993   2.825  1.3406 -1.5212  0.1047
 4231TIP3   OH234107   1.049   0.968  15.279  0.3428  0.5184 -0.0003
 4231TIP3    H134108   1.083   0.912  15.210 -0.5673 -0.3684  0.2615
 4231TIP3    H234109   0.956   0.949  15.284 -0.0348  2.1773 -0.0107
 4232TIP3   OH234110   6.785   6.421  15.384  0.1412 -0.4271  0.2345
 4232TIP3    H134111   6.779   6.327  15.402  0.1695 -0.2435  1.2777
 4232TIP3    H234112   6.828   6.427  15.298  2.5406 -1.3194  1.2852
 4233TIP3   OH234113   1.159   3.724  15.569  0.4205  0.0131  0.0347
 4233TIP3    H134114   1.125   3.791  15.629 -2.6680 -0.7475 -0.7298
 4233TIP3    H234115   1.122   3.642  15.601  3.9181 -1.4723  0.7777
 4234TIP3   OH234116   3.595   4.181   0.318  0.2664 -0.4043 -0.0584
 4234TIP3    H134117   3.521   4.242   0.316  1.3096  0.9343  0.6783
 4234TIP3    H234118   3.655   4.213   0.252 -0.3905 -2.3485 -1.7200
 4235TIP3   OH234119   0.207   4.569  12.670 -0.4420 -0.6705  0.1316
 4235TIP3    H134120   0.239   4.485  12.637  1.2274 -1.1107  2.5717
 4235TIP3    H234121   0.113   4.568  12.653  0.0887 -1.2320 -3.4840
 4236TIP3   OH234122   3.645   5.562  16.319 -0.4712  0.0466  0.0574
 4236TIP3    H134123   3.592   5.508  16.377 -0.1400  0.9290  1.2269
 4236TIP3    H234124   3.706   5.500  16.277 -1.5418 -0.7768 -0.3324
 4237TIP3   OH234125   5.243   4.283  15.803 -0.0819 -0.6217 -0.2642
 4237TIP3    H134126   5.338   4.276  15.811 -0.0373 -0.2980 -0.5056
 4237TIP3    H234127   5.209   4.224  15.871  0.2795  0.1412  0.5930
 4238TIP3   OH234128   0.295   5.490   0.127  0.4338 -0.0511  0.1189
 4238TIP3    H134129   0.254   5.458   0.207 -0.9663  1.6031  0.1129
 4238TIP3    H234130   0.274   5.583   0.125 -1.0818 -0.3438 -3.0384
 4239TIP3   OH234131   0.849   6.337   1.016 -0.5911 -1.0866  0.0905
 4239TIP3    H134132   0.838   6.256   0.966 -0.6623 -0.2596 -1.2967
 4239TIP3    H234133   0.887   6.398   0.953 -2.8087  0.6977  0.3344
 4240TIP3   OH234134   1.229   1.073   4.472  0.5142 -0.2285 -0.3443
 4240TIP3    H134135   1.235   1.143   4.408  2.5702 -0.8723 -0.9645
 4240TIP3    H234136   1.135   1.058   4.484  0.0295  2.5014 -0.2656
 4241TIP3   OH234137   0.256   5.505  15.244  0.5822  0.5562 -0.2797
 4241TIP3    H134138   0.287   5.415  15.252 -0.1591  0.3365  0.2068
 4241TIP3    H234139   0.336   5.558  15.243  0.9792  0.0229  1.1784
 4242TIP3   OH234140   3.687   3.880  11.043  0.3245  0.4233  0.4855
 4242TIP3    H134141   3.594   3.856  11.036  0.9071 -1.5949 -2.5694
 4242TIP3    H234142   3.697   3.952  10.980  0.9891 -0.1019 -0.0237
 4243TIP3   OH234143   3.888   1.863   3.001 -0.2233  0.5599 -1.0900
 4243TIP3    H134144   3.850   1.831   3.083  0.0631 -0.0427 -1.1861
 4243TIP3    H234145   3.983   1.862   3.017 -0.1567  0.2837 -1.4818
 4244TIP3   OH234146   3.486   4.592   6.338 -0.3579  0.3855  0.2617
 4244TIP3    H134147   3.523   4.574   6.425  0.5572  0.7331 -0.0389
 4244TIP3    H234148   3.538   4.665   6.305 -1.6138  1.1687 -0.0195
 4245TIP3   OH234149   3.960   2.621   2.986 -0.2890 -0.8720  0.0451
 4245TIP3    H134150   4.021   2.671   3.039  1.0196 -0.5429 -1.6838
 4245TIP3    H234151   3.881   2.614   3.040  0.3424  0.9477  1.2884
 4246TIP3   OH234152   4.584   2.276  13.309 -0.0240  0.0585 -0.1331
 4246TIP3    H134153   4.585   2.370  13.287  0.7526 -0.1126 -0.8632
 4246TIP3    H234154   4.521   2.270  13.381 -1.7064  0.8391 -1.4390
 4247TIP3   OH234155   6.241   5.203   4.404 -0.2234 -0.2708 -0.0981
 4247TIP3    H134156   6.159   5.203   4.355 -1.0477 -2.0436  1.1773
 4247TIP3    H234157   6.299   5.148   4.351 -1.0773 -2.0923  0.7703
 4248TIP3   OH234158   1.622   0.362   3.361 -0.5113 -0.6207 -0.0340
 4248TIP3    H134159   1.603   0.450   3.394 -0.0396 -0.4794 -0.1371
 4248TIP3    H234160   1.703   0.337   3.404 -0.9435 -1.2426  0.4368
 4249TIP3   OH234161   2.524   4.335  12.274  0.1044 -0.3872 -0.8370
 4249TIP3    H134162   2.559   4.388  12.202  0.8274 -1.5531 -1.3735
 4249TIP3    H234163   2.599   4.284  12.305 -0.6118 -1.2468 -0.4809
 4250TIP3   OH234164   2.211   4.373  12.903  0.8419 -0.3499 -0.3657
 4250TIP3    H134165   2.225   4.424  12.823  0.5896  0.5011  0.1146
 4250TIP3    H234166   2.281   4.308  12.904  1.5535  0.3989 -0.6759
 4251TIP3   OH234167   6.618   3.858  12.659 -0.0278  0.3156 -0.3531
 4251TIP3    H134168   6.633   3.767  12.686  1.1940 -0.0787 -2.2328
 4251TIP3    H234169   6.654   3.910  12.731 -0.5706 -0.6745  0.6616
 4252TIP3   OH234170   4.147   0.431  10.730  0.3693  0.5601  0.1334
 4252TIP3    H134171   4.110   0.486  10.660 -2.0469 -0.5472  0.4348
 4252TIP3    H234172   4.142   0.342  10.695  0.0151  0.0922  1.3378
 4253TIP3   OH234173   5.143   0.661   0.635  0.1327  0.2748  0.2892
 4253TIP3    H134174   5.220   0.606   0.621  1.4023  1.9766  0.2311
 4253TIP3    H234175   5.085   0.641   0.561  0.3371 -1.2785  0.5206
 4254TIP3   OH234176   2.214   2.262   2.215 -0.2052 -0.2085 -0.3201
 4254TIP3    H134177   2.259   2.315   2.149 -1.1048 -0.7617 -1.4262
 4254TIP3    H234178   2.129   2.305   2.226  0.3871  0.5947  1.4421
 4255TIP3   OH234179   5.546   5.948   0.194  0.6349  0.0404 -0.5715
 4255TIP3    H134180   5.637   5.921   0.194  0.9851  0.9776  1.7393
 4255TIP3    H234181   5.498   5.874   0.158  2.2506 -0.6336 -1.4121
 4256TIP3   OH234182   4.358   2.119  15.518  0.0704 -0.3195  0.1633
 4256TIP3    H134183   4.279   2.081  15.556  0.5545 -0.4500  1.0697
 4256TIP3    H234184   4.407   2.154  15.593 -0.4287  2.2875 -0.6230
 4257TIP3   OH234185   2.967   2.730   1.587  0.1330 -0.3307 -0.7507
 4257TIP3    H134186   2.990   2.638   1.576 -0.4447 -0.5009 -0.5545
 4257TIP3    H234187   3.026   2.776   1.527  1.2480 -0.7117  0.0215
 4258TIP3   OH234188   1.107   3.189   1.393 -0.0056  0.2298  0.0797
 4258TIP3    H134189   1.096   3.142   1.310  1.1004  0.1884 -0.0598
 4258TIP3    H234190   1.072   3.129   1.459  0.6062 -0.4535 -0.1907
 4259TIP3   OH234191   6.138   3.511   3.052  0.2675  0.1434  0.5738
 4259TIP3    H134192   6.211   3.450   3.062  0.7860  0.2730 -1.8515
 4259TIP3    H234193   6.070   3.476   3.110  1.5666 -1.0706  1.4255
 4260TIP3   OH234194   3.307   3.685  16.517 -0.2922  0.4217  0.2628
 4260TIP3    H134195   3.307   3.781  16.509 -0.8788  0.4978  1.0768
 4260TIP3    H234196   3.248   3.655  16.448  0.6336  0.5786 -0.6172
 4261TIP3   OH234197   1.259   5.091   6.059 -0.1006  0.5511 -0.4207
 4261TIP3    H134198   1.215   5.007   6.047  2.1225 -1.0637  1.8157
 4261TIP3    H234199   1.313   5.101   5.980 -0.4767 -0.0351 -0.7601
 4262TIP3   OH234200   0.155   2.428  12.529  0.0026  0.4711 -0.3516
 4262TIP3    H134201   0.169   2.465  12.442  0.5252  4.0269  1.0761
 4262TIP3    H234202   0.157   2.503  12.588 -0.2684 -1.7741  2.7903
 4263TIP3   OH234203   0.086   6.044   3.014  0.6187  0.1904  0.0220
 4263TIP3    H134204   0.057   5.958   2.985  0.1530  0.5907 -0.7253
 4263TIP3    H234205   0.171   6.056   2.972  0.6346  0.1447  0.0406
 4264TIP3   OH234206   3.474   0.742  13.177 -0.3595 -0.5128  0.4386
 4264TIP3    H134207   3.456   0.816  13.235  0.4206  1.8985 -2.1621
 4264TIP3    H234208   3.394   0.733  13.124  0.0135 -0.6852 -0.1043
 4265TIP3   OH234209   4.143   0.932  11.288 -0.1493 -0.1407 -0.2368
 4265TIP3    H134210   4.093   0.990  11.230  0.0204  0.9473  0.6936
 4265TIP3    H234211   4.115   0.956  11.376  2.1037  0.5820  0.3257
 4266TIP3   OH234212   3.844   2.920   4.483 -0.1705  1.2545  0.3052
 4266TIP3    H134213   3.847   2.944   4.576  1.7933 -2.4372  1.4115
 4266TIP3    H234214   3.930   2.943   4.450  0.2433 -0.1872  0.2987
 4267TIP3   OH234215   1.487   0.108   2.326  0.3932 -0.0482  0.1657
 4267TIP3    H134216   1.484   0.200   2.351 -1.5662 -0.2475  0.7947
 4267TIP3    H234217   1.529   0.109   2.239 -0.1873  1.5041 -0.1371
 4268TIP3   OH234218   4.766   2.158   4.500 -0.8405  0.1700 -0.0857
 4268TIP3    H134219   4.791   2.137   4.590  2.5350 -0.4452 -1.0264
 4268TIP3    H234220   4.764   2.073   4.456 -2.6120  0.4547 -0.6302
 4269TIP3   OH234221   6.135   0.452   4.677 -0.3773  0.0396  0.1105
 4269TIP3    H134222   6.055   0.457   4.624 -0.6144 -1.2564  0.2984
 4269TIP3    H234223   6.111   0.395   4.750  0.5940 -0.0033  0.4036
 4270TIP3   OH234224   2.656   4.557  17.015  0.1794 -0.2607  0.4585
 4270TIP3    H134225   2.718   4.538  17.085  0.7933  0.7358  0.2181
 4270TIP3    H234226   2.702   4.620  16.959 -1.0092  0.4400  0.2193
 4271TIP3   OH234227   3.138   6.405  11.333 -0.0017 -0.6302  0.3729
 4271TIP3    H134228   3.111   6.448  11.414 -2.7895  0.1881 -0.8882
 4271TIP3    H234229   3.059   6.399  11.281  1.1656 -3.4190 -1.3284
 4272TIP3   OH234230   3.844   1.302   5.305 -0.8349  0.3038 -0.4678
 4272TIP3    H134231   3.784   1.228   5.295 -1.4711  0.4835  1.4548
 4272TIP3    H234232   3.874   1.296   5.396  0.3594  1.4894 -0.7502
 4273TIP3   OH234233   6.144   2.181  16.381  0.9161  0.1475 -0.1861
 4273TIP3    H134234   6.228   2.223  16.360  1.5882 -1.6745 -1.3806
 4273TIP3    H234235   6.108   2.155  16.297  0.0640 -0.7907  0.4496
 4274TIP3   OH234236   1.567   3.783  13.253 -0.3200 -0.3346 -0.7464
 4274TIP3    H134237   1.505   3.840  13.206  0.1477  0.7506 -0.0963
 4274TIP3    H234238   1.626   3.844  13.297 -0.6927 -1.2986  1.1937
 4275TIP3   OH234239   2.527   2.596  12.305  0.2852 -0.1632  0.3184
 4275TIP3    H134240   2.557   2.521  12.255  0.8775  1.2404 -1.5444
 4275TIP3    H234241   2.432   2.591  12.302  0.1721  1.1322 -3.1767
 4276TIP3   OH234242   2.625   2.027  11.597 -0.3340  0.2899 -0.0748
 4276TIP3    H134243   2.666   2.095  11.650  0.1967  0.8236 -1.1380
 4276TIP3    H234244   2.537   2.061  11.578 -1.0226 -0.5054  1.5542
 4277TIP3   OH234245   5.066   4.214  13.314 -0.2137  0.2436 -0.1202
 4277TIP3    H134246   5.023   4.129  13.306 -0.4407  0.4731 -1.7456
 4277TIP3    H234247   5.002   4.270  13.358  0.7600 -0.9224  3.0840
 4278TIP3   OH234248   4.256   2.114  13.737  0.3127  0.2944 -0.6821
 4278TIP3    H134249   4.260   2.051  13.809  0.6285  0.0122 -0.9446
 4278TIP3    H234250   4.340   2.105  13.692  0.7862  1.6262 -0.1242
 4279TIP3   OH234251   3.200   0.529   6.063 -0.2467 -0.4602 -0.3457
 4279TIP3    H134252   3.144   0.475   6.119 -0.7217  0.0109 -0.3573
 4279TIP3    H234253   3.222   0.604   6.118 -0.6354 -0.0435 -0.7465
 4280TIP3   OH234254   3.959   3.044  13.768 -0.4933 -0.1011 -0.3898
 4280TIP3    H134255   3.921   2.960  13.740 -1.3924  0.2085 -0.1207
 4280TIP3    H234256   4.053   3.026  13.774 -0.7933 -1.4943  1.0100
 4281TIP3   OH234257   4.686   5.035   0.666 -0.2688  0.0062  0.2780
 4281TIP3    H134258   4.718   4.945   0.665 -0.5600 -0.1311  1.6964
 4281TIP3    H234259   4.624   5.037   0.739 -2.9335  0.4385 -1.8282
 4282TIP3   OH234260   1.471   2.149   3.613 -0.1192 -0.3494 -0.5356
 4282TIP3    H134261   1.528   2.085   3.655  0.9502  1.1969  0.4834
 4282TIP3    H234262   1.531   2.208   3.568 -0.7880  1.7741  1.1919
 4283TIP3   OH234263   5.233   3.831   1.656  0.4554 -0.3616 -0.0252
 4283TIP3    H134264   5.316   3.877   1.646 -0.1358  0.8641  0.5328
 4283TIP3    H234265   5.256   3.748   1.698  1.6963 -1.1970 -2.1929
 4284TIP3   OH234266   6.325   1.033   2.902  0.2630  0.1125  0.1230
 4284TIP3    H134267   6.388   1.081   2.849  1.4527 -2.6050 -1.1292
 4284TIP3    H234268   6.378   0.970   2.951 -1.2181 -0.1845  1.4405
 4285TIP3   OH234269   2.103   1.821  11.796  0.0272 -0.1504  0.1175
 4285TIP3    H134270   2.157   1.894  11.767 -2.0953  0.0180 -4.3066
 4285TIP3    H234271   2.166   1.752  11.818  2.0029  1.9022  1.3583
 4286TIP3   OH234272   4.246   2.804   1.236  0.0147  0.1182  0.1419
 4286TIP3    H134273   4.240   2.840   1.324 -1.9403  0.7591 -0.1942
 4286TIP3    H234274   4.319   2.852   1.195 -0.2806  1.1673  0.8204
 4287TIP3   OH234275   4.100   5.490   1.710  0.2179 -0.3382  0.4120
 4287TIP3    H134276   4.053   5.427   1.764 -3.5745  2.6099  0.9926
 4287TIP3    H234277   4.121   5.562   1.769  0.9918  0.6006 -0.9441
 4288TIP3   OH234278   3.611   4.880   0.741 -0.1563  0.2157 -0.0457
 4288TIP3    H134279   3.676   4.948   0.761 -0.9061  0.7715  0.5973
 4288TIP3    H234280   3.662   4.803   0.717  0.7949  0.2424  1.7339
 4289TIP3   OH234281   2.817   5.380   0.910 -0.2025  0.1435 -0.8265
 4289TIP3    H134282   2.775   5.295   0.896  0.5954 -0.8204  1.9517
 4289TIP3    H234283   2.812   5.394   1.005  0.7288  2.6702 -1.0689
 4290TIP3   OH234284   4.977   2.076  13.459 -0.0341 -0.3123  0.2142
 4290TIP3    H134285   5.063   2.035  13.468 -0.4970 -1.1289  1.2893
 4290TIP3    H234286   4.958   2.110  13.547  0.2824  2.1795 -0.6139
 4291TIP3   OH234287   3.709   6.352   1.295 -0.1020 -0.0972  0.4737
 4291TIP3    H134288   3.695   6.447   1.290  0.8518  0.0083 -1.6935
 4291TIP3    H234289   3.689   6.328   1.385 -1.1351  2.0414  0.8531
 4292TIP3   OH234290   3.787   0.780   1.463  0.4400  0.0604  0.5674
 4292TIP3    H134291   3.863   0.819   1.420 -0.5374 -0.2277 -1.5429
 4292TIP3    H234292   3.717   0.789   1.400 -0.8565 -1.3117  1.7434
 4293TIP3   OH234293   1.507   5.499  16.029  0.2917 -0.0207 -0.4653
 4293TIP3    H134294   1.573   5.431  16.016 -0.7809 -1.1379 -0.1510
 4293TIP3    H234295   1.558   5.580  16.034  1.5869 -0.7798 -0.8705
 4294TIP3   OH234296   2.747   0.550   4.077  0.0749  0.3329 -0.0291
 4294TIP3    H134297   2.785   0.629   4.038 -0.3090  0.1943 -0.6937
 4294TIP3    H234298   2.733   0.491   4.003 -0.5340  0.0110  0.3350
 4295TIP3   OH234299   1.680   1.456   3.874 -0.0970  0.3826 -0.3001
 4295TIP3    H134300   1.663   1.514   3.800 -0.0925  0.2629 -0.3963
 4295TIP3    H234301   1.620   1.484   3.942 -0.7430 -0.0881 -0.6627
 4296TIP3   OH234302   1.477   5.097   6.580  0.5264 -0.8109 -0.0483
 4296TIP3    H134303   1.508   5.167   6.637  3.2656 -0.4933 -1.7335
 4296TIP3    H234304   1.449   5.141   6.500 -2.1232 -1.3475  0.4844
 4297TIP3   OH234305   4.843   0.868  13.654 -0.6759 -0.2758 -0.4174
 4297TIP3    H134306   4.861   0.904  13.567 -2.2269 -1.4392 -1.2720
 4297TIP3    H234307   4.874   0.777  13.649  0.4010 -0.0036  0.7073
 4298TIP3   OH234308   1.534   5.626   1.586 -0.3196  0.1650  0.1469
 4298TIP3    H134309   1.583   5.708   1.590 -1.9302  1.1411  1.7763
 4298TIP3    H234310   1.443   5.652   1.604 -0.9567 -1.9090  0.1843
 4299TIP3   OH234311   0.549   1.635   6.349 -0.2718 -0.4467  0.6670
 4299TIP3    H134312   0.590   1.693   6.286 -0.2357  0.7060  1.7120
 4299TIP3    H234313   0.606   1.558   6.352  0.3808  0.0173  0.2034
 4300TIP3   OH234314   2.880   4.720  15.022  0.5356  0.3173 -0.1131
 4300TIP3    H134315   2.873   4.638  15.070  0.1822  0.3001 -0.1902
 4300TIP3    H234316   2.971   4.747  15.032  1.1803 -1.0883 -1.7348
 4301TIP3   OH234317   1.222   2.376   3.559  0.0079 -0.4980  0.2509
 4301TIP3    H134318   1.193   2.407   3.645 -1.3527 -0.7250 -0.1077
 4301TIP3    H234319   1.290   2.312   3.579  1.3463  1.0711  1.0744
 4302TIP3   OH234320   2.415   1.573   1.405 -0.8415  0.1165 -0.4222
 4302TIP3    H134321   2.420   1.619   1.489  0.3907 -0.7246 -0.0071
 4302TIP3    H234322   2.400   1.642   1.340 -0.4211  0.9337  0.3372
 4303TIP3   OH234323   1.000   2.838   3.064  0.2237  0.1583 -0.7027
 4303TIP3    H134324   1.031   2.843   3.155  1.2794 -0.2058 -1.0348
 4303TIP3    H234325   1.039   2.914   3.021  0.8099 -0.3951 -1.1664
 4304TIP3   OH234326   2.861   0.026   3.451  0.5898 -0.0243  0.2607
 4304TIP3    H134327   2.886   0.110   3.488 -1.2809  0.5736  0.2319
 4304TIP3    H234328   2.919   0.015   3.375  1.6813  0.6244  0.9662
 4305TIP3   OH234329   2.590   3.369   2.812  0.0171  0.0517 -0.2922
 4305TIP3    H134330   2.578   3.341   2.721  1.0275  2.0786 -1.1244
 4305TIP3    H234331   2.636   3.453   2.805  0.1380  0.2521  2.1080
 4306TIP3   OH234332   3.620   0.270  11.586 -0.3983 -0.3403  0.5075
 4306TIP3    H134333   3.607   0.314  11.502 -3.3721 -1.2467  0.3833
 4306TIP3    H234334   3.709   0.234  11.580 -0.1976  0.3327 -1.8875
 4307TIP3   OH234335   6.150   6.648  11.937  0.3388  0.8013  0.1983
 4307TIP3    H134336   6.236   6.656  11.978  0.5974 -1.5490  0.2387
 4307TIP3    H234337   6.115   6.565  11.969 -0.6951  0.2634 -2.0890
 4308TIP3   OH234338   1.793   5.923   1.218 -0.4489 -0.3386  0.1627
 4308TIP3    H134339   1.855   5.850   1.207 -0.3394 -0.8947  3.4842
 4308TIP3    H234340   1.848   6.001   1.218  0.3304 -0.8032  2.7085
 4309TIP3   OH234341   1.239   0.210   5.243  0.3371 -0.3531  0.2309
 4309TIP3    H134342   1.288   0.128   5.250  0.0030 -0.4584  1.7550
 4309TIP3    H234343   1.305   0.278   5.234  0.6016 -0.8053 -1.7369
 4310TIP3   OH234344   6.284   1.338  16.360 -0.4101  0.9273 -0.0931
 4310TIP3    H134345   6.371   1.371  16.381 -0.4140  0.9465 -0.1075
 4310TIP3    H234346   6.293   1.300  16.272 -0.1377 -0.1306  0.3826
 4311TIP3   OH234347   4.272   1.766   1.146 -0.2692  0.8270  0.5440
 4311TIP3    H134348   4.232   1.848   1.176  1.1041  1.1626  1.5607
 4311TIP3    H234349   4.214   1.698   1.181 -0.3135  1.3136  1.4618
 4312TIP3   OH234350   0.899   6.493  16.988 -0.1756 -0.0075 -0.1019
 4312TIP3    H134351   0.943   6.429  17.045  1.7228 -0.1978 -1.6908
 4312TIP3    H234352   0.828   6.443  16.948 -0.6136 -0.2604  0.9352
 4313TIP3   OH234353   5.869   6.257   2.770 -0.2340 -0.1360 -0.0109
 4313TIP3    H134354   5.960   6.252   2.799 -0.4266  0.8097  0.7892
 4313TIP3    H234355   5.825   6.185   2.816 -0.1472  0.1878  0.5869
 4314TIP3   OH234356   1.999   5.332  13.267 -0.3380  0.3282  0.2883
 4314TIP3    H134357   2.077   5.288  13.301 -0.8206  0.1197  1.1452
 4314TIP3    H234358   2.011   5.332  13.172  1.3281  1.4514  0.4595
 4315TIP3   OH234359   5.630   1.448   5.893  0.3491  0.2518 -0.8366
 4315TIP3    H134360   5.550   1.474   5.938  0.2017 -2.1869  0.4797
 4315TIP3    H234361   5.700   1.485   5.947  0.1366  0.6943 -0.8600
 4316TIP3   OH234362   4.267   6.576  16.953  0.2592 -0.9899 -0.4872
 4316TIP3    H134363   4.184   6.623  16.943  1.3869  0.7614 -2.5907
 4316TIP3    H234364   4.284   6.578  17.047 -0.5144  1.5674 -0.2961
 4317TIP3   OH234365   2.851   2.513  14.162 -0.1042  0.3712 -0.2139
 4317TIP3    H134366   2.932   2.511  14.112 -0.9259  1.5072 -1.6794
 4317TIP3    H234367   2.808   2.430  14.142 -0.7731  1.1155 -2.0868
 4318TIP3   OH234368   6.160   5.354  16.883 -0.4620  0.2842  0.3709
 4318TIP3    H134369   6.084   5.394  16.841  0.7738  0.9502 -1.3750
 4318TIP3    H234370   6.234   5.377  16.826  1.2166  0.4920  2.4950
 4319TIP3   OH234371   3.525   5.438   6.418 -0.4920  0.3788  0.2078
 4319TIP3    H134372   3.554   5.529   6.412 -1.1684  0.6263  0.6550
 4319TIP3    H234373   3.524   5.419   6.512  1.2712 -0.6335  0.0746
 4320TIP3   OH234374   1.573   1.633   2.723  0.3815 -0.7247 -0.2353
 4320TIP3    H134375   1.513   1.666   2.789  0.9414 -2.6470  1.3474
 4320TIP3    H234376   1.585   1.706   2.662  0.4648  1.4249  2.2120
 4321TIP3   OH234377   1.639   1.173  16.155  0.0299 -0.7519  0.0295
 4321TIP3    H134378   1.631   1.161  16.060 -2.4690  0.1817  0.0645
 4321TIP3    H234379   1.623   1.086  16.191  1.2853 -1.1752 -0.3846
 4322TIP3   OH234380   0.788   5.379  14.849  0.2237 -0.0562  0.2745
 4322TIP3    H134381   0.789   5.299  14.902 -1.9778 -0.2761  0.0741
 4322TIP3    H234382   0.845   5.359  14.775  0.8432 -0.8987  0.9555
 4323TIP3   OH234383   5.995   3.215  13.061 -0.4080  0.0787  0.3384
 4323TIP3    H134384   5.975   3.217  13.155 -1.7342 -0.9635  0.1074
 4323TIP3    H234385   5.954   3.294  13.026 -0.3610  0.2018  0.5577
 4324TIP3   OH234386   1.065   3.132   3.341 -0.2469 -0.4314  0.2410
 4324TIP3    H134387   1.113   3.063   3.295  0.2100 -1.3133  1.9326
 4324TIP3    H234388   1.060   3.101   3.432 -3.0578  0.1495  0.3866
 4325TIP3   OH234389   4.467   6.585  14.940 -0.0551 -0.2334  0.1033
 4325TIP3    H134390   4.426   6.604  14.855  1.6705  0.1728 -0.6948
 4325TIP3    H234391   4.493   6.493  14.934 -1.3695 -0.6821  0.8652
 4326TIP3   OH234392   1.540   6.043  12.694 -0.2030 -0.2295 -0.0158
 4326TIP3    H134393   1.522   6.092  12.774 -0.4903 -0.8890  0.3294
 4326TIP3    H234394   1.527   5.952  12.718  0.6112 -0.5012 -0.5820
 4327TIP3   OH234395   1.331   0.678  12.348  0.4504  0.4096  0.4535
 4327TIP3    H134396   1.285   0.605  12.388  1.1343 -0.4827 -0.3379
 4327TIP3    H234397   1.361   0.644  12.263 -0.9749  2.2331 -0.8452
 4328TIP3   OH234398   0.369   0.161   3.077 -0.5950 -0.4710 -0.3776
 4328TIP3    H134399   0.308   0.089   3.094 -0.9758  0.1140  0.8388
 4328TIP3    H234400   0.355   0.222   3.150 -0.6065  1.0546 -1.6121
 4329TIP3   OH234401   2.257   2.251  11.047  0.2339 -0.6054 -0.4215
 4329TIP3    H134402   2.249   2.162  11.013  1.0354 -1.2163  0.8989
 4329TIP3    H234403   2.172   2.291  11.029 -0.4341 -1.8997 -0.2918
 4330TIP3   OH234404   6.786   3.095  14.199 -0.1990  0.1500  0.0539
 4330TIP3    H134405   6.840   3.131  14.129 -1.8973  0.7055 -1.0367
 4330TIP3    H234406   6.817   3.005  14.209 -0.0305 -0.0004 -1.5514
 4331TIP3   OH234407   4.714   1.465   5.595 -0.0364 -0.6225  0.4225
 4331TIP3    H134408   4.655   1.523   5.645 -0.0464 -0.8718  0.7038
 4331TIP3    H234409   4.669   1.451   5.512  1.2071  2.0341 -0.8423
 4332TIP3   OH234410   1.317   1.187  11.825  0.7725 -0.1275 -0.0525
 4332TIP3    H134411   1.307   1.157  11.735 -0.5992  1.4676 -0.4805
 4332TIP3    H234412   1.233   1.165  11.867  0.1621  1.9048 -0.0738
 4333TIP3   OH234413   4.570   4.339   2.800 -0.1010  0.6059  0.3752
 4333TIP3    H134414   4.489   4.290   2.819  1.0772 -1.3601  0.6218
 4333TIP3    H234415   4.558   4.423   2.845 -0.2883 -1.2441  4.1821
 4334TIP3   OH234416   1.567   1.147  12.479  0.4013 -0.4994 -0.5165
 4334TIP3    H134417   1.532   1.136  12.391 -0.3766 -2.7442 -0.0006
 4334TIP3    H234418   1.619   1.067  12.494 -0.6438 -0.8550  1.5375
 4335TIP3   OH234419   1.069   2.885  14.419 -0.5996  0.7552  0.3601
 4335TIP3    H134420   1.050   2.798  14.454 -2.0444  0.6100 -0.6967
 4335TIP3    H234421   1.054   2.944  14.493  0.1303  0.1372  1.0137
 4336TIP3   OH234422   2.770   4.616  12.946 -0.6160 -0.4503 -0.2150
 4336TIP3    H134423   2.764   4.699  12.898 -0.6309 -0.8012 -0.8252
 4336TIP3    H234424   2.718   4.631  13.025 -1.3215 -0.1587 -0.7217
 4337TIP3   OH234425   4.703   3.915  15.493 -0.3325 -0.0365 -0.4053
 4337TIP3    H134426   4.614   3.952  15.493 -0.5680 -0.5396  0.7120
 4337TIP3    H234427   4.735   3.932  15.582  1.3190  1.5375 -1.2332
 4338TIP3   OH234428   2.593   0.737   1.200 -0.9058  0.0359  0.2870
 4338TIP3    H134429   2.568   0.663   1.145 -1.8867  0.7551 -0.2643
 4338TIP3    H234430   2.544   0.723   1.281 -1.3663  0.2566  0.0516
 4339TIP3   OH234431   4.538   4.970   3.427 -0.0973  0.2518 -0.8389
 4339TIP3    H134432   4.525   5.064   3.432 -1.0440  0.0553  1.8867
 4339TIP3    H234433   4.508   4.946   3.339 -1.5820  2.2512 -0.9390
 4340TIP3   OH234434   5.089   6.541   6.442 -0.8305  0.1315 -0.6533
 4340TIP3    H134435   5.008   6.591   6.450 -0.4138  0.9529 -1.4721
 4340TIP3    H234436   5.070   6.458   6.487 -2.9495 -0.7040 -2.8797
 4341TIP3   OH234437   1.094   5.660  13.644  0.5364  0.8975  0.6228
 4341TIP3    H134438   1.007   5.676  13.607  0.4100 -0.1795  0.4284
 4341TIP3    H234439   1.126   5.583  13.598  1.0835  0.5381  1.5681
 4342TIP3   OH234440   1.147   0.474   0.772 -0.2320 -0.0356  0.0268
 4342TIP3    H134441   1.114   0.458   0.683  0.4988 -0.0494 -0.2479
 4342TIP3    H234442   1.164   0.387   0.807 -1.9309 -0.1101  0.7436
 4343TIP3   OH234443   5.045   0.114  12.238  0.2769 -0.1504  0.2993
 4343TIP3    H134444   4.988   0.066  12.178 -0.0149 -0.1798  0.5995
 4343TIP3    H234445   4.987   0.145  12.307 -0.0522  2.7877 -1.1188
 4344TIP3   OH234446   1.793   6.439   2.778  0.1324 -0.0580 -0.0801
 4344TIP3    H134447   1.799   6.483   2.863 -1.3147 -1.2620  0.6752
 4344TIP3    H234448   1.884   6.434   2.747  0.6421  0.6792  1.2278
 4345TIP3   OH234449   5.349   3.241  15.707 -0.1109  0.0080  0.4320
 4345TIP3    H134450   5.347   3.326  15.665  1.4164  0.9498  2.1536
 4345TIP3    H234451   5.420   3.194  15.664  0.1076  0.2041  0.5799
 4346TIP3   OH234452   6.603   4.770  12.865  0.4477  0.1858  0.1693
 4346TIP3    H134453   6.575   4.704  12.801  0.8078  0.5382 -0.3554
 4346TIP3    H234454   6.603   4.852  12.817  2.0807  0.2481  0.2459
 4347TIP3   OH234455   6.216   1.411  11.352 -0.4972  0.0080 -0.4994
 4347TIP3    H134456   6.259   1.483  11.306 -0.1770 -0.6934 -1.3282
 4347TIP3    H234457   6.286   1.372  11.404 -1.1422  1.6408  1.7376
 4348TIP3   OH234458   6.178   5.127   0.805  0.3317 -0.5333  0.0947
 4348TIP3    H134459   6.084   5.134   0.787  0.5690 -1.8767 -2.1434
 4348TIP3    H234460   6.218   5.127   0.718  2.3602 -0.7322  0.9815
 4349TIP3   OH234461   1.756   3.271  16.597  0.0142  0.7525 -0.3666
 4349TIP3    H134462   1.749   3.259  16.691 -1.1926  1.0293 -0.4012
 4349TIP3    H234463   1.842   3.310  16.583 -0.2180  1.7053  0.7307
 4350TIP3   OH234464   5.573   1.166   1.577 -0.1353  0.1013 -0.0031
 4350TIP3    H134465   5.602   1.226   1.509 -0.3781 -0.5822 -0.7254
 4350TIP3    H234466   5.552   1.222   1.652  0.1740  0.8556 -0.4720
 4351TIP3   OH234467   4.647   1.099   4.626  0.2823  0.0929  0.0470
 4351TIP3    H134468   4.624   1.006   4.622  0.1481  0.0786  0.9188
 4351TIP3    H234469   4.655   1.126   4.534 -0.2838 -0.6267 -0.2231
 4352TIP3   OH234470   1.726   1.380   0.928 -0.1129  0.2990 -0.1665
 4352TIP3    H134471   1.748   1.292   0.960 -0.5151  0.2460 -0.0386
 4352TIP3    H234472   1.811   1.421   0.914  0.1504 -0.7636 -2.0511
 4353TIP3   OH234473   0.818   1.595  12.448  0.1270 -0.1299 -0.0442
 4353TIP3    H134474   0.729   1.629  12.455  0.2549  0.0033  1.3295
 4353TIP3    H234475   0.874   1.672  12.449  0.2446 -0.1344 -2.1930
 4354TIP3   OH234476   2.683   4.244   1.151 -0.1774  0.1587  0.2601
 4354TIP3    H134477   2.721   4.263   1.236  1.4331 -2.5853  0.2825
 4354TIP3    H234478   2.758   4.234   1.092 -0.9353 -2.1522 -0.4555
 4355TIP3   OH234479   1.290   0.782  13.221  0.1040 -0.3845  0.0017
 4355TIP3    H134480   1.262   0.744  13.304 -0.4933  0.8980  0.4211
 4355TIP3    H234481   1.228   0.749  13.157  0.5575 -1.3702  0.0565
 4356TIP3   OH234482   6.684   1.241  13.196 -0.0449 -0.3824  0.6941
 4356TIP3    H134483   6.611   1.295  13.165 -0.1172 -0.6239  0.4451
 4356TIP3    H234484   6.708   1.281  13.280 -1.3857 -1.1512  1.4827
 4357TIP3   OH234485   1.750   4.960   2.374  0.5194 -0.0330  0.4681
 4357TIP3    H134486   1.754   4.927   2.464  1.1503 -0.9934  0.0965
 4357TIP3    H234487   1.658   4.952   2.349  0.0408  1.6245  1.5168
 4358TIP3   OH234488   0.242   0.412  12.516  0.2976  0.3656 -0.3050
 4358TIP3    H134489   0.152   0.388  12.535  0.1975  1.3915  0.6520
 4358TIP3    H234490   0.283   0.331  12.486 -0.3384 -0.6632  1.4591
 4359TIP3   OH234491   6.715   3.834   0.759  0.0631 -0.1316 -0.0714
 4359TIP3    H134492   6.740   3.922   0.731  0.8885 -0.5853 -0.8117
 4359TIP3    H234493   6.782   3.777   0.723 -0.2739 -1.0407  0.6838
 4360TIP3   OH234494   0.376   1.664   4.466 -0.6290 -0.6652 -0.1525
 4360TIP3    H134495   0.405   1.707   4.386 -1.7538  0.1256 -0.1594
 4360TIP3    H234496   0.318   1.594   4.436 -0.4854 -0.8323 -0.0462
 4361TIP3   OH234497   2.606   3.668   3.431 -0.2737  0.2883 -0.0886
 4361TIP3    H134498   2.516   3.646   3.454 -0.8781  3.4601  1.0772
 4361TIP3    H234499   2.636   3.594   3.378 -3.1819 -1.3516  0.3564
 4362TIP3   OH234500   4.192   1.779   2.815  0.2087  0.3062  0.1632
 4362TIP3    H134501   4.104   1.779   2.778  0.6848 -0.3002 -1.0323
 4362TIP3    H234502   4.243   1.837   2.758  0.4182  1.3097  1.3210
 4363TIP3   OH234503   0.116   6.558  16.456  0.0163 -0.0296  0.5743
 4363TIP3    H134504   0.053   6.543  16.527  0.5004 -2.4264  0.5666
 4363TIP3    H234505   0.114   6.477  16.405  2.7961 -0.0211  0.3367
 4364TIP3   OH234506   1.017   2.970  14.706 -0.4164  0.1906  0.1478
 4364TIP3    H134507   1.039   2.879  14.726  0.0734  0.3428  0.3376
 4364TIP3    H234508   1.097   3.019  14.727 -0.4206  0.5664 -0.6625
 4365TIP3   OH234509   2.377   3.454   1.260  0.2711  0.6548  0.3100
 4365TIP3    H134510   2.313   3.436   1.191  0.2888  1.9046 -0.0417
 4365TIP3    H234511   2.344   3.407   1.337 -0.0791 -0.2249 -0.3656
 4366TIP3   OH234512   3.969   2.772  15.219 -0.1667 -0.6604 -0.2468
 4366TIP3    H134513   3.911   2.697  15.207  1.0243 -1.8258  0.9363
 4366TIP3    H234514   4.007   2.786  15.132 -0.6993 -1.1640 -0.5712
 4367TIP3   OH234515   0.190   1.644   3.716  0.2182 -0.1359 -0.0246
 4367TIP3    H134516   0.122   1.639   3.649  1.3318 -1.1389 -1.1149
 4367TIP3    H234517   0.219   1.553   3.728  1.7341  0.3258  0.0264
 4368TIP3   OH234518   2.046   4.009   0.828 -0.2459  0.0887 -0.2712
 4368TIP3    H134519   2.033   3.986   0.920 -0.8187  0.4910 -0.2477
 4368TIP3    H234520   2.139   3.992   0.812  0.0067  0.6342  0.5573
 4369TIP3   OH234521   1.952   3.677  16.260 -0.2292 -0.2553  1.0911
 4369TIP3    H134522   1.894   3.640  16.326  1.0743 -1.1255  1.7849
 4369TIP3    H234523   1.960   3.608  16.194 -0.8605  0.2929  0.4255
 4370TIP3   OH234524   1.516   2.544  13.240 -0.2212  0.1967 -0.0703
 4370TIP3    H134525   1.530   2.543  13.145  0.2786 -2.7701 -0.0853
 4370TIP3    H234526   1.456   2.471  13.255 -1.5403  1.5877  1.7970
 4371TIP3   OH234527   6.141   3.758  17.163 -0.5737  0.5343 -0.4713
 4371TIP3    H134528   6.160   3.834  17.109 -0.8473  3.5296  3.2731
 4371TIP3    H234529   6.226   3.719  17.181  0.1878  2.6859  1.0275
 4372TIP3   OH234530   4.798   1.316   4.043 -0.0699 -0.6135  0.5548
 4372TIP3    H134531   4.794   1.318   4.139  0.4871  2.1625  0.6043
 4372TIP3    H234532   4.891   1.331   4.024 -0.0459 -1.9086 -0.4618
 4373TIP3   OH234533   2.631   3.553   5.570 -0.2987  0.1371  0.3765
 4373TIP3    H134534   2.584   3.494   5.512 -1.9992 -0.4823  2.2844
 4373TIP3    H234535   2.574   3.630   5.577  0.9274  1.1682 -0.4560
 4374TIP3   OH234536   1.862   3.075   0.696  0.2180 -0.4019  0.3193
 4374TIP3    H134537   1.949   3.115   0.694 -0.0252  0.4155  2.9428
 4374TIP3    H234538   1.831   3.088   0.786 -1.5490 -2.9981  0.2000
 4375TIP3   OH234539   0.031   4.959  12.535 -0.0921 -0.5660  0.2362
 4375TIP3    H134540   0.122   4.989  12.532 -0.1591 -0.1800  1.3070
 4375TIP3    H234541  -0.003   4.974  12.447  0.5052  0.5282  0.1744
 4376TIP3   OH234542   2.757   3.019  16.867 -0.2959 -0.1881  0.1762
 4376TIP3    H134543   2.732   2.982  16.783 -1.8670  1.2992 -0.0661
 4376TIP3    H234544   2.769   2.943  16.924  1.4652 -1.2630 -1.5051
 4377TIP3   OH234545   5.452   2.336   0.861  0.1023  1.0630 -0.5018
 4377TIP3    H134546   5.525   2.365   0.916  1.3620  0.8010 -1.9686
 4377TIP3    H234547   5.410   2.417   0.833  0.4174  1.2619 -0.4033
 4378TIP3   OH234548   1.941   2.090   3.332 -0.1258  1.0872  0.2382
 4378TIP3    H134549   2.002   2.067   3.402 -1.2659 -0.5035  0.7663
 4378TIP3    H234550   1.994   2.090   3.253  0.4365 -1.1470  0.5411
 4379TIP3   OH234551   4.566   4.190  15.475 -0.2924 -0.3186  0.1899
 4379TIP3    H134552   4.614   4.200  15.392  0.5546 -0.9034  0.5998
 4379TIP3    H234553   4.499   4.124  15.455 -0.5684  0.0783 -0.2263
 4380TIP3   OH234554   5.894   0.259   2.177 -0.1877 -0.2208 -0.3689
 4380TIP3    H134555   5.871   0.222   2.262 -0.6999 -2.2624 -1.3090
 4380TIP3    H234556   5.943   0.339   2.197 -0.1793 -0.7122  1.8201
 4381TIP3   OH234557   0.556   6.268  12.086  0.1759 -0.4355 -0.0962
 4381TIP3    H134558   0.501   6.253  12.010  0.5292  0.9251 -0.6532
 4381TIP3    H234559   0.530   6.355  12.117  0.7301 -0.5543  0.7415
 4382TIP3   OH234560   1.401   0.966   6.867  0.3345  0.5585  0.1660
 4382TIP3    H134561   1.454   0.891   6.892 -0.2581  0.6585  1.8652
 4382TIP3    H234562   1.339   0.932   6.802  0.5555 -0.2471  0.3756
 4383TIP3   OH234563   1.062   0.911   0.577 -0.8118 -0.4032 -0.1965
 4383TIP3    H134564   1.086   0.997   0.543  2.0761 -1.0133 -0.0182
 4383TIP3    H234565   1.040   0.859   0.500  0.7837 -0.3786 -0.7189
 4384TIP3   OH234566   3.472   3.419  14.184 -0.0397  0.3231  0.2822
 4384TIP3    H134567   3.545   3.480  14.196  3.5546 -3.0904 -1.6441
 4384TIP3    H234568   3.478   3.359  14.259  1.4477 -1.8920 -1.4725
 4385TIP3   OH234569   2.054   3.463  10.826 -0.7964 -0.0758 -0.3199
 4385TIP3    H134570   2.012   3.380  10.850 -0.7208 -0.6158 -1.9336
 4385TIP3    H234571   2.000   3.530  10.866 -0.6789 -0.8865  1.3113
 4386TIP3   OH234572   3.965   3.875  13.551 -0.2277  0.0551  0.0835
 4386TIP3    H134573   3.942   3.835  13.635  2.3777  1.2780  1.5119
 4386TIP3    H234574   3.934   3.965  13.558  1.8709  0.7816  0.6994
 4387TIP3   OH234575   4.143   4.135  11.754  0.2622 -0.4699  0.7255
 4387TIP3    H134576   4.154   4.041  11.770 -0.4729 -0.7997 -0.5644
 4387TIP3    H234577   4.122   4.172  11.840  0.5519 -1.4785  1.2448
 4388TIP3   OH234578   5.317   3.403  16.393  0.3384  0.1451  0.6034
 4388TIP3    H134579   5.226   3.432  16.404  0.2582 -0.7177  2.6401
 4388TIP3    H234580   5.369   3.472  16.432  0.5397  0.4136 -0.1318
 4389TIP3   OH234581   1.485   4.271   5.098 -0.4653  0.7982  0.2489
 4389TIP3    H134582   1.564   4.226   5.067 -2.1965 -2.0779 -0.4035
 4389TIP3    H234583   1.488   4.356   5.055  1.3811  0.0692 -1.2325
 4390TIP3   OH234584   0.341   6.117  14.653  0.2307 -0.0545  0.4836
 4390TIP3    H134585   0.268   6.128  14.592  1.8693  0.5027 -1.4763
 4390TIP3    H234586   0.347   6.200  14.699 -0.4773 -0.1738  0.8031
 4391TIP3   OH234587   0.487   2.979   0.430  0.4271 -0.0314  0.2885
 4391TIP3    H134588   0.559   2.943   0.481  0.6419 -1.0975 -0.7142
 4391TIP3    H234589   0.456   3.054   0.480  1.9000  0.1348  0.9778
 4392TIP3   OH234590   3.838   0.015  15.169  0.2740 -0.3961 -0.0530
 4392TIP3    H134591   3.863  -0.073  15.199 -3.0568 -1.2315  0.7192
 4392TIP3    H234592   3.860   0.072  15.242 -0.2753 -1.1066  0.6903
 4393TIP3   OH234593   4.999   3.746   0.708  0.0177  0.0626 -0.3469
 4393TIP3    H134594   4.986   3.682   0.638  2.2634 -1.5658  0.5960
 4393TIP3    H234595   5.066   3.707   0.764 -0.5835  1.9979  1.8805
 4394TIP3   OH234596   5.945   0.379  16.303 -0.1996 -0.0696 -0.4083
 4394TIP3    H134597   6.005   0.444  16.341 -1.3522 -0.0539  1.5222
 4394TIP3    H234598   5.895   0.429  16.239  0.9637  0.2110 -1.1344
 4395TIP3   OH234599   6.408   5.996   2.457 -0.5125  0.0781 -0.2992
 4395TIP3    H134600   6.429   5.936   2.385 -1.3902 -2.5383  1.4702
 4395TIP3    H234601   6.313   5.991   2.465 -0.3396 -0.7637  1.8423
 4396TIP3   OH234602   6.246   3.915  14.414  0.4621  0.2745 -0.2963
 4396TIP3    H134603   6.181   3.895  14.481  1.9196 -2.2119  0.5309
 4396TIP3    H234604   6.211   3.991  14.368 -1.6168  0.7686  1.9047
 4397TIP3   OH234605   4.830   4.778   1.021 -0.2730 -0.0798 -0.0571
 4397TIP3    H134606   4.807   4.686   1.005 -2.3754  0.4674 -0.5235
 4397TIP3    H234607   4.819   4.788   1.116  0.5943 -0.4523  0.0908
 4398TIP3   OH234608   0.020   2.857   3.195  0.0944  0.6485 -0.4178
 4398TIP3    H134609  -0.011   2.834   3.283  1.5346  0.3332  0.0187
 4398TIP3    H234610  -0.028   2.798   3.136 -1.3424  1.2790  0.0716
 4399TIP3   OH234611   5.087   0.267  15.563 -0.2334 -0.3795  0.1827
 4399TIP3    H134612   5.003   0.312  15.573 -0.3339 -0.5791  0.2262
 4399TIP3    H234613   5.065   0.175  15.555 -0.2337 -0.2148 -2.6901
 4400TIP3   OH234614   5.576   4.073  16.967  0.8850 -0.4699  0.3267
 4400TIP3    H134615   5.584   4.026  16.884  0.9445  1.2308 -0.6755
 4400TIP3    H234616   5.568   4.165  16.942  1.4208  0.1417  2.2315
 4401TIP3   OH234617   5.077   3.176   1.032 -0.0264  0.1279 -0.1104
 4401TIP3    H134618   5.134   3.141   0.964 -1.7241 -0.0194 -1.5293
 4401TIP3    H234619   5.034   3.099   1.070  0.0909  0.2977  0.3782
 4402TIP3   OH234620   1.018   4.289  13.318  0.0817  0.7338 -0.0880
 4402TIP3    H134621   1.039   4.196  13.323  0.7858  0.8943  0.0682
 4402TIP3    H234622   0.962   4.297  13.241 -0.2577  0.1330  0.0882
 4403TIP3   OH234623   0.756   3.082  13.388  0.0062 -0.0059  0.3142
 4403TIP3    H134624   0.820   3.057  13.455 -0.5820  0.7265  1.1802
 4403TIP3    H234625   0.774   3.024  13.315  1.5023  0.0082  0.6294
 4404TIP3   OH234626   0.421   5.785  14.344  0.5131 -0.2851  0.3167
 4404TIP3    H134627   0.477   5.709  14.329 -1.4481 -1.4439 -1.9081
 4404TIP3    H234628   0.375   5.766  14.425  1.1224 -0.7656  0.5514
 4405TIP3   OH234629   1.616   4.077   3.425  0.1389 -0.2676  0.2483
 4405TIP3    H134630   1.707   4.050   3.415 -0.2738 -1.3730 -0.8437
 4405TIP3    H234631   1.587   4.097   3.336 -1.1027 -1.4426  0.3464
 4406TIP3   OH234632   3.242   0.952  11.916  0.0729  0.3246 -0.1760
 4406TIP3    H134633   3.197   1.034  11.934  0.2314  0.6552 -1.2179
 4406TIP3    H234634   3.255   0.952  11.821 -0.1898 -1.0476 -0.2319
 4407TIP3   OH234635   3.355   6.022  16.287  0.0194 -0.3377 -0.0102
 4407TIP3    H134636   3.362   6.118  16.283  0.4267 -0.3635  0.0504
 4407TIP3    H234637   3.329   5.997  16.198  1.6808 -0.3048 -0.5387
 4408TIP3   OH234638   1.872   5.421  16.584 -0.2746 -0.2546  0.1877
 4408TIP3    H134639   1.901   5.341  16.626  1.0521 -0.0146 -0.2264
 4408TIP3    H234640   1.828   5.392  16.504  2.2132 -0.5562 -1.1691
 4409TIP3   OH234641   4.664   0.763   6.688  0.3113  0.4728 -0.6399
 4409TIP3    H134642   4.720   0.689   6.708  1.2159  1.9208  3.1033
 4409TIP3    H234643   4.723   0.830   6.653 -0.2689  0.0052 -2.6628
 4410TIP3   OH234644   4.813   3.526   2.301 -0.3296  0.7792  0.7346
 4410TIP3    H134645   4.861   3.454   2.260  0.1916  1.5788 -0.0801
 4410TIP3    H234646   4.726   3.524   2.261  0.0878  1.3826 -0.2220
 4411TIP3   OH234647   1.823   2.403   3.448  0.5630 -0.3347 -0.2558
 4411TIP3    H134648   1.806   2.310   3.434  1.0620 -0.1607 -2.3970
 4411TIP3    H234649   1.736   2.444   3.448  0.2346 -0.8747  1.9738
 4412TIP3   OH234650   4.231   5.874  11.842  0.3498 -0.0835 -0.4072
 4412TIP3    H134651   4.294   5.938  11.809  0.5539 -0.2425 -0.3308
 4412TIP3    H234652   4.148   5.899  11.802  0.7038 -0.6194 -1.5068
 4413TIP3   OH234653   2.214   2.990   5.654  0.1749 -0.3544  0.4267
 4413TIP3    H134654   2.186   3.078   5.630  0.7804  0.0205  1.0495
 4413TIP3    H234655   2.186   2.981   5.746  0.7597 -0.5330  0.5889
 4414TIP3   OH234656   5.434   5.919   5.203  0.4124  0.4859  0.1743
 4414TIP3    H134657   5.493   5.902   5.130  0.3500 -0.8540  0.4124
 4414TIP3    H234658   5.404   5.832   5.231 -2.5175  1.1313 -0.6322
 4415TIP3   OH234659   4.829   4.088   0.664  0.1179  0.4944  0.4337
 4415TIP3    H134660   4.770   4.143   0.613  1.1378  0.9138 -0.3345
 4415TIP3    H234661   4.853   4.140   0.740 -0.5436  0.2953  0.7835
 4416TIP3   OH234662   1.255   1.858  13.748 -0.2682 -0.5417  0.4898
 4416TIP3    H134663   1.269   1.767  13.777 -0.3861 -1.6794 -2.6649
 4416TIP3    H234664   1.223   1.850  13.659 -2.2726  2.6149  0.7733
 4417TIP3   OH234665   3.173   4.734   3.503 -0.1055 -0.3237  0.5636
 4417TIP3    H134666   3.173   4.769   3.414  2.2395 -0.1133  0.5930
 4417TIP3    H234667   3.110   4.789   3.550  1.9633  2.6412  0.1250
 4418TIP3   OH234668   1.515   5.038  15.934  0.3128  0.7079  0.4470
 4418TIP3    H134669   1.496   5.004  15.847 -1.0512  2.2911  0.0572
 4418TIP3    H234670   1.492   4.967  15.994 -0.4749  0.2190 -0.4099
 4419TIP3   OH234671   4.851   6.424  11.675 -0.0198 -0.0458  0.2578
 4419TIP3    H134672   4.862   6.516  11.651 -1.8810  0.3826  0.9142
 4419TIP3    H234673   4.757   6.412  11.685  0.2971 -1.5148  2.1331
 4420TIP3   OH234674   0.164   1.435   0.456  0.1596 -0.3175  0.1381
 4420TIP3    H134675   0.153   1.345   0.488  1.6799 -1.2642 -1.8097
 4420TIP3    H234676   0.251   1.461   0.487 -0.0211  0.2797  0.1612
 4421TIP3   OH234677   1.743   5.858  14.169  0.2296  0.3177 -0.2563
 4421TIP3    H134678   1.792   5.928  14.126 -0.4112  0.7097 -0.3687
 4421TIP3    H234679   1.783   5.777  14.137  0.2500  0.6124 -0.9951
 4422TIP3   OH234680   5.352   4.694  14.479 -0.1223 -0.5660  0.4294
 4422TIP3    H134681   5.402   4.762  14.524  0.4926 -1.1984  0.7096
 4422TIP3    H234682   5.360   4.717  14.386 -1.5448  0.8423  0.6077
 4423TIP3   OH234683   4.873   2.213   1.260  0.5849 -0.5183  0.2448
 4423TIP3    H134684   4.948   2.248   1.211 -0.8018  0.6290 -1.1702
 4423TIP3    H234685   4.839   2.144   1.204  1.5246 -2.2197  1.6653
 4424TIP3   OH234686   6.375   1.354  15.972 -0.1897 -0.8943 -0.5845
 4424TIP3    H134687   6.357   1.331  15.881  0.7337 -2.9771 -0.2921
 4424TIP3    H234688   6.446   1.295  15.998  1.0454  1.1150  0.8660
 4425TIP3   OH234689   5.955   4.255  15.369 -0.0841  0.2151 -0.4097
 4425TIP3    H134690   5.876   4.230  15.416  0.1594 -0.5701 -0.4004
 4425TIP3    H234691   5.932   4.248  15.277 -0.1577  0.4152 -0.4061
 4426TIP3   OH234692   6.597   0.724   5.395 -0.3904 -0.2042  0.8566
 4426TIP3    H134693   6.528   0.667   5.360 -1.4064  1.8466 -0.7369
 4426TIP3    H234694   6.584   0.722   5.490 -1.0143 -1.8038  0.7722
 4427TIP3   OH234695   4.209   2.766   2.789  0.2578  0.0528 -0.4979
 4427TIP3    H134696   4.250   2.831   2.845 -0.3507  0.8804 -0.9886
 4427TIP3    H234697   4.208   2.686   2.842  0.7192  0.5213  0.2360
 4428TIP3   OH234698   4.167   3.109  13.454  0.2004 -0.3255 -0.3242
 4428TIP3    H134699   4.206   3.044  13.394  0.0083 -0.8005  0.0557
 4428TIP3    H234700   4.166   3.065  13.539 -1.1562 -0.3269 -0.3201
 4429TIP3   OH234701   1.423   0.717   3.138  0.3738 -0.3948  0.0142
 4429TIP3    H134702   1.422   0.627   3.171  1.2034 -0.2578  0.4677
 4429TIP3    H234703   1.340   0.728   3.093 -0.0006 -1.1924  0.4932
 4430TIP3   OH234704   2.222   0.115  11.302  0.0198  0.3410 -0.4008
 4430TIP3    H134705   2.165   0.039  11.295 -0.3882  0.6781 -0.7359
 4430TIP3    H234706   2.307   0.085  11.271 -0.4049  0.3119 -1.5655
 4431TIP3   OH234707   2.870   6.403  15.877  0.0310 -0.6518  0.0151
 4431TIP3    H134708   2.939   6.347  15.912 -0.9972 -1.7728  0.3041
 4431TIP3    H234709   2.801   6.343  15.852 -0.9727  0.4715  0.0074
 4432TIP3   OH234710   2.879   0.321   2.384 -0.4247  0.2688 -0.4856
 4432TIP3    H134711   2.869   0.226   2.387 -0.3803  0.2765  1.9500
 4432TIP3    H234712   2.818   0.354   2.450  0.6521  1.8139 -0.2043
 4433TIP3   OH234713   2.045   6.000   6.813 -0.3232  0.3815  0.3014
 4433TIP3    H134714   2.057   5.991   6.718  1.2096  1.8528  0.3193
 4433TIP3    H234715   1.989   6.078   6.822 -0.3628  0.3152  0.6185
 4434TIP3   OH234716   1.229   3.648  15.897 -0.2876  0.5586 -0.6552
 4434TIP3    H134717   1.302   3.706  15.915 -0.0955  0.5700 -1.4254
 4434TIP3    H234718   1.157   3.682  15.949  0.9631 -1.1166  2.4020
 4435TIP3   OH234719   1.945   5.724  13.767  0.4429  0.4183 -0.0822
 4435TIP3    H134720   2.021   5.780  13.749  1.1800  0.1510  1.8985
 4435TIP3    H234721   1.981   5.652  13.820 -1.6395  2.2627  4.3749
 4436TIP3   OH234722   0.791   6.485   4.826 -0.7034 -0.2926 -0.4056
 4436TIP3    H134723   0.814   6.394   4.847  3.5035  0.5143 -0.6603
 4436TIP3    H234724   0.733   6.512   4.897 -0.3722 -2.5760  0.8245
 4437TIP3   OH234725   1.789   4.706   6.120  0.0975  0.3146  0.3196
 4437TIP3    H134726   1.825   4.770   6.059  0.6603  1.2256  1.5671
 4437TIP3    H234727   1.773   4.629   6.067  0.3644  1.1482 -1.0199
 4438TIP3   OH234728   3.325   1.808  14.755  0.0820 -0.0398  0.3807
 4438TIP3    H134729   3.239   1.813  14.712 -0.1161  3.7563  0.8332
 4438TIP3    H234730   3.308   1.760  14.836 -1.8312  1.1436  0.7583
 4439TIP3   OH234731   4.601   5.408  14.594 -0.4357  0.1504 -0.5603
 4439TIP3    H134732   4.619   5.494  14.631 -0.2640  0.2741 -0.9272
 4439TIP3    H234733   4.630   5.414  14.503 -2.5391  0.4626 -1.2841
 4440TIP3   OH234734   6.138   0.739   2.671 -0.1912 -0.5279 -0.4535
 4440TIP3    H134735   6.048   0.772   2.662  0.4739  1.9433  1.1126
 4440TIP3    H234736   6.144   0.711   2.762  0.3934 -1.4911 -0.7828
 4441TIP3   OH234737   2.195   5.491   3.846 -0.0561 -0.0842  0.4781
 4441TIP3    H134738   2.124   5.516   3.786 -2.4224 -3.6906  1.4826
 4441TIP3    H234739   2.172   5.533   3.929 -0.3789 -0.2877  0.4947
 4442TIP3   OH234740   1.253   4.201   5.946 -0.4608 -0.5327 -0.4109
 4442TIP3    H134741   1.329   4.159   5.987 -1.0505  0.8523  2.3801
 4442TIP3    H234742   1.220   4.136   5.884 -0.3291 -3.5236  2.4026
 4443TIP3   OH234743   4.219   4.952   5.684 -0.1388  0.0489  0.3879
 4443TIP3    H134744   4.276   4.916   5.752 -1.3505 -0.0381  1.4118
 4443TIP3    H234745   4.171   5.022   5.729 -1.9857 -0.9329  0.0415
 4444TIP3   OH234746   5.134   6.647   3.287 -0.0737 -0.3153 -0.5424
 4444TIP3    H134747   5.159   6.564   3.248  0.3010  0.1868 -1.4080
 4444TIP3    H234748   5.097   6.697   3.215 -1.8839 -0.3351  0.3098
 4445TIP3   OH234749   5.467   2.593   0.643 -0.6761 -0.3888 -0.3277
 4445TIP3    H134750   5.495   2.550   0.563 -0.4062 -0.0488 -0.4208
 4445TIP3    H234751   5.373   2.610   0.630 -0.8639 -1.2644 -0.1383
 4446TIP3   OH234752   4.401   4.021  16.636  1.1496 -0.2602 -0.2311
 4446TIP3    H134753   4.381   3.967  16.560  3.2585 -2.4370  0.6043
 4446TIP3    H234754   4.316   4.042  16.674  0.1858 -2.4762 -1.0086
 4447TIP3   OH234755   5.076   2.207  10.974 -0.0917  0.2095 -0.2158
 4447TIP3    H134756   4.989   2.247  10.961 -0.0400  0.5210  0.3346
 4447TIP3    H234757   5.079   2.135  10.912 -0.1760  1.0844 -1.2715
 4448TIP3   OH234758   6.366   6.004  16.437  0.1982  0.0461 -0.2907
 4448TIP3    H134759   6.423   6.073  16.404 -0.9167  0.1505 -2.1079
 4448TIP3    H234760   6.425   5.945  16.485  1.5170  1.0841 -0.5990
 4449TIP3   OH234761   0.815   6.010  11.950  0.8240  0.1324  0.1907
 4449TIP3    H134762   0.804   6.026  11.856  0.7103 -1.5880 -0.1214
 4449TIP3    H234763   0.826   5.915  11.957  1.0714  0.2557  1.9043
 4450TIP3   OH234764   6.657   0.141  16.815 -0.6935  0.0895 -0.2782
 4450TIP3    H134765   6.716   0.137  16.740  0.4860 -0.4774  0.6415
 4450TIP3    H234766   6.613   0.056  16.816  2.3986 -1.7059  2.0171
 4451TIP3   OH234767   4.669   1.726  11.681 -0.1895 -0.1958  0.0810
 4451TIP3    H134768   4.620   1.742  11.600 -1.3531  1.5948  1.0754
 4451TIP3    H234769   4.623   1.655  11.724 -0.8204  0.2498  0.1466
 4452TIP3   OH234770   6.305   2.066   2.857 -0.2368 -0.0495  0.0190
 4452TIP3    H134771   6.295   1.980   2.816 -0.3056  0.6064 -1.4142
 4452TIP3    H234772   6.354   2.049   2.938  0.1256 -1.3785 -0.4543
 4453TIP3   OH234773   1.042   6.167  13.404  0.1277 -0.2726  0.5595
 4453TIP3    H134774   1.124   6.216  13.410  1.1469 -1.7951 -0.1935
 4453TIP3    H234775   1.059   6.086  13.452 -0.7855 -0.7843  0.0432
 4454TIP3   OH234776   0.648   0.390  11.176  0.0895 -0.0599  0.3758
 4454TIP3    H134777   0.566   0.414  11.132  0.1686 -0.3618  0.0592
 4454TIP3    H234778   0.622   0.361  11.263 -0.3505 -2.0373 -0.3731
 4455TIP3   OH234779   0.709   3.876   0.358 -0.1108  0.2634  0.5842
 4455TIP3    H134780   0.691   3.872   0.264  1.5300 -0.7665  0.2617
 4455TIP3    H234781   0.747   3.963   0.371 -0.5212  0.4833  0.3333
 4456TIP3   OH234782   1.584   2.183  14.633 -0.3887  0.3187 -0.3874
 4456TIP3    H134783   1.579   2.279  14.631  1.1470  0.4553  0.4598
 4456TIP3    H234784   1.644   2.164  14.705  1.2252 -1.1767 -2.0126
 4457TIP3   OH234785   0.504   4.130  14.029  0.3504 -0.1824  0.6727
 4457TIP3    H134786   0.442   4.155  14.098  0.3306  0.3293  0.4679
 4457TIP3    H234787   0.479   4.040  14.006 -1.0061  0.4011 -0.1728
 4458TIP3   OH234788   0.940   1.031   5.253 -0.6366 -0.3028 -0.2968
 4458TIP3    H134789   1.009   1.093   5.229 -0.7408  1.5889  3.6047
 4458TIP3    H234790   0.868   1.051   5.193  0.1444  1.7678 -0.6188
 4459TIP3   OH234791   2.205   5.734   4.432  0.4015 -0.0673 -0.5445
 4459TIP3    H134792   2.260   5.792   4.484 -1.0157  1.1723 -0.3571
 4459TIP3    H234793   2.231   5.749   4.342  0.3340  0.5535 -0.4604
 4460TIP3   OH234794   2.520   3.401  14.360  0.0744  0.7488  0.4648
 4460TIP3    H134795   2.575   3.475  14.384 -0.0543  1.4662 -1.2882
 4460TIP3    H234796   2.521   3.401  14.264 -1.2963 -0.4968  0.4221
 4461TIP3   OH234797   4.160   1.936  13.379  0.0076 -0.0897  0.2871
 4461TIP3    H134798   4.246   1.896  13.365  0.7881  1.3341  0.7286
 4461TIP3    H234799   4.125   1.949  13.291  1.0679  0.9652 -0.0132
 4462TIP3   OH234800   0.296   3.024  16.100 -0.2141 -0.5943  0.0601
 4462TIP3    H134801   0.227   2.978  16.148 -0.9665  0.5303  0.0929
 4462TIP3    H234802   0.376   2.977  16.123 -0.6237 -0.4410  1.9772
 4463TIP3   OH234803   3.978   6.197   0.835 -0.1855  0.0514 -0.2293
 4463TIP3    H134804   4.012   6.286   0.837 -1.8639  0.7122  0.9464
 4463TIP3    H234805   3.979   6.168   0.926 -1.1877 -0.5003 -0.3776
 4464TIP3   OH234806   4.943   6.755  12.032 -0.5225  0.2761  0.1239
 4464TIP3    H134807   4.868   6.804  12.064 -1.4515 -0.5435 -0.7443
 4464TIP3    H234808   4.910   6.666  12.019  0.8653 -0.3511  0.7044
 4465TIP3   OH234809   4.724   0.738   2.459 -0.3251  0.8381 -0.0398
 4465TIP3    H134810   4.640   0.723   2.504  0.4577  1.4558  1.7302
 4465TIP3    H234811   4.790   0.719   2.526  0.8774  3.1592 -0.4993
 4466TIP3   OH234812   5.324   6.676  13.683 -0.3058  0.5754 -0.5290
 4466TIP3    H134813   5.285   6.603  13.732  0.1627  0.5384 -0.2095
 4466TIP3    H234814   5.329   6.747  13.747 -1.1219  1.0208 -0.9431
 4467TIP3   OH234815   4.051   1.009   5.634 -0.0011  0.4365 -0.0244
 4467TIP3    H134816   3.990   1.026   5.563 -0.3127 -2.2375 -0.5060
 4467TIP3    H234817   4.005   0.948   5.692  2.0221 -1.4731 -0.2718
 4468TIP3   OH234818   5.731   4.135  16.559 -0.0029  0.0819  0.3377
 4468TIP3    H134819   5.712   4.226  16.535  0.6894 -0.0948 -0.9799
 4468TIP3    H234820   5.826   4.127  16.549 -0.1276 -0.9378 -0.1480
 4469TIP3   OH234821   1.872   6.420  16.910  0.0652  0.3560 -0.3328
 4469TIP3    H134822   1.785   6.452  16.887 -1.4567 -1.7937  1.8952
 4469TIP3    H234823   1.901   6.370  16.834 -2.5782 -2.4102  0.3161
 4470TIP3   OH234824   4.608   2.545  10.529 -0.6583  0.6987 -0.6516
 4470TIP3    H134825   4.686   2.568  10.480  0.1845  0.9509  0.7660
 4470TIP3    H234826   4.595   2.617  10.591 -1.4344  0.1907 -0.2004
 4471TIP3   OH234827   0.911   3.848  13.074 -0.1789 -0.0490 -0.0125
 4471TIP3    H134828   0.827   3.879  13.041  0.3781  2.4299  0.6698
 4471TIP3    H234829   0.955   3.811  12.997 -1.4458 -0.3715 -0.5927
 4472TIP3   OH234830   5.365   2.546  14.147 -0.8957 -0.1953 -0.4150
 4472TIP3    H134831   5.422   2.493  14.204 -1.3613  1.5331  1.7817
 4472TIP3    H234832   5.425   2.603  14.099 -0.4988 -1.6546 -1.7294
 4473TIP3   OH234833   4.187   6.538   2.924 -0.1182 -0.0248 -0.6787
 4473TIP3    H134834   4.096   6.566   2.928 -0.2258 -0.4229 -0.3839
 4473TIP3    H234835   4.237   6.618   2.940 -0.4137  0.1841 -0.7900
 4474TIP3   OH234836   1.506   5.744  11.707 -0.3213 -0.3903  0.3324
 4474TIP3    H134837   1.474   5.682  11.641 -0.1499  0.2311 -0.3373
 4474TIP3    H234838   1.574   5.695  11.753 -0.5436 -0.8813  0.1515
 4475TIP3   OH234839   4.432   1.470  14.115  0.0231 -0.3536  0.2923
 4475TIP3    H134840   4.516   1.516  14.114  0.7084 -1.5030  1.5993
 4475TIP3    H234841   4.446   1.393  14.061 -1.6374  1.6171 -3.3739
 4476TIP3   OH234842   6.386   2.180  16.150 -0.6280 -0.1575  0.5969
 4476TIP3    H134843   6.440   2.189  16.228  0.8748  0.4487 -0.4617
 4476TIP3    H234844   6.424   2.106  16.102 -0.5943  0.3933 -0.2608
 4477TIP3   OH234845   5.541   4.466  13.753  0.4270  0.2214 -1.0068
 4477TIP3    H134846   5.630   4.476  13.719  0.6971  2.2537  0.1379
 4477TIP3    H234847   5.548   4.396  13.817  1.9192  2.1696  1.1177
 4478TIP3   OH234848   4.428   6.662   3.061  0.2849 -0.0409  0.3161
 4478TIP3    H134849   4.447   6.755   3.046  2.4476 -0.3458  0.8539
 4478TIP3    H234850   4.478   6.616   2.994 -1.3622 -0.8387 -0.4355
 4479TIP3   OH234851   2.726   0.438   2.577  0.2621  0.3443 -0.5787
 4479TIP3    H134852   2.679   0.518   2.600  1.0662  0.3829  1.1641
 4479TIP3    H234853   2.667   0.367   2.604  0.0241  0.3525 -1.0667
 4480TIP3   OH234854   6.175   2.668   0.071  0.1478 -0.4854  0.2021
 4480TIP3    H134855   6.150   2.637  -0.016  2.5979 -1.3646 -0.2855
 4480TIP3    H234856   6.206   2.758   0.057 -0.2486 -0.3309  0.3173
 4481TIP3   OH234857   3.003   4.575  15.673  0.4274 -0.3461  0.3150
 4481TIP3    H134858   2.975   4.565  15.764  1.4918  0.6258  0.7770
 4481TIP3    H234859   3.089   4.533  15.669  1.0641  0.9191  0.1556
 4482TIP3   OH234860   3.591   5.528   4.910 -0.3663  0.1476 -0.3056
 4482TIP3    H134861   3.609   5.605   4.856 -0.5661  0.8239  0.5699
 4482TIP3    H234862   3.640   5.543   4.990 -2.2969  0.5366  0.8637
 4483TIP3   OH234863   6.283   4.786   2.171  0.4484 -0.2069  0.4784
 4483TIP3    H134864   6.314   4.733   2.098  0.2408  0.5563 -0.1791
 4483TIP3    H234865   6.271   4.874   2.134 -2.2324 -0.3680  0.7261
 4484TIP3   OH234866   6.617   6.574  12.905  0.6697 -0.0490 -0.1862
 4484TIP3    H134867   6.618   6.646  12.842  0.2426 -0.7575 -1.0278
 4484TIP3    H234868   6.526   6.569  12.934  1.0139  0.8043  1.1462
 4485TIP3   OH234869   5.210   1.994  13.551  0.1149 -0.1963  0.2762
 4485TIP3    H134870   5.236   2.081  13.580 -1.7648  0.7402 -0.6599
 4485TIP3    H234871   5.286   1.961  13.503  0.2336  1.7381 -0.9945
 4486TIP3   OH234872   2.141   5.565  11.663 -0.6682  0.5534  0.2203
 4486TIP3    H134873   2.086   5.493  11.632 -3.5773  2.0369  1.5575
 4486TIP3    H234874   2.178   5.604  11.584 -1.9760 -0.1869 -0.7783
 4487TIP3   OH234875   5.430   4.483   6.217  0.3177 -0.0682  0.3911
 4487TIP3    H134876   5.357   4.477   6.154  0.3796 -0.2429  0.3375
 4487TIP3    H234877   5.402   4.431   6.292  0.0933  0.4255  0.6568
 4488TIP3   OH234878   2.501   5.383  15.899  0.2101  0.2485  0.1803
 4488TIP3    H134879   2.524   5.464  15.853 -1.6774  1.5049  1.2940
 4488TIP3    H234880   2.484   5.411  15.989  0.7036 -1.6194  0.9031
 4489TIP3   OH234881   0.555   0.736  11.848  0.2032  0.1315 -0.6986
 4489TIP3    H134882   0.526   0.692  11.928  1.6661 -0.7932 -0.6368
 4489TIP3    H234883   0.491   0.806  11.835 -0.2498  0.1121  1.0999
 4490TIP3   OH234884   2.908   5.350   3.422 -0.2674 -0.2767 -0.0505
 4490TIP3    H134885   2.968   5.419   3.451 -0.5652 -0.4899  1.1476
 4490TIP3    H234886   2.848   5.338   3.496 -0.2977 -1.7222 -0.2713
 4491TIP3   OH234887   4.019   4.631  13.155  0.2683 -0.0556 -0.0853
 4491TIP3    H134888   3.958   4.704  13.152  0.3491  0.0154  0.0098
 4491TIP3    H234889   4.005   4.591  13.240  0.9697  0.4898  0.3025
 4492TIP3   OH234890   4.540   0.774   2.243  0.3849  0.1294 -0.0825
 4492TIP3    H134891   4.537   0.870   2.238  2.4800  0.2610  0.0499
 4492TIP3    H234892   4.607   0.756   2.309  0.1930 -1.4242 -0.2786
 4493TIP3   OH234893   3.266   4.374  16.247  0.0417  0.1359 -0.7516
 4493TIP3    H134894   3.355   4.397  16.221  0.3751 -1.5130 -1.1566
 4493TIP3    H234895   3.265   4.386  16.342  0.7697 -0.0947 -0.7088
 4494TIP3   OH234896   5.611   4.993   5.632  0.0854 -0.1877 -0.1915
 4494TIP3    H134897   5.689   4.951   5.669  0.0946  0.5035  0.5882
 4494TIP3    H234898   5.645   5.048   5.562 -0.0688 -2.6553 -2.3670
 4495TIP3   OH234899   6.729   2.759  12.991 -0.3085 -0.3728 -0.4000
 4495TIP3    H134900   6.724   2.669  13.024  0.4859 -0.4399 -0.4400
 4495TIP3    H234901   6.676   2.758  12.911 -2.7092 -0.0822  1.0867
 4496TIP3   OH234902   3.838   4.118  16.967  0.1539  0.1147 -0.6871
 4496TIP3    H134903   3.880   4.125  17.053 -0.2768 -1.4711 -0.3264
 4496TIP3    H234904   3.755   4.164  16.977  0.3641  0.4502 -0.4450
 4497TIP3   OH234905   3.191   3.196   4.999  0.8782 -0.2239 -0.4600
 4497TIP3    H134906   3.172   3.188   4.906 -0.1349 -0.0983 -0.2729
 4497TIP3    H234907   3.231   3.283   5.007 -0.8940  0.6293 -0.5068
 4498TIP3   OH234908   0.017   4.715   2.985  0.2058 -0.1719  0.1985
 4498TIP3    H134909   0.010   4.768   2.906  1.4972  2.4576  1.7037
 4498TIP3    H234910  -0.074   4.695   3.008 -0.2095 -0.5657 -1.6299
 4499TIP3   OH234911   3.473   6.301   0.772 -0.1287  1.0580 -0.6036
 4499TIP3    H134912   3.442   6.276   0.859  1.9510  1.1509  0.2204
 4499TIP3    H234913   3.568   6.302   0.780  0.3009 -1.2436 -3.4814
 4500TIP3   OH234914   6.767   0.969   5.609  0.3328 -0.1272 -0.1277
 4500TIP3    H134915   6.764   0.881   5.646 -0.5327 -0.7256 -1.5488
 4500TIP3    H234916   6.681   1.006   5.630  0.0130 -0.3005 -1.0608
 4501TIP3   OH234917   4.411   5.232   3.426 -0.2729  0.2157  0.2526
 4501TIP3    H134918   4.440   5.236   3.335 -0.3298  2.7497  0.2855
 4501TIP3    H234919   4.482   5.274   3.475 -2.0172  2.6363  0.8407
 4502TIP3   OH234920   2.591   4.739  10.386  0.1923 -0.2434 -0.6807
 4502TIP3    H134921   2.607   4.675  10.454 -2.2551 -0.1079  0.1149
 4502TIP3    H234922   2.650   4.812  10.407 -0.6841 -0.0858  1.4988
 4503TIP3   OH234923   6.387   5.679  11.007  0.5147 -0.2278 -0.2393
 4503TIP3    H134924   6.467   5.629  10.995  0.8817  0.3097 -0.0407
 4503TIP3    H234925   6.349   5.644  11.088  0.0478 -1.1397 -0.8291
 4504TIP3   OH234926   4.086   5.296  13.713  0.0787  0.2779  0.6647
 4504TIP3    H134927   4.088   5.389  13.692  0.1450  0.0390 -0.4480
 4504TIP3    H234928   4.073   5.293  13.808  2.1417  1.4469  1.0437
 4505TIP3   OH234929   3.027   3.675  15.409 -0.6517 -0.7174  0.4732
 4505TIP3    H134930   3.065   3.689  15.496 -0.1132 -0.1334  0.1540
 4505TIP3    H234931   3.055   3.752  15.358 -0.1118 -1.5395 -0.5027
 4506TIP3   OH234932   2.132   5.888   4.165  0.5392 -0.1863  0.4870
 4506TIP3    H134933   2.219   5.905   4.202 -0.2938  2.7438  1.3467
 4506TIP3    H234934   2.078   5.960   4.196 -1.3983 -0.0191 -2.7757
 4507TIP3   OH234935   0.456   5.847   4.235  0.1112 -0.1822  0.3492
 4507TIP3    H134936   0.433   5.902   4.160  1.6425 -0.4157 -0.3293
 4507TIP3    H234937   0.390   5.777   4.234 -0.8098  0.6591  0.1729
 4508TIP3   OH234938   5.779   5.566  15.634 -1.1149  0.8733 -0.0571
 4508TIP3    H134939   5.812   5.546  15.722 -0.5335 -0.2106 -0.5087
 4508TIP3    H234940   5.852   5.608  15.589 -1.2656  1.0155 -0.1720
 4509TIP3   OH234941   3.066   4.426   3.478 -0.4727 -0.2662  0.1577
 4509TIP3    H134942   3.150   4.397   3.442 -0.7870 -1.3037  0.2098
 4509TIP3    H234943   3.084   4.512   3.514  0.5181 -0.3719 -0.0395
 4510TIP3   OH234944   3.378   4.796  16.215 -0.4052  0.5394  0.5824
 4510TIP3    H134945   3.371   4.889  16.236  0.2522  0.8456 -0.5243
 4510TIP3    H234946   3.321   4.784  16.139  0.4671  0.3021 -0.0501
 4511TIP3   OH234947   5.760   1.715   5.671  0.3864 -0.2418 -0.3662
 4511TIP3    H134948   5.801   1.651   5.613 -0.0466 -1.5599  0.7340
 4511TIP3    H234949   5.799   1.697   5.757  0.0318  0.7910  0.0228
 4512TIP3   OH234950   5.048   5.058   0.569  0.3291  0.0645 -0.1080
 4512TIP3    H134951   5.000   5.048   0.652  0.0406 -1.7442 -0.4610
 4512TIP3    H234952   5.080   5.148   0.571 -2.2152  1.0511  0.6225
 4513TIP3   OH234953   6.346   0.553   5.321 -0.0324  0.2726 -0.2019
 4513TIP3    H134954   6.314   0.514   5.402 -1.3996  0.8117 -0.4591
 4513TIP3    H234955   6.272   0.547   5.260  1.2769 -1.0392 -1.7538
 4514TIP3   OH234956   4.748   4.258   4.414 -0.4028 -0.8265 -0.3282
 4514TIP3    H134957   4.727   4.302   4.497 -1.5369 -1.5763 -0.1928
 4514TIP3    H234958   4.829   4.300   4.385 -1.0346  0.8454  0.1640
 4515TIP3   OH234959   6.115   0.646   5.876 -0.3230  0.2391 -0.1815
 4515TIP3    H134960   6.140   0.637   5.784  2.6844 -2.6047  0.7131
 4515TIP3    H234961   6.177   0.711   5.910  0.3347 -0.6433  0.3328
 4516TIP3   OH234962   3.833   3.389  15.893  0.1233  0.4289  0.4861
 4516TIP3    H134963   3.838   3.482  15.871 -2.2626  0.6936  0.7669
 4516TIP3    H234964   3.740   3.373  15.906  0.4284 -2.1210  0.0248
 4517TIP3   OH234965   1.339   6.656  14.729  0.4029  0.1918 -0.4104
 4517TIP3    H134966   1.280   6.707  14.673  1.9242  1.7083 -0.7177
 4517TIP3    H234967   1.320   6.565  14.708 -0.8715  0.6723 -1.4849
 4518TIP3   OH234968   6.136   3.964   6.495 -0.3512 -0.2440  0.6649
 4518TIP3    H134969   6.107   3.900   6.560 -0.5586 -0.8051  0.0445
 4518TIP3    H234970   6.066   3.964   6.430  0.9991 -1.6786 -0.9022
 4519TIP3   OH234971   5.249   3.625   3.743 -0.1513 -0.2776 -0.0309
 4519TIP3    H134972   5.301   3.577   3.807  2.1992  2.4977  0.3118
 4519TIP3    H234973   5.164   3.638   3.786  0.1753 -1.4676  1.0420
 4520TIP3   OH234974   2.261   5.537   0.616  0.4848 -0.4300  0.3862
 4520TIP3    H134975   2.307   5.506   0.694  0.3091 -2.0041 -0.1180
 4520TIP3    H234976   2.330   5.551   0.551  0.4697 -0.6330  0.3274
 4521TIP3   OH234977   1.859   6.162   5.041  0.1023 -0.3191 -0.3716
 4521TIP3    H134978   1.798   6.088   5.035 -0.3373 -0.1573  1.5414
 4521TIP3    H234979   1.802   6.239   5.043  0.4188 -0.1054  0.4640
 4522TIP3   OH234980   6.574   4.608   3.028 -0.6107  0.1290 -0.7314
 4522TIP3    H134981   6.536   4.600   2.941  0.5898 -0.5648 -1.2282
 4522TIP3    H234982   6.549   4.527   3.073  0.6171 -0.5351 -1.2144
 4523TIP3   OH234983   3.154   5.977   1.768  0.2227 -0.1874 -0.4855
 4523TIP3    H134984   3.105   5.993   1.687 -0.0107  0.0684 -0.2928
 4523TIP3    H234985   3.237   5.938   1.738  0.1583 -0.0484 -0.8488
 4524TIP3   OH234986   6.681   2.122   2.991  0.6149 -0.4364 -0.0850
 4524TIP3    H134987   6.699   2.203   2.943 -1.1586  0.2761  0.3840
 4524TIP3    H234988   6.754   2.114   3.052  1.3018  0.2882 -0.7734
 4525TIP3   OH234989   4.571   0.918   0.500 -0.1327  0.7528 -0.1028
 4525TIP3    H134990   4.498   0.933   0.561 -0.0808  0.9151 -0.0792
 4525TIP3    H234991   4.629   0.858   0.547 -1.2077 -0.9626 -0.8950
 4526TIP3   OH234992   5.886   5.812  12.327  0.5887  0.0847 -0.4877
 4526TIP3    H134993   5.915   5.817  12.236  0.7404  2.6136 -0.3758
 4526TIP3    H234994   5.839   5.894  12.342 -1.0489 -1.0694  1.2106
 4527TIP3   OH234995   6.074   3.208   4.127 -0.1544  0.2358 -0.3487
 4527TIP3    H134996   5.981   3.229   4.134 -0.2092 -0.6262  3.8022
 4527TIP3    H234997   6.119   3.280   4.171  0.9072 -0.6633  0.1022
 4528TIP3   OH234998   5.797   0.359  15.221 -0.1299 -0.0577 -0.9164
 4528TIP3    H134999   5.741   0.320  15.289  0.5572 -0.3668 -0.5144
 4528TIP3    H235000   5.876   0.305  15.222  0.9179  1.4297 -0.2278
 4529TIP3   OH235001   6.268   5.756  12.183  0.1032 -0.2487  0.0312
 4529TIP3    H135002   6.327   5.810  12.130  1.3407 -1.0899  0.5186
 4529TIP3    H235003   6.286   5.666  12.156 -1.5066 -0.5023 -0.3302
 4530TIP3   OH235004   3.061   1.597  15.732 -0.0693 -0.1004  0.1835
 4530TIP3    H135005   3.139   1.584  15.678 -0.1829  1.5550 -0.4526
 4530TIP3    H235006   2.989   1.599  15.670 -0.1530  2.3501  0.2353
 4531TIP3   OH235007   0.000   1.109  12.989 -0.5502  0.4297  0.2605
 4531TIP3    H135008  -0.033   1.169  13.056 -0.0221 -0.3513  1.2674
 4531TIP3    H235009   0.065   1.056  13.035 -0.5239 -0.4626 -0.7592
 4532TIP3   OH235010   4.672   0.741   5.624  0.4408  0.1306 -0.6764
 4532TIP3    H135011   4.759   0.709   5.603  1.6227  2.7134 -0.0101
 4532TIP3    H235012   4.677   0.764   5.717 -1.4661 -1.1293 -0.1973
 4533TIP3   OH235013   4.652   0.272  14.495  0.7334 -0.0225 -0.2405
 4533TIP3    H135014   4.713   0.267  14.569 -0.6592 -1.6587  0.8657
 4533TIP3    H235015   4.696   0.226  14.424  1.0938 -0.5814  0.3334
 4534TIP3   OH235016   5.586   4.373  12.458  0.5247 -0.1611  0.6670
 4534TIP3    H135017   5.630   4.408  12.381  1.9319  1.2710  2.0287
 4534TIP3    H235018   5.493   4.374  12.436  0.8212  1.1316 -0.6554
 4535TIP3   OH235019   5.739   2.509  15.095  0.0941 -0.2438 -0.6468
 4535TIP3    H135020   5.792   2.478  15.021 -0.8242  0.4395 -1.6367
 4535TIP3    H235021   5.654   2.466  15.082  0.4657 -1.6139  1.1123
 4536TIP3   OH235022   0.921   3.271  13.259  0.4192  0.1234  0.1957
 4536TIP3    H135023   0.879   3.279  13.173 -1.7766 -1.2991  1.0637
 4536TIP3    H235024   0.856   3.226  13.313  2.0889  0.2179  2.3791
 4537TIP3   OH235025   5.151   1.694  13.582  0.1929 -0.1776  0.0282
 4537TIP3    H135026   5.151   1.789  13.599 -0.0710 -0.3485  1.0727
 4537TIP3    H235027   5.121   1.685  13.492 -1.9109  0.6273  0.5882
 4538TIP3   OH235028   4.472   5.085  15.807  0.0820  0.4430 -0.0080
 4538TIP3    H135029   4.398   5.145  15.807  1.3470  2.0617 -0.2471
 4538TIP3    H235030   4.493   5.073  15.900  0.3388  1.0235  0.0090
 4539TIP3   OH235031   5.859   0.023  16.942 -0.2198  0.0256 -0.3492
 4539TIP3    H135032   5.934   0.005  16.999  0.1050  1.0021 -0.4435
 4539TIP3    H235033   5.868   0.116  16.921 -1.3272  0.0890 -0.5620
 4540TIP3   OH235034   0.531   0.141  15.799 -0.2139  0.8150  0.0953
 4540TIP3    H135035   0.574   0.183  15.874 -0.3392  0.8965  0.1236
 4540TIP3    H235036   0.457   0.094  15.838  0.3307 -0.0153  0.1451
 4541TIP3   OH235037   5.439   2.579   5.243 -0.1521  0.0789  0.3215
 4541TIP3    H135038   5.384   2.566   5.320  0.9871  0.5258  1.2415
 4541TIP3    H235039   5.524   2.541   5.267  0.1668  0.0576 -0.7846
 4542TIP3   OH235040   0.431   4.837  14.018  0.0105  0.0918 -0.3139
 4542TIP3    H135041   0.446   4.743  14.003  0.2565  0.1226 -0.2710
 4542TIP3    H235042   0.386   4.867  13.938 -0.9835 -0.2664  0.0957
 4543TIP3   OH235043   3.397   4.609  10.961 -0.4787 -0.6344 -0.1046
 4543TIP3    H135044   3.303   4.625  10.962 -0.4244 -0.1645 -1.0304
 4543TIP3    H235045   3.411   4.553  10.885 -0.1658 -1.8608  0.8259
 4544TIP3   OH235046   2.687   0.502  16.478 -0.7862 -0.0876  0.1960
 4544TIP3    H135047   2.778   0.471  16.481 -1.0683 -1.2010 -1.3707
 4544TIP3    H235048   2.689   0.578  16.420 -1.1227 -1.3725 -1.5941
 4545TIP3   OH235049   2.480   1.654  15.348  0.0427 -0.6351 -0.5988
 4545TIP3    H135050   2.391   1.684  15.366  0.7274  0.8487  0.5731
 4545TIP3    H235051   2.510   1.614  15.430  0.3286 -1.4951 -1.1060
 4546TIP3   OH235052   0.311   5.261   2.800 -0.0552  0.3661  0.3036
 4546TIP3    H135053   0.256   5.190   2.768  2.3121 -1.5913  0.3102
 4546TIP3    H235054   0.368   5.282   2.727  1.1463  0.2897  1.1989
 4547TIP3   OH235055   5.004   6.243  15.487 -0.1532 -0.3218  0.4582
 4547TIP3    H135056   5.043   6.295  15.557  1.5864  0.6397 -1.1488
 4547TIP3    H235057   4.912   6.271  15.484 -0.2964 -0.4751  2.3812
 4548TIP3   OH235058   5.894   2.760  12.002 -0.3372  0.6881  0.2195
 4548TIP3    H135059   5.887   2.671  11.967  0.9192  0.9787 -0.8587
 4548TIP3    H235060   5.986   2.769  12.025 -0.7223  1.2573  1.6546
 4549TIP3   OH235061   5.274   4.031   2.884  0.7007  0.2161  0.3823
 4549TIP3    H135062   5.330   4.104   2.858  1.4237 -0.4849 -0.0794
 4549TIP3    H235063   5.335   3.964   2.916  0.1136 -0.4874  0.0462
 4550TIP3   OH235064   3.461   1.049   2.150 -0.1955 -0.1472  0.1050
 4550TIP3    H135065   3.455   0.961   2.114  0.0839 -0.2301  0.2591
 4550TIP3    H235066   3.408   1.103   2.091 -1.3273 -0.6170  0.6684
 4551TIP3   OH235067   1.904   1.498   2.738 -0.5303 -0.1014 -0.3523
 4551TIP3    H135068   1.820   1.482   2.695  0.8372 -2.0776 -2.5332
 4551TIP3    H235069   1.966   1.446   2.688  1.8859  0.6387  1.7055
 4552TIP3   OH235070   2.045   1.841   3.187 -0.3767  0.7008  0.7719
 4552TIP3    H135071   2.099   1.822   3.264  1.8745  0.6658 -0.7157
 4552TIP3    H235072   2.023   1.754   3.152 -0.0498  0.7205  0.5105
 4553TIP3   OH235073   1.426   2.226   2.337  0.7716 -0.2783 -0.4341
 4553TIP3    H135074   1.398   2.157   2.397  0.1319  1.1350  0.9880
 4553TIP3    H235075   1.496   2.271   2.384  0.7186  0.4490 -1.0357
 4554TIP3   OH235076   4.319   3.842  16.435  0.0478  0.3487  0.0387
 4554TIP3    H135077   4.357   3.823  16.350 -0.0515  2.0028 -0.4031
 4554TIP3    H235078   4.226   3.856  16.417 -0.2190 -0.5577  0.6303
 4555TIP3   OH235079   0.476   1.727  14.815 -0.1243  0.3522  0.1449
 4555TIP3    H135080   0.493   1.655  14.876 -1.9580 -2.3708 -2.2814
 4555TIP3    H235081   0.562   1.752  14.783  0.5276 -1.3588  0.4468
 4556TIP3   OH235082   4.206   3.370  15.214 -0.0670 -0.4308  0.3918
 4556TIP3    H135083   4.201   3.277  15.237  0.6738 -0.9267 -1.3131
 4556TIP3    H235084   4.288   3.400  15.253 -0.4158 -0.4102  1.1379
 4557TIP3   OH235085   4.290   5.426   4.163  0.6416  0.3762  0.0988
 4557TIP3    H135086   4.318   5.352   4.217  0.4862 -0.0971 -0.4646
 4557TIP3    H235087   4.252   5.488   4.226  1.0676  0.1254  0.6127
 4558TIP3   OH235088   1.724   4.108   5.350  0.0239  0.6904  0.1859
 4558TIP3    H135089   1.670   4.052   5.406  1.9109 -0.0736  1.3344
 4558TIP3    H235090   1.794   4.051   5.319  1.1509  2.0303  0.1511
 4559TIP3   OH235091   5.965   4.923  11.687  0.6175  0.1157 -0.3261
 4559TIP3    H135092   5.975   4.991  11.621 -0.3462  0.4921 -0.1045
 4559TIP3    H235093   5.871   4.906  11.690  0.7749 -0.7217  0.1282
 4560TIP3   OH235094   4.847   0.232  12.449  0.1694  0.3195  0.0227
 4560TIP3    H135095   4.777   0.245  12.513 -0.0946 -0.5870 -0.0667
 4560TIP3    H235096   4.905   0.307  12.461 -1.2034  1.4991 -0.4286
 4561TIP3   OH235097   1.349   3.177   4.770 -0.5293 -0.4627  0.0974
 4561TIP3    H135098   1.429   3.129   4.749  0.0256  1.2165 -2.0106
 4561TIP3    H235099   1.361   3.205   4.860 -0.2367 -2.9472  0.9031
 4562TIP3   OH235100   6.384   3.008  16.124 -0.1829  0.0929 -0.0588
 4562TIP3    H135101   6.465   2.961  16.109 -0.1199  0.3112 -0.4300
 4562TIP3    H235102   6.321   2.969  16.063  0.0550  0.9380 -0.8858
 4563TIP3   OH235103   5.976   0.195  15.906  0.3584 -0.0799  0.2843
 4563TIP3    H135104   5.943   0.121  15.958 -0.6353  0.5683  0.6238
 4563TIP3    H235105   6.065   0.171  15.884  0.2588 -1.1114  0.9124
 4564TIP3   OH235106   0.465   2.757  15.737 -0.3070  0.5106  0.1386
 4564TIP3    H135107   0.550   2.799  15.728 -1.1280  2.2574  0.1096
 4564TIP3    H235108   0.405   2.815  15.689 -1.1282 -2.0610 -2.2115
 4565TIP3   OH235109   4.907   4.700   4.538 -0.1457 -0.1436  0.1845
 4565TIP3    H135110   4.847   4.646   4.486 -1.4575  1.5271 -0.1290
 4565TIP3    H235111   4.915   4.781   4.488  1.7961 -0.0151  0.6310
 4566TIP3   OH235112   4.393   0.563  13.999 -0.1691 -0.6100  0.2894
 4566TIP3    H135113   4.347   0.620  14.061  0.6470 -1.7183  2.0023
 4566TIP3    H235114   4.480   0.553  14.036  0.2865 -1.4621 -0.9654
 4567TIP3   OH235115   4.253   5.794   3.634 -0.3609 -0.2979 -0.2904
 4567TIP3    H135116   4.195   5.836   3.570  0.7205  0.3515 -0.8550
 4567TIP3    H235117   4.206   5.802   3.717 -1.0704  0.2566 -0.7328
 4568TIP3   OH235118   1.355   4.201   3.452  0.4825  0.1081 -0.1919
 4568TIP3    H135119   1.423   4.145   3.489  0.6178 -0.1358 -0.7878
 4568TIP3    H235120   1.377   4.208   3.359  0.3892  1.0463 -0.1583
 4569TIP3   OH235121   0.607   2.886   2.183 -0.2423 -0.1089  0.8493
 4569TIP3    H135122   0.620   2.970   2.140  0.5338 -0.3839  0.5474
 4569TIP3    H235123   0.690   2.867   2.225 -0.4924 -0.6121  1.1293
 4570TIP3   OH235124   1.128   0.843  12.021 -0.4837 -0.1069  0.0982
 4570TIP3    H135125   1.124   0.884  12.108 -1.9086 -0.2137  0.1115
 4570TIP3    H235126   1.162   0.756  12.037 -1.2257 -0.3083  0.6419
 4571TIP3   OH235127   1.430   6.756   2.548  0.2084 -0.2581 -0.5697
 4571TIP3    H135128   1.463   6.804   2.472  1.7101 -0.4207 -0.0617
 4571TIP3    H235129   1.467   6.668   2.539  0.7209 -0.1717  0.5347
 4572TIP3   OH235130   6.526   6.725  13.768  0.1268 -0.2528 -0.6696
 4572TIP3    H135131   6.611   6.743  13.809  0.6943 -0.9399 -1.5214
 4572TIP3    H235132   6.493   6.811  13.743 -0.6485  0.3181  1.9446
 4573TIP3   OH235133   3.424   6.402   4.721 -0.4051 -0.5607 -0.4526
 4573TIP3    H135134   3.506   6.428   4.678  0.5462  2.8426  2.8655
 4573TIP3    H235135   3.449   6.336   4.785 -0.3369 -0.0281  0.0815
 4574TIP3   OH235136   2.550   0.836  14.678  0.0734 -0.2622  0.1781
 4574TIP3    H135137   2.641   0.839  14.650  0.3535 -0.9070  0.9668
 4574TIP3    H235138   2.517   0.924  14.665  1.5447  0.6845  2.2520
 4575TIP3   OH235139   0.066   1.917  11.925  0.4626 -0.2650  0.2224
 4575TIP3    H135140   0.134   1.857  11.896  0.8977  1.1111 -1.7874
 4575TIP3    H235141   0.110   2.002  11.931 -0.7563  0.3886  0.2665
 4576TIP3   OH235142   1.245   1.247   1.252  0.3501  0.0177  0.4533
 4576TIP3    H135143   1.216   1.193   1.326 -0.9895 -0.0054 -0.0629
 4576TIP3    H235144   1.226   1.194   1.175  2.5283 -0.3167  0.0967
 4577TIP3   OH235145   6.563   5.671   6.013  0.1148  0.0901 -0.0715
 4577TIP3    H135146   6.477   5.707   5.993  0.1892  0.8415  0.9136
 4577TIP3    H235147   6.614   5.688   5.933 -0.4909  0.1226 -0.4611
 4578TIP3   OH235148   3.030   2.913  12.006 -0.0259  0.2204 -0.5798
 4578TIP3    H135149   3.016   2.996  12.052 -1.6636 -1.0798  1.4081
 4578TIP3    H235150   3.097   2.934  11.941 -0.0865  2.9989  0.1008
 4579TIP3   OH235151   5.933   6.640   3.214 -0.2765  0.1573  0.0209
 4579TIP3    H135152   5.845   6.654   3.249 -0.9259 -1.5620 -0.7767
 4579TIP3    H235153   5.924   6.562   3.159  0.9958  1.8309 -2.7751
 4580TIP3   OH235154   6.778   3.667   2.994  0.3666  0.7169  0.3017
 4580TIP3    H135155   6.724   3.603   3.039 -1.2418  1.8587  0.0852
 4580TIP3    H235156   6.778   3.743   3.053  2.2303  0.5678  0.5582
 4581TIP3   OH235157   6.338   4.805   2.964  0.1302  0.6762  0.0400
 4581TIP3    H135158   6.352   4.747   2.889 -1.6765  0.6072 -0.2890
 4581TIP3    H235159   6.381   4.887   2.939  1.9650 -0.1946  0.1483
 4582TIP3   OH235160   5.516   1.049  14.053  0.3571 -0.8009  0.3912
 4582TIP3    H135161   5.488   0.976  14.109 -1.2540  0.3898  1.1873
 4582TIP3    H235162   5.435   1.092  14.027  1.2927  1.8961  1.5836
 4583TIP3   OH235163   5.562   1.331  13.813  1.2585  0.5231 -0.0859
 4583TIP3    H135164   5.600   1.311  13.898  1.4655  1.0028 -0.0613
 4583TIP3    H235165   5.515   1.414  13.826 -0.1032 -0.2307 -0.0239
 4584TIP3   OH235166   2.763   4.973   4.189  0.0968  0.0608 -0.7104
 4584TIP3    H135167   2.786   4.907   4.254  0.4014 -0.5757 -1.4409
 4584TIP3    H235168   2.847   4.998   4.149  0.2067  2.1015  0.6515
 4585TIP3   OH235169   1.975   0.605   4.493 -0.3546 -0.8346 -0.7280
 4585TIP3    H135170   1.906   0.557   4.539 -0.0699 -1.3570 -0.8408
 4585TIP3    H235171   2.056   0.572   4.530 -0.1497 -0.5633 -0.9304
 4586TIP3   OH235172   5.914   4.990   1.658  0.2241 -0.4130  0.3540
 4586TIP3    H135173   5.917   5.070   1.606  1.2157 -0.3038  0.5585
 4586TIP3    H235174   6.002   4.954   1.652  0.1386 -0.8069  1.3238
 4587TIP3   OH235175   6.631   0.460  12.266 -0.5502  0.1865  0.5500
 4587TIP3    H135176   6.696   0.411  12.216  0.2386  1.8639 -0.1455
 4587TIP3    H235177   6.587   0.515  12.202 -0.8350  0.9990  1.4148
 4588TIP3   OH235178   3.379   5.968   0.339  0.0433 -0.1104 -0.2894
 4588TIP3    H135179   3.296   5.986   0.294  0.3015  2.8086  0.2022
 4588TIP3    H235180   3.357   5.972   0.432  0.3561 -1.6791 -0.1118
 4589TIP3   OH235181   5.290   5.898   4.792  0.3658 -0.1393  0.5881
 4589TIP3    H135182   5.243   5.975   4.824 -1.0231 -0.1309 -1.2306
 4589TIP3    H235183   5.244   5.875   4.711  2.5645 -1.1320 -0.4703
 4590TIP3   OH235184   1.461   4.828  16.126  0.7365  0.1380  0.3939
 4590TIP3    H135185   1.390   4.869  16.176  0.2261  0.4800 -0.5819
 4590TIP3    H235186   1.493   4.757  16.182  1.1388  1.3981  1.7994
 4591TIP3   OH235187   0.349   3.816  15.322 -0.2319 -0.8005 -0.2136
 4591TIP3    H135188   0.338   3.740  15.264  2.1834 -1.7681  0.4655
 4591TIP3    H235189   0.360   3.778  15.409  1.1294  0.3097  0.1234
 4592TIP3   OH235190   4.419   4.541   2.906 -0.5337 -0.3124 -0.2421
 4592TIP3    H135191   4.404   4.632   2.880  1.2588  0.2892  0.6810
 4592TIP3    H235192   4.467   4.547   2.989  0.4060 -2.0989 -0.6159
 4593TIP3   OH235193   4.349   2.974  11.747 -0.5495 -0.4825  0.4268
 4593TIP3    H135194   4.379   2.963  11.657 -1.2602 -0.3153  0.1605
 4593TIP3    H235195   4.317   2.887  11.772  0.5603 -0.7747  0.8711
 4594TIP3   OH235196   0.910   0.738   0.361  0.1868  0.5780  0.0204
 4594TIP3    H135197   0.839   0.801   0.349  0.8303  1.1159 -1.0291
 4594TIP3    H235198   0.865   0.655   0.379 -0.6755  1.1882  0.8346
 4595TIP3   OH235199   0.794   4.537  14.546  0.0452  0.2083  0.1562
 4595TIP3    H135200   0.871   4.482  14.532 -0.7106 -0.5467 -1.2470
 4595TIP3    H235201   0.728   4.502  14.486 -0.3326  2.9094 -1.1697
 4596TIP3   OH235202   1.526   2.334  16.574 -0.2243  0.5550 -0.1682
 4596TIP3    H135203   1.452   2.386  16.543 -0.8632 -0.9173 -1.2660
 4596TIP3    H235204   1.602   2.369  16.528 -0.9105 -0.5310 -2.2440
 4597TIP3   OH235205   2.016   2.439  13.528  0.1249 -0.8313  0.4531
 4597TIP3    H135206   2.012   2.532  13.506 -1.4211 -0.5280  1.8579
 4597TIP3    H235207   2.018   2.437  13.624 -0.7629 -2.2489  0.4747
 4598TIP3   OH235208   6.548   2.448   5.285 -0.2925 -0.3006  0.8473
 4598TIP3    H135209   6.501   2.512   5.338 -1.3535  0.1156 -0.5083
 4598TIP3    H235210   6.571   2.378   5.345 -1.6566  0.0397  1.8076
 4599TIP3   OH235211   0.752   0.996  15.665  0.5538  0.0881 -0.2681
 4599TIP3    H135212   0.677   1.054  15.681 -1.1418 -1.4987 -2.0314
 4599TIP3    H235213   0.828   1.047  15.696 -1.1423  1.9608  1.1228
 4600TIP3   OH235214   0.427   4.920  11.789 -0.0455 -0.1121  0.1139
 4600TIP3    H135215   0.491   4.926  11.718 -1.1546 -0.3241 -0.9526
 4600TIP3    H235216   0.347   4.889  11.746 -0.4267 -1.4513  1.6766
 4601TIP3   OH235217   3.049   6.306   3.560 -0.0542  0.1108 -0.4394
 4601TIP3    H135218   2.985   6.323   3.491 -0.8611  1.2847  0.5832
 4601TIP3    H235219   3.077   6.392   3.589  0.2968 -0.3732  0.7052
 4602TIP3   OH235220   4.834   1.989   1.864  0.6538 -0.3374 -0.4212
 4602TIP3    H135221   4.798   1.961   1.780  1.6615  0.1799 -1.0497
 4602TIP3    H235222   4.910   1.932   1.877  0.4249 -0.5017  0.2032
 4603TIP3   OH235223   2.196   5.245  16.444 -0.3270  0.4686  0.1265
 4603TIP3    H135224   2.161   5.157  16.454  3.1261 -0.8649  2.1049
 4603TIP3    H235225   2.241   5.244  16.360 -0.2740  0.3356  0.1568
 4604TIP3   OH235226   2.636   2.686  14.098 -0.5121 -0.1463 -0.2630
 4604TIP3    H135227   2.648   2.780  14.108 -1.2947  0.1939 -2.1325
 4604TIP3    H235228   2.702   2.661  14.033 -0.6183 -0.8103 -0.1223
 4605TIP3   OH235229   1.113   6.352  14.582  0.4139 -0.1921  0.3998
 4605TIP3    H135230   1.058   6.415  14.536 -1.9405 -1.6963  0.9297
 4605TIP3    H235231   1.170   6.315  14.515 -0.1573  0.4832 -0.4754
 4606TIP3   OH235232   1.052   5.705  15.434  0.7209 -0.4217 -0.0693
 4606TIP3    H135233   1.023   5.796  15.446  1.0039 -0.2607 -0.5950
 4606TIP3    H235234   1.147   5.710  15.430  0.7375 -0.7456 -0.0879
 4607TIP3   OH235235   2.369   0.572  15.817 -0.3681 -0.1627  0.2802
 4607TIP3    H135236   2.301   0.506  15.802 -0.5804  0.0884  0.1279
 4607TIP3    H235237   2.326   0.655  15.798 -0.0068 -0.0054  0.1391
 4608TIP3   OH235238   1.442   2.648   2.319  0.1621 -0.5921  0.0060
 4608TIP3    H135239   1.425   2.604   2.236  0.7344  1.1769 -1.1118
 4608TIP3    H235240   1.355   2.668   2.354 -0.1047 -2.3787  0.4647
 4609TIP3   OH235241   1.391   5.193   4.408  0.3340 -0.0089 -0.1836
 4609TIP3    H135242   1.444   5.211   4.485 -2.0522 -0.9223  1.8299
 4609TIP3    H235243   1.380   5.098   4.407 -3.5387  0.2145  1.3553
 4610TIP3   OH235244   2.176   0.386   1.741 -0.4151 -0.2331 -0.1847
 4610TIP3    H135245   2.192   0.359   1.832 -0.2713 -0.2051 -0.2021
 4610TIP3    H235246   2.218   0.471   1.733 -1.5667  0.3969  0.1098
 4611TIP3   OH235247   2.849   1.586  15.560  0.0371 -0.3301 -0.3903
 4611TIP3    H135248   2.806   1.500  15.558  1.0032 -0.8123 -0.6973
 4611TIP3    H235249   2.801   1.638  15.495  0.2305 -1.0250 -1.1041
 4612TIP3   OH235250   5.169   6.555  16.832 -0.9033  0.1220  0.4942
 4612TIP3    H135251   5.219   6.558  16.914 -1.5403  0.2716  0.8777
 4612TIP3    H235252   5.089   6.507  16.853 -1.1107  0.2326 -0.0214
 4613TIP3   OH235253   5.969   3.220  16.781  0.1405 -0.0380  0.1536
 4613TIP3    H135254   5.976   3.264  16.696 -0.2996  1.3105  0.7844
 4613TIP3    H235255   6.034   3.264  16.835 -1.3318  0.9014  1.2298
 4614TIP3   OH235256   6.703   5.654   5.416 -0.0740 -0.2960 -0.0542
 4614TIP3    H135257   6.629   5.623   5.363 -0.1555  0.4361 -0.3921
 4614TIP3    H235258   6.733   5.577   5.464 -1.4230 -0.4917  0.5287
 4615TIP3   OH235259   1.592   4.760   0.761  0.3093 -0.0400 -0.3774
 4615TIP3    H135260   1.684   4.782   0.777 -0.0142  0.5037  0.8370
 4615TIP3    H235261   1.593   4.668   0.737  1.0602 -0.3629  0.8276
 4616TIP3   OH235262   4.338   4.225   2.838 -0.0703  0.0775  0.3854
 4616TIP3    H135263   4.257   4.225   2.785 -0.0234  1.7581  0.2661
 4616TIP3    H235264   4.309   4.250   2.925 -0.0791 -2.2866  1.1355
 4617TIP3   OH235265   3.014   4.527   4.453  0.2320 -0.2543  0.2068
 4617TIP3    H135266   3.084   4.536   4.519  0.0845 -1.2117  0.5110
 4617TIP3    H235267   3.035   4.445   4.408  0.9897  0.9494 -1.7646
 4618TIP3   OH235268   4.652   5.350   6.025  0.2478  0.0008  0.4230
 4618TIP3    H135269   4.656   5.418   6.092 -0.0006  0.8995 -0.4490
 4618TIP3    H235270   4.590   5.286   6.060 -2.7181  2.1796 -0.4110
 4619TIP3   OH235271   5.611   6.460  11.288  0.0581  0.0080 -0.6118
 4619TIP3    H135272   5.618   6.499  11.375 -0.4673  0.6818 -0.8693
 4619TIP3    H235273   5.674   6.510  11.235  0.9384 -0.8969 -0.4595
 4620TIP3   OH235274   3.924   1.041   0.894  0.2764 -0.4602 -0.1222
 4620TIP3    H135275   3.885   1.063   0.978 -0.8840  1.0901 -1.0049
 4620TIP3    H235276   3.988   0.973   0.914 -0.9671 -1.1502  1.7906
 4621TIP3   OH235277   4.555   3.445  12.457  0.2512 -0.0824  0.3945
 4621TIP3    H135278   4.591   3.534  12.451  0.8996 -0.3059  0.7548
 4621TIP3    H235279   4.580   3.404  12.375 -0.0347  0.0651  0.2351
 4622TIP3   OH235280   1.046   4.621  15.437 -0.6443 -0.1442 -0.5639
 4622TIP3    H135281   0.963   4.642  15.481 -0.6103  0.6071 -0.8535
 4622TIP3    H235282   1.035   4.656  15.349 -0.4405 -1.0295 -0.9503
 4623TIP3   OH235283   1.708   0.118   0.098 -0.2762 -0.5266  0.5736
 4623TIP3    H135284   1.708   0.157   0.011 -2.0798 -1.7274 -0.0403
 4623TIP3    H235285   1.798   0.128   0.130  0.7511 -1.1951 -1.9323
 4624TIP3   OH235286   0.121   0.965   0.094  0.4699  0.9700 -0.7500
 4624TIP3    H135287   0.161   1.013   0.167  1.9626  0.1697 -1.0102
 4624TIP3    H235288   0.089   0.884   0.133 -2.3774  2.1954 -0.2368
 4625TIP3   OH235289   6.742   2.399   3.743 -0.2522  0.1768  0.8324
 4625TIP3    H135290   6.716   2.468   3.682 -0.2442 -0.5890 -0.0689
 4625TIP3    H235291   6.756   2.322   3.687 -2.1910 -1.1173  1.9793
 4626TIP3   OH235292   1.319   1.694   2.296 -0.2232 -0.5392 -0.1107
 4626TIP3    H135293   1.313   1.643   2.216 -0.3336 -0.3827 -0.2024
 4626TIP3    H235294   1.282   1.779   2.273  2.1142  0.4139 -0.6588
 4627TIP3   OH235295   5.831   5.748   2.536  0.6563  0.2744  0.4474
 4627TIP3    H135296   5.738   5.735   2.521  0.7414  0.5111 -0.3769
 4627TIP3    H235297   5.869   5.660   2.525  0.5880  0.2644  0.2824
 4628TIP3   OH235298   5.843   6.658   5.968  0.1304 -0.0070 -0.0617
 4628TIP3    H135299   5.805   6.571   5.964 -0.6246  0.3358 -0.3981
 4628TIP3    H235300   5.812   6.694   6.051 -1.7796  0.9375 -1.1216
 4629TIP3   OH235301   0.357   3.108  14.584 -0.5831  0.3769  0.6189
 4629TIP3    H135302   0.352   3.147  14.672  2.1978  1.0405  0.5920
 4629TIP3    H235303   0.321   3.020  14.595 -1.9915  1.0628  1.9553
 4630TIP3   OH235304   0.289   3.801  12.084  0.1619 -0.0215 -0.2373
 4630TIP3    H135305   0.217   3.751  12.045  1.7040 -1.7370 -1.0642
 4630TIP3    H235306   0.351   3.814  12.012  0.9510  0.8896  0.5818
 4631TIP3   OH235307   5.953   1.020  13.236  0.5942  0.7542 -0.4172
 4631TIP3    H135308   5.936   0.932  13.268  2.4743  0.2243 -0.7686
 4631TIP3    H235309   5.937   1.015  13.142  2.4205  0.2895 -0.7267
 4632TIP3   OH235310   2.648   0.207  11.593 -0.1158 -0.5715  0.6544
 4632TIP3    H135311   2.703   0.158  11.532  0.6314  1.2765 -0.2324
 4632TIP3    H235312   2.558   0.185  11.567  0.1922 -1.3083  0.1811
 4633TIP3   OH235313   1.207   4.909  13.949 -0.1144 -0.0480  0.1296
 4633TIP3    H135314   1.170   4.868  13.871 -1.6063 -1.5024  1.5142
 4633TIP3    H235315   1.133   4.918  14.008  0.6327  2.5937  0.7984
 4634TIP3   OH235316   4.796   6.668  11.341  0.6656 -0.1493 -0.0241
 4634TIP3    H135317   4.855   6.678  11.267  0.8212 -0.3122  0.0779
 4634TIP3    H235318   4.710   6.652  11.301  0.7269 -0.1120 -0.1704
 4635TIP3   OH235319   3.184   1.211   0.951 -0.0630 -0.5436 -0.5308
 4635TIP3    H135320   3.167   1.294   0.906  0.2545  0.2865  0.8286
 4635TIP3    H235321   3.210   1.151   0.881 -1.4813  0.1502 -1.6895
 4636TIP3   OH235322   1.289   5.288   5.059 -0.1210  0.4267  0.0273
 4636TIP3    H135323   1.268   5.334   5.141 -1.2266 -1.0210  0.6024
 4636TIP3    H235324   1.313   5.200   5.087 -1.9499 -0.5521 -1.2512
 4637TIP3   OH235325   6.262   3.305  12.622 -0.5462  0.0318  0.0971
 4637TIP3    H135326   6.353   3.333  12.635 -0.8585  0.4952  1.3828
 4637TIP3    H235327   6.211   3.360  12.681 -1.4193 -1.8279  1.1605
 4638TIP3   OH235328   1.931   2.564   5.852 -0.1252 -1.0391 -0.0325
 4638TIP3    H135329   1.943   2.658   5.863  3.2513 -1.4065  0.2775
 4638TIP3    H235330   1.895   2.555   5.764  1.4994  0.4948 -0.9309
 4639TIP3   OH235331   4.274   2.380   3.471  0.9243  0.8159  0.5198
 4639TIP3    H135332   4.210   2.372   3.542 -0.8117  0.3253 -1.0405
 4639TIP3    H235333   4.241   2.451   3.416  1.8320  0.6835 -0.2294
 4640TIP3   OH235334   1.553   4.450   4.931 -0.2524  0.0253 -0.1844
 4640TIP3    H135335   1.577   4.541   4.950 -0.4495  0.4698 -1.8635
 4640TIP3    H235336   1.519   4.453   4.841  1.7312 -2.0390 -1.1012
 4641TIP3   OH235337   1.150   0.433   2.596  0.3404  0.3248  0.4278
 4641TIP3    H135338   1.210   0.368   2.559  0.4315 -0.1090  1.3037
 4641TIP3    H235339   1.197   0.516   2.587  1.1733 -0.0327  1.2639
 4642TIP3   OH235340   3.336   4.993  10.359  0.2207  0.8257  0.0764
 4642TIP3    H135341   3.424   4.965  10.333  0.3743  0.0224  1.3616
 4642TIP3    H235342   3.318   5.068  10.304  1.6989  0.9694 -0.2640
 4643TIP3   OH235343   5.140   5.301   4.599 -0.1322  0.1384  0.1891
 4643TIP3    H135344   5.145   5.220   4.650  1.4678 -0.8651 -1.4513
 4643TIP3    H235345   5.231   5.325   4.582 -0.5926  0.7789 -1.6142
 4644TIP3   OH235346   0.799   1.039   3.046 -0.4238  0.6162  0.1056
 4644TIP3    H135347   0.885   1.059   3.083 -0.0008 -0.4404 -0.2793
 4644TIP3    H235348   0.792   1.097   2.970  1.1082 -1.1207 -1.4387
 4645TIP3   OH235349   2.784   1.667   1.195  0.3071 -0.3416  0.7129
 4645TIP3    H135350   2.713   1.622   1.149  0.1845  1.4063 -0.9398
 4645TIP3    H235351   2.747   1.751   1.221  1.5484  0.3218  0.4293
 4646TIP3   OH235352   0.122   2.643  13.325  0.1909 -0.0038  0.0411
 4646TIP3    H135353   0.172   2.700  13.267 -1.1026  2.1429  0.9013
 4646TIP3    H235354   0.121   2.558  13.281 -0.4295  1.4063 -2.9442
 4647TIP3   OH235355   0.888   4.056  15.898 -0.1857  0.2958  0.3711
 4647TIP3    H135356   0.920   4.135  15.854  0.2170 -1.0264 -1.8675
 4647TIP3    H235357   0.797   4.076  15.919 -0.0431  1.4170 -0.0198
 4648TIP3   OH235358   2.390   3.361   4.466  0.6537 -0.6139 -0.1114
 4648TIP3    H135359   2.485   3.347   4.466  0.6936 -0.3633 -0.9523
 4648TIP3    H235360   2.377   3.439   4.413  0.0150 -0.3236  0.4592
 4649TIP3   OH235361   1.574   0.027  14.587  0.1049  0.5766 -0.1003
 4649TIP3    H135362   1.537  -0.038  14.526 -1.8541  1.5117  0.0096
 4649TIP3    H235363   1.542   0.111  14.554 -0.2618  1.1730  1.6809
 4650TIP3   OH235364   0.005   0.865  13.983 -0.5110  0.2756  0.0403
 4650TIP3    H135365  -0.081   0.848  13.943  0.6668  1.5000 -3.3379
 4650TIP3    H235366   0.068   0.828  13.921  1.4813 -0.7091  2.4916
 4651TIP3   OH235367   4.007   0.613  11.365  0.0701 -0.0149 -0.1097
 4651TIP3    H135368   4.029   0.595  11.457 -0.6943  0.7087  0.2207
 4651TIP3    H235369   4.000   0.708  11.359  1.1509  0.0318 -1.1783
 4652TIP3   OH235370   5.971   4.883  14.027  0.0164  0.5557 -0.1474
 4652TIP3    H135371   5.938   4.969  13.999  0.8536  1.1386  0.5887
 4652TIP3    H235372   5.935   4.873  14.116  2.3738  1.5675  0.9977
 4653TIP3   OH235373   5.193   0.716   5.803 -0.2808 -0.4166 -0.3050
 4653TIP3    H135374   5.153   0.767   5.873  0.5610  0.0986 -0.1822
 4653TIP3    H235375   5.284   0.703   5.831  0.0327 -0.3170 -1.2289
 4654TIP3   OH235376   4.853   4.429  13.299 -0.0151 -0.2969  0.0407
 4654TIP3    H135377   4.760   4.441  13.319 -0.0658  0.9839 -0.8595
 4654TIP3    H235378   4.855   4.415  13.204  0.7017 -0.4716  0.0757
 4655TIP3   OH235379   3.699   5.800  16.543 -0.5229 -0.2710 -0.3159
 4655TIP3    H135380   3.743   5.715  16.533 -0.9187 -0.3941 -1.0570
 4655TIP3    H235381   3.611   5.777  16.572 -1.1387 -0.2162 -2.0602
 4656TIP3   OH235382   6.444   3.545   2.444  0.4639  0.1657 -0.3056
 4656TIP3    H135383   6.405   3.480   2.386  0.2901  1.1880 -1.3912
 4656TIP3    H235384   6.386   3.548   2.520 -0.0409 -0.2733 -0.6703
 4657TIP3   OH235385   5.166   2.918  14.523  0.2146  0.3375 -0.1029
 4657TIP3    H135386   5.248   2.960  14.495 -0.2237  1.5825  0.4150
 4657TIP3    H235387   5.194   2.833  14.559  1.1739  0.3568 -0.7591
 4658TIP3   OH235388   1.394   0.899   0.076 -0.1427  0.3309 -0.2499
 4658TIP3    H135389   1.449   0.971   0.047 -0.5417 -0.1763 -2.5196
 4658TIP3    H235390   1.378   0.848  -0.004  0.3403 -2.4259  1.2871
 4659TIP3   OH235391   1.608   1.265  11.197 -0.1145 -0.2619  0.0767
 4659TIP3    H135392   1.661   1.309  11.131  1.5497 -1.4648  0.5567
 4659TIP3    H235393   1.545   1.213  11.146  2.0241 -2.2491 -0.6940
 4660TIP3   OH235394   0.894   0.478   3.215  0.3729  0.2658 -0.9422
 4660TIP3    H135395   0.899   0.554   3.157 -2.4179  0.7895 -0.6560
 4660TIP3    H235396   0.814   0.492   3.266 -0.7356 -3.2143 -1.4431
 4661TIP3   OH235397   4.251   1.468   0.869  0.1503  0.0114 -0.2999
 4661TIP3    H135398   4.179   1.408   0.889  0.9321 -1.1878 -0.9929
 4661TIP3    H235399   4.283   1.439   0.784 -0.9152  2.8654 -1.7875
 4662TIP3   OH235400   4.716   2.289   1.481  0.1091  0.0567 -0.0176
 4662TIP3    H135401   4.793   2.325   1.525  0.2676  0.0151 -0.2579
 4662TIP3    H235402   4.749   2.257   1.397  0.1248 -1.3506  0.4882
 4663TIP3   OH235403   1.208   5.457  10.824  0.0044 -0.0190 -0.5908
 4663TIP3    H135404   1.118   5.489  10.824  0.0637  0.1500 -0.4816
 4663TIP3    H235405   1.213   5.398  10.748  0.0476  0.6681 -1.1344
 4664TIP3   OH235406   4.152   1.802   6.835  0.1059 -0.7109 -0.0805
 4664TIP3    H135407   4.088   1.860   6.876  2.4111  1.8973  0.0807
 4664TIP3    H235408   4.130   1.803   6.742 -0.4670 -0.3854  0.0573
 4665TIP3   OH235409   3.615   5.814  14.627  0.1213 -0.1784  0.1872
 4665TIP3    H135410   3.537   5.813  14.571  0.7742  1.6478 -0.8229
 4665TIP3    H235411   3.623   5.723  14.658 -0.4887 -1.1938 -2.3532
 4666TIP3   OH235412   4.748   2.495  13.086  0.1950  0.8361  0.2317
 4666TIP3    H135413   4.740   2.572  13.028 -1.0099 -0.3724 -1.2892
 4666TIP3    H235414   4.676   2.504  13.148  1.2361  1.9130  1.3509
 4667TIP3   OH235415   4.849   6.506   1.908  0.3247  0.2770  0.6190
 4667TIP3    H135416   4.915   6.522   1.976 -0.1369 -1.9591  1.6846
 4667TIP3    H235417   4.805   6.426   1.936 -1.8196  0.8510 -0.8760
 4668TIP3   OH235418   3.791   6.214  11.546 -0.6338 -0.5378 -0.1398
 4668TIP3    H135419   3.733   6.217  11.622 -0.7214 -0.1380 -0.2219
 4668TIP3    H235420   3.736   6.176  11.476 -0.3185 -1.6570  0.1916
 4669TIP3   OH235421   2.023   5.874   5.866 -0.5730 -1.2063  0.2323
 4669TIP3    H135422   2.078   5.806   5.906 -0.2610 -1.6522 -0.9159
 4669TIP3    H235423   1.936   5.859   5.902  0.0904 -0.2799  2.3512
 4670TIP3   OH235424   5.717   2.988   5.549 -0.6532 -0.4192  0.4894
 4670TIP3    H135425   5.744   3.076   5.524 -0.2420 -1.0013 -1.3123
 4670TIP3    H235426   5.797   2.945   5.579 -0.6559 -0.4824  0.4064
 4671TIP3   OH235427   6.351   5.688  16.511 -0.3268 -0.0121  0.2943
 4671TIP3    H135428   6.439   5.724  16.498  1.0277 -3.2210 -0.4180
 4671TIP3    H235429   6.356   5.641  16.594 -1.7055  0.5176  0.7052
 4672TIP3   OH235430   5.981   5.399  13.395  0.2057  0.5866 -0.1003
 4672TIP3    H135431   6.012   5.348  13.320  1.1580 -1.6152  1.6716
 4672TIP3    H235432   6.054   5.459  13.414  0.1483  0.8314 -0.6399
 4673TIP3   OH235433   4.800   5.243  11.188  0.6379 -0.6986 -0.1426
 4673TIP3    H135434   4.787   5.316  11.249  1.6415 -1.5673  1.1611
 4673TIP3    H235435   4.817   5.285  11.103  0.1627  0.5490  0.3553
 4674TIP3   OH235436   2.617   2.324  15.893 -0.3438 -0.1527 -0.0679
 4674TIP3    H135437   2.677   2.293  15.825 -1.3758  0.6262 -1.3720
 4674TIP3    H235438   2.667   2.391  15.940 -1.3454  3.8020 -3.9094
 4675TIP3   OH235439   0.845   5.043   4.647 -0.2111 -0.3499  0.8979
 4675TIP3    H135440   0.796   5.107   4.697  0.1891  0.2165  0.5875
 4675TIP3    H235441   0.931   5.084   4.633 -0.6690  0.0382 -1.2216
 4676TIP3   OH235442   2.124   2.088   1.783  0.4291  0.1049  0.1649
 4676TIP3    H135443   2.148   2.041   1.863  0.1726 -1.8384 -0.8351
 4676TIP3    H235444   2.207   2.120   1.748  0.7105 -0.2419  0.5021
 4677TIP3   OH235445   0.250   6.246  16.571 -0.4535  0.1960 -0.3317
 4677TIP3    H135446   0.185   6.237  16.502 -1.5195 -1.1168  0.7962
 4677TIP3    H235447   0.281   6.157  16.587  0.7985  0.6596 -0.0737
 4678TIP3   OH235448   4.163   0.827  12.844  0.0499 -0.2351 -0.6706
 4678TIP3    H135449   4.150   0.735  12.822  1.2085 -0.7322  0.6254
 4678TIP3    H235450   4.243   0.829  12.896 -1.6650  1.0439  2.1827
 4679TIP3   OH235451   3.095   2.270  12.469 -0.5190  0.8070  0.3186
 4679TIP3    H135452   3.051   2.276  12.554 -0.5920 -0.4380  0.3890
 4679TIP3    H235453   3.188   2.265  12.490 -0.6248 -1.6210  0.5010
 4680TIP3   OH235454   0.350   2.157   2.334 -0.6501 -0.4462 -1.0705
 4680TIP3    H135455   0.368   2.237   2.286 -0.5373  0.5738  0.5979
 4680TIP3    H235456   0.430   2.105   2.326 -0.8646 -0.5971 -2.4824
 4681TIP3   OH235457   1.687   2.949   3.030  0.0762  0.1847 -0.2889
 4681TIP3    H135458   1.758   2.886   3.019  0.0474 -0.0169  0.6056
 4681TIP3    H235459   1.696   3.009   2.956  0.3356 -0.6483 -0.9373
 4682TIP3   OH235460   2.579   5.201  16.734  0.0415  0.3621 -0.9350
 4682TIP3    H135461   2.560   5.242  16.650  2.6278  1.0337 -1.2768
 4682TIP3    H235462   2.554   5.266  16.799 -0.7555  0.3517 -1.2173
 4683TIP3   OH235463   2.956   4.730   1.402  0.4943  0.5000  0.5952
 4683TIP3    H135464   2.971   4.654   1.346  0.8906  0.5206  0.6699
 4683TIP3    H235465   3.044   4.763   1.421  0.3047  1.2773  0.1471
 4684TIP3   OH235466   2.742   4.318  14.024  0.4908 -0.2651 -0.3567
 4684TIP3    H135467   2.730   4.271  13.941  0.1954 -2.1708  0.6995
 4684TIP3    H235468   2.657   4.357  14.042  1.0619  1.8449 -1.8594
 4685TIP3   OH235469   2.363   5.629  15.276  0.0253 -0.0013  0.2269
 4685TIP3    H135470   2.313   5.605  15.354 -0.1674  0.4870  0.2580
 4685TIP3    H235471   2.345   5.559  15.213 -1.2329  0.4981  0.0049
 4686TIP3   OH235472   1.220   1.434   3.895 -0.9021 -0.9125 -0.1210
 4686TIP3    H135473   1.241   1.447   3.802 -0.2123  1.3171  0.2971
 4686TIP3    H235474   1.147   1.493   3.911  1.4891  1.7755  1.6095
 4687TIP3   OH235475   1.984   1.165  10.826  0.1531 -0.2867  0.1824
 4687TIP3    H135476   2.022   1.232  10.769 -0.1593 -0.0851  0.2074
 4687TIP3    H235477   1.997   1.199  10.914 -0.3303 -0.0863  0.1771
 4688TIP3   OH235478   2.687   1.244  13.552  0.2870 -0.2637  0.2446
 4688TIP3    H135479   2.720   1.179  13.490  0.0210 -0.5365  0.3820
 4688TIP3    H235480   2.690   1.327  13.505  1.7221 -0.1750  0.4487
 4689TIP3   OH235481   5.237   5.239   0.487 -0.4292 -0.4129 -0.5193
 4689TIP3    H135482   5.284   5.187   0.422 -0.0682  0.1225 -0.6941
 4689TIP3    H235483   5.191   5.305   0.436 -0.2893 -0.1023 -0.2444
 4690TIP3   OH235484   4.222   3.727  14.154 -0.1804  0.4905 -0.4729
 4690TIP3    H135485   4.300   3.743  14.102 -1.5524  0.5179 -2.6192
 4690TIP3    H235486   4.219   3.631  14.162 -1.0419  0.3339 -2.2643
 4691TIP3   OH235487   6.391   5.045   4.194 -0.1929 -0.5529  0.1818
 4691TIP3    H135488   6.473   5.081   4.229 -0.9263  0.8467  0.5699
 4691TIP3    H235489   6.385   4.958   4.232  2.5555 -1.9578 -2.1775
 4692TIP3   OH235490   5.449   1.711  17.195  0.0875 -0.0688  0.1769
 4692TIP3    H135491   5.503   1.640  17.162 -0.8674 -1.0227  0.6100
 4692TIP3    H235492   5.388   1.729  17.124 -1.1453 -1.2601  0.8914
 4693TIP3   OH235493   6.412   2.260  11.429 -0.2677 -0.0883  0.3471
 4693TIP3    H135494   6.336   2.281  11.376 -0.6370 -0.8133  0.5829
 4693TIP3    H235495   6.471   2.213  11.370 -0.3195 -0.1763  0.3665
 4694TIP3   OH235496   0.305   4.294  16.130  0.3980 -0.2587 -0.0378
 4694TIP3    H135497   0.305   4.250  16.045  0.8938 -2.9424  1.2423
 4694TIP3    H235498   0.218   4.277  16.166  0.8515 -0.9281  0.7913
 4695TIP3   OH235499   4.614   2.854   0.774  0.6536  1.2694 -0.1072
 4695TIP3    H135500   4.604   2.800   0.853  2.8297  0.8495 -0.0434
 4695TIP3    H235501   4.590   2.795   0.702  1.4740  0.7034  0.0693
 4696TIP3   OH235502   4.372   0.611   4.066  0.2658  0.0747  0.2574
 4696TIP3    H135503   4.364   0.681   4.131  0.6849 -0.0053  0.3957
 4696TIP3    H235504   4.454   0.630   4.021 -0.5515  0.7772 -1.0157
 4697TIP3   OH235505   3.572   5.396  11.441  0.4724  0.2584  0.0111
 4697TIP3    H135506   3.650   5.403  11.496 -0.4456 -0.5411  1.4986
 4697TIP3    H235507   3.585   5.460  11.372  1.5901  1.5021  1.3090
 4698TIP3   OH235508   5.552   1.603  16.293  0.8588  0.1862  0.0280
 4698TIP3    H135509   5.473   1.585  16.344  0.0039  1.4318 -0.8101
 4698TIP3    H235510   5.623   1.596  16.357 -0.2040  2.0143  1.5299
 4699TIP3   OH235511   1.730   0.897  16.754 -0.3834 -0.1687 -0.2746
 4699TIP3    H135512   1.675   0.906  16.676 -0.0369  0.6886 -0.4336
 4699TIP3    H235513   1.791   0.971  16.749  1.0852 -1.3386 -0.3397
 4700TIP3   OH235514   1.346   2.540   4.427  0.2633 -0.2293  0.1434
 4700TIP3    H135515   1.368   2.607   4.491 -2.2752 -0.0527  0.9727
 4700TIP3    H235516   1.384   2.459   4.462  0.2700  0.1587  1.0652
 4701TIP3   OH235517   1.044   2.919  16.294  0.4225  0.1330 -0.6744
 4701TIP3    H135518   1.087   2.941  16.377  0.5704 -0.1553 -0.6729
 4701TIP3    H235519   1.106   2.862  16.249  0.8627  1.2185 -1.5066
 4702TIP3   OH235520   0.595   5.047  12.329  0.0668 -0.1531  0.2661
 4702TIP3    H135521   0.507   5.074  12.302  0.0345  0.8434  1.2982
 4702TIP3    H235522   0.644   5.042  12.248 -0.9270 -0.6805 -0.3235
 4703TIP3   OH235523   4.559   0.016  16.595 -0.0725 -0.3329 -0.0707
 4703TIP3    H135524   4.651   0.045  16.595  0.1148 -0.8616 -1.1822
 4703TIP3    H235525   4.554  -0.046  16.522 -1.3935 -0.0507 -0.2411
 4704TIP3   OH235526   5.048   0.813  14.869  0.6618 -0.4820 -0.4664
 4704TIP3    H135527   5.129   0.824  14.918  1.1509 -1.3385 -1.0621
 4704TIP3    H235528   4.999   0.893  14.885  0.8916 -0.6532  1.2541
 4705TIP3   OH235529   6.167   5.814   5.546  0.2606 -0.0541  0.3668
 4705TIP3    H135530   6.239   5.759   5.517 -0.2495  0.1601 -1.4536
 4705TIP3    H235531   6.171   5.891   5.488  0.2726  1.3191  2.0974
 4706TIP3   OH235532   3.311   4.006   2.211 -0.4743 -0.9131  0.0666
 4706TIP3    H135533   3.278   4.096   2.216  0.6152 -0.5608  1.5826
 4706TIP3    H235534   3.262   3.959   2.278 -0.5492 -1.3002 -0.2539
 4707TIP3   OH235535   2.546   2.734  13.846  0.1433 -0.1726 -0.0618
 4707TIP3    H135536   2.562   2.810  13.902 -1.0480 -0.2701  0.4458
 4707TIP3    H235537   2.622   2.678  13.858  2.0672  1.8089 -2.0153
 4708TIP3   OH235538   6.300   1.014  13.770 -0.3666  0.2430 -0.2118
 4708TIP3    H135539   6.272   1.057  13.850 -0.2459  0.5075 -0.3106
 4708TIP3    H235540   6.392   1.039  13.759  0.3929 -1.8006  0.9005
 4709TIP3   OH235541   3.127   2.653   1.228  0.0236  0.1636 -0.1775
 4709TIP3    H135542   3.039   2.627   1.255 -0.0241  1.3482  0.9102
 4709TIP3    H235543   3.131   2.633   1.135 -1.1510 -0.5479 -0.0858
 4710TIP3   OH235544   6.360   0.766  15.226  1.1891 -0.2676 -0.2952
 4710TIP3    H135545   6.424   0.817  15.177 -0.0257  1.4233 -0.2195
 4710TIP3    H235546   6.288   0.752  15.163 -0.3253  1.8069  0.8333
 4711TIP3   OH235547   3.565   5.849  11.282 -0.0837  0.3182 -0.0072
 4711TIP3    H135548   3.585   5.755  11.292  0.0331  0.3927  0.4744
 4711TIP3    H235549   3.470   5.854  11.287 -0.0028  0.4208  1.7206
 4712TIP3   OH235550   1.799   1.166   5.152  0.0170 -0.5442  0.4398
 4712TIP3    H135551   1.893   1.180   5.140  0.1796 -1.9248  0.0462
 4712TIP3    H235552   1.762   1.255   5.150  0.8681 -0.1180 -3.0912
 4713TIP3   OH235553   0.020   6.228   4.125  0.2803 -0.5273 -0.3080
 4713TIP3    H135554   0.061   6.310   4.097  1.1172 -1.1543 -0.9799
 4713TIP3    H235555  -0.012   6.246   4.213  0.2067  0.6055 -0.5468
 4714TIP3   OH235556   3.814   6.085  15.396 -0.1825 -0.4997 -0.1836
 4714TIP3    H135557   3.865   6.149  15.446  0.4488 -1.4353  0.3789
 4714TIP3    H235558   3.727   6.088  15.436  0.1553 -0.8064  0.5842
 4715TIP3   OH235559   6.110   2.176  14.048  0.3558  0.0479  0.6160
 4715TIP3    H135560   6.058   2.247  14.086  1.4675  1.6525 -0.6549
 4715TIP3    H235561   6.115   2.110  14.116 -1.0013  1.0590  1.7540
 4716TIP3   OH235562   6.596   2.408  15.044 -0.5132  0.5804 -0.2285
 4716TIP3    H135563   6.596   2.375  14.954  3.6551  1.0228 -0.5474
 4716TIP3    H235564   6.650   2.487  15.041 -0.1339  0.5321  2.6797
 4717TIP3   OH235565   4.135   6.787  12.340 -0.1773  1.0614 -0.3054
 4717TIP3    H135566   4.197   6.773  12.411  0.2258 -0.6244 -0.9470
 4717TIP3    H235567   4.158   6.872  12.304  2.0370  0.3408 -0.7560
 4718TIP3   OH235568   5.798   0.394  10.866  0.4808 -0.0623  0.1286
 4718TIP3    H135569   5.795   0.299  10.857  0.4225 -0.3154  2.2272
 4718TIP3    H235570   5.850   0.424  10.791 -1.1152 -1.5272 -1.6864
 4719TIP3   OH235571   0.867   2.714  12.089  0.1795 -0.1684  0.0210
 4719TIP3    H135572   0.852   2.748  12.001 -1.4402  1.4832  0.8508
 4719TIP3    H235573   0.790   2.660  12.107  0.4949 -0.4857  0.4142
 4720TIP3   OH235574   5.964   5.421   2.137  0.7210 -0.4174 -0.0186
 4720TIP3    H135575   6.024   5.471   2.193  0.4365 -1.1248  0.9581
 4720TIP3    H235576   5.945   5.479   2.064  1.5498  0.3289  0.3366
 4721TIP3   OH235577   4.099   3.436   3.361  0.6121 -0.0310  0.5888
 4721TIP3    H135578   4.126   3.480   3.280 -1.2745  2.0582  0.9695
 4721TIP3    H235579   4.019   3.389   3.337 -0.2097  0.9641  1.2801
 4722TIP3   OH235580   4.487   5.491  16.066  0.1318 -0.5522  0.4676
 4722TIP3    H135581   4.555   5.503  16.132  1.5346  1.9917 -1.2848
 4722TIP3    H235582   4.512   5.411  16.019  0.7591 -0.7314  1.0981
 4723TIP3   OH235583   4.960   5.961  12.222  0.4630  0.5978 -0.5322
 4723TIP3    H135584   4.879   5.969  12.272  0.0955 -2.5580 -0.3827
 4723TIP3    H235585   4.957   6.034  12.160 -2.8723  0.2667 -0.9868
 4724TIP3   OH235586   0.946   3.331   0.948 -0.0299 -0.6207  0.1995
 4724TIP3    H135587   1.029   3.292   0.921  0.1549 -1.9810  2.4761
 4724TIP3    H235588   0.879   3.273   0.912  0.0599 -0.3533 -0.4007
 4725TIP3   OH235589   6.701   4.685  15.435 -0.0637  0.6513  0.0707
 4725TIP3    H135590   6.775   4.657  15.380  0.3652  0.8683  0.5239
 4725TIP3    H235591   6.729   4.768  15.472 -0.7516  0.9866 -0.1448
 4726TIP3   OH235592   5.137   2.677   1.251  0.1218  0.3497 -0.2862
 4726TIP3    H135593   5.187   2.757   1.265 -0.4851  0.9444 -1.4196
 4726TIP3    H235594   5.135   2.666   1.156 -0.2348 -0.7313 -0.1660
 4727TIP3   OH235595   5.657   1.644  14.071 -0.1988 -0.2568 -0.1975
 4727TIP3    H135596   5.724   1.596  14.023  1.0759  2.0054 -0.8179
 4727TIP3    H235597   5.689   1.644  14.162 -0.5236 -1.0973 -0.0811
 4728TIP3   OH235598   3.312   5.178  11.088 -0.3847  0.0069  0.0899
 4728TIP3    H135599   3.331   5.264  11.125 -1.2038 -0.1945  1.0344
 4728TIP3    H235600   3.395   5.150  11.049 -0.6170  2.0630 -2.0803
 4729TIP3   OH235601   0.324   4.792  12.446  0.3324 -0.3094 -0.6903
 4729TIP3    H135602   0.261   4.721  12.460  0.9997 -1.0737 -1.4238
 4729TIP3    H235603   0.273   4.859  12.399 -0.0669 -0.7045 -0.8361
 4730TIP3   OH235604   3.823   2.774   2.016  0.3473 -0.1185 -0.3374
 4730TIP3    H135605   3.779   2.689   2.007  0.1508 -0.0189 -0.3340
 4730TIP3    H235606   3.915   2.755   2.001  0.5117 -0.5846  1.0785
 4731TIP3   OH235607   2.321   1.210   4.978 -0.4047 -0.1023  0.6777
 4731TIP3    H135608   2.368   1.152   4.918 -0.6992  1.3224 -1.0113
 4731TIP3    H235609   2.389   1.257   5.025 -0.1636 -0.2500  0.4770
 4732TIP3   OH235610   5.801   6.384  17.081  0.1616 -0.1950  0.6762
 4732TIP3    H135611   5.863   6.318  17.049  0.8316  0.7599 -0.0457
 4732TIP3    H235612   5.727   6.378  17.021  0.9769  0.8837 -0.5020
 4733TIP3   OH235613   3.105   2.015  11.644 -0.3120 -0.2016  0.1268
 4733TIP3    H135614   3.053   1.959  11.587  2.6598 -1.8607 -1.1644
 4733TIP3    H235615   3.078   2.104  11.621 -1.7363 -0.9417 -1.2610
 4734TIP3   OH235616   2.824   1.549  12.654  0.2823 -1.0521  0.6688
 4734TIP3    H135617   2.750   1.588  12.700 -2.0327 -2.2505 -1.8173
 4734TIP3    H235618   2.860   1.620  12.602 -0.3045 -0.8959  0.4740
 4735TIP3   OH235619   4.161   3.668  10.644  0.1945 -0.3896 -0.2004
 4735TIP3    H135620   4.163   3.658  10.739  1.4506 -0.8241 -0.2545
 4735TIP3    H235621   4.225   3.738  10.627 -1.3057  0.9536 -0.6075
 4736TIP3   OH235622   4.608   5.139   0.067  0.2420  0.7642 -0.1869
 4736TIP3    H135623   4.668   5.109   0.136 -0.4599 -1.7476 -0.5904
 4736TIP3    H235624   4.584   5.060   0.020 -1.2630  2.0960 -1.7844
 4737TIP3   OH235625   3.481   4.114   3.533  0.3940  0.6343 -0.4168
 4737TIP3    H135626   3.406   4.132   3.589  1.3446 -1.1253  1.5975
 4737TIP3    H235627   3.557   4.137   3.587  1.3539 -0.5398 -1.2084
 4738TIP3   OH235628   1.716   5.851  16.764 -0.2865  0.7511  0.5667
 4738TIP3    H135629   1.684   5.770  16.804  0.2844 -0.2856 -0.9679
 4738TIP3    H235630   1.645   5.879  16.706 -0.2779  1.0770  0.7110
 4739TIP3   OH235631   4.137   5.647  13.262  0.3985  0.1520 -0.1300
 4739TIP3    H135632   4.115   5.569  13.211 -0.9367  0.4640 -0.0519
 4739TIP3    H235633   4.232   5.654  13.254  0.3619 -0.5471 -1.5022
 4740TIP3   OH235634   2.866   1.440  14.228  0.0797  0.2452  0.3285
 4740TIP3    H135635   2.866   1.390  14.310 -1.2298  1.8669  1.3936
 4740TIP3    H235636   2.774   1.441  14.201  0.3144  0.7621 -0.4961
 4741TIP3   OH235637   2.279   2.752   0.963  0.2860  0.0448  0.4938
 4741TIP3    H135638   2.283   2.818   1.032  1.5387 -0.4892  0.9610
 4741TIP3    H235639   2.303   2.670   1.006 -0.3051 -0.5517 -0.2793
 4742TIP3   OH235640   1.518   6.249  11.000 -0.2702  0.4742 -0.0196
 4742TIP3    H135641   1.576   6.236  11.076 -0.5742  0.4696  0.2136
 4742TIP3    H235642   1.446   6.302  11.034  0.2961  1.6899 -0.6509
 4743TIP3   OH235643   5.614   2.072  12.154  0.2679 -0.4363  0.8659
 4743TIP3    H135644   5.659   1.990  12.134  0.9104  0.6103 -2.7848
 4743TIP3    H235645   5.541   2.075  12.092 -1.1958  0.6951  2.5591
 4744TIP3   OH235646   3.507   0.243   1.128 -0.4959  0.3068 -0.0459
 4744TIP3    H135647   3.468   0.288   1.203 -0.3274 -0.2013  0.3479
 4744TIP3    H235648   3.601   0.254   1.139 -0.3867 -1.1666  0.7196
 4745TIP3   OH235649   4.156   5.986  13.004  0.1101 -0.6373  0.1545
 4745TIP3    H135650   4.108   5.904  12.994 -2.3541  0.3348  2.6894
 4745TIP3    H235651   4.117   6.046  12.940  1.8028 -1.2930 -1.5865
 4746TIP3   OH235652   2.600   4.430  15.682  0.3656 -0.0981 -0.2781
 4746TIP3    H135653   2.561   4.420  15.595 -0.7510  0.9561  0.0804
 4746TIP3    H235654   2.534   4.397  15.742  0.4533  0.7194  0.2788
 4747TIP3   OH235655   0.085   6.617   0.667 -0.2378  0.1391 -0.1938
 4747TIP3    H135656   0.177   6.624   0.693 -0.3813  1.4509  0.0045
 4747TIP3    H235657   0.036   6.643   0.745 -0.8063 -0.9848 -0.1539
 4748TIP3   OH235658   2.198   0.147  10.742 -0.2413 -0.3870 -0.2238
 4748TIP3    H135659   2.144   0.078  10.782 -1.5895  0.5059 -0.4361
 4748TIP3    H235660   2.135   0.211  10.708  0.9415  1.4810  0.8746
 4749TIP3   OH235661   4.736   1.624   5.906 -0.2641 -0.3918 -0.1691
 4749TIP3    H135662   4.654   1.653   5.865 -0.3755 -0.4198  0.0293
 4749TIP3    H235663   4.790   1.595   5.834  0.2343  1.2263 -0.4825
 4750TIP3   OH235664   2.374   0.673  15.209 -0.5291 -0.1897 -0.0740
 4750TIP3    H135665   2.352   0.742  15.271 -2.0649 -1.3574  0.7433
 4750TIP3    H235666   2.349   0.709  15.124  2.2023  1.6806 -0.2275
 4751TIP3   OH235667   6.597   2.898   5.658 -0.3984  0.0502 -0.7061
 4751TIP3    H135668   6.631   2.942   5.736 -0.2879 -1.9824  0.4665
 4751TIP3    H235669   6.675   2.872   5.609 -0.3840 -0.7951 -0.2433
 4752TIP3   OH235670   4.941   4.623   3.494  0.2676 -0.2767  0.1501
 4752TIP3    H135671   5.011   4.627   3.429 -1.7804 -0.0411 -2.1329
 4752TIP3    H235672   4.986   4.643   3.577  2.7339  0.8005 -1.3102
 4753TIP3   OH235673   5.709   5.699  12.907  0.8344 -0.1409 -0.1240
 4753TIP3    H135674   5.699   5.775  12.850  0.5567 -0.8253 -1.0157
 4753TIP3    H235675   5.795   5.711  12.947 -0.0708  1.7175  1.4148
 4754TIP3   OH235676   3.977   2.351   1.413  0.1259 -0.2424 -0.3159
 4754TIP3    H135677   4.025   2.275   1.444  0.4559 -0.1531 -0.6011
 4754TIP3    H235678   3.933   2.322   1.333  1.1792  0.1764 -1.0665
 4755TIP3   OH235679   4.879   2.534  16.629  0.6602 -0.4345  0.0772
 4755TIP3    H135680   4.827   2.457  16.650  1.2719 -0.7037  0.6507
 4755TIP3    H235681   4.872   2.543  16.533  0.5305 -1.1553  0.0180
 4756TIP3   OH235682   0.460   5.979   0.719 -0.2233 -0.1803  0.4010
 4756TIP3    H135683   0.478   5.972   0.812 -0.0019  1.1714  0.4795
 4756TIP3    H235684   0.371   6.013   0.714  0.4266  1.6341  0.1984
 4757TIP3   OH235685   1.288   4.124   5.204 -0.0136 -0.1167  0.2796
 4757TIP3    H135686   1.362   4.179   5.179  0.3970 -1.2574 -1.1665
 4757TIP3    H235687   1.214   4.159   5.154 -0.1335  0.1198  0.6161
 4758TIP3   OH235688   6.353   3.615   5.706  0.0354 -0.7452  0.4048
 4758TIP3    H135689   6.445   3.607   5.733 -0.2956  1.3923  2.5175
 4758TIP3    H235690   6.314   3.674   5.771 -1.9771  1.3847 -2.4961
 4759TIP3   OH235691   0.923   6.747  13.011 -0.3139  0.1277  0.6758
 4759TIP3    H135692   0.867   6.822  12.988 -0.6274 -0.5769 -1.0163
 4759TIP3    H235693   0.869   6.670  12.992  1.3941 -0.6052 -1.7080
 4760TIP3   OH235694   4.665   0.371   2.556  0.1884  0.2387 -0.1178
 4760TIP3    H135695   4.583   0.334   2.587  0.7599  0.7749  2.2222
 4760TIP3    H235696   4.733   0.328   2.608  1.1449  1.8192  0.0274
 4761TIP3   OH235697   0.768   0.126  11.847  0.9288 -0.0120  0.8358
 4761TIP3    H135698   0.678   0.120  11.816  0.9185 -0.9021  1.0122
 4761TIP3    H235699   0.813   0.178  11.780  0.7179 -1.1826 -0.2416
 4762TIP3   OH235700   1.637   5.573  17.006 -0.2468 -0.6112 -0.2773
 4762TIP3    H135701   1.647   5.496  17.062 -0.6927 -0.9062 -0.5973
 4762TIP3    H235702   1.641   5.647  17.067  2.2734 -0.7554 -0.1951
 4763TIP3   OH235703   1.985   6.050   2.870  0.2587  0.1931 -0.0500
 4763TIP3    H135704   2.030   6.084   2.948 -0.2342  2.4279 -0.6532
 4763TIP3    H235705   1.896   6.031   2.900  0.9206 -2.1467  0.6370
 4764TIP3   OH235706   1.745   1.573   6.083  0.4816 -0.2156  0.3232
 4764TIP3    H135707   1.804   1.540   6.151  1.1848 -1.2396 -0.7553
 4764TIP3    H235708   1.691   1.498   6.059 -1.3286  0.7147  1.3037
 4765TIP3   OH235709   2.751   5.974  12.249 -0.9698 -0.3965 -0.3224
 4765TIP3    H135710   2.679   5.929  12.205 -0.1313 -1.8779 -0.2316
 4765TIP3    H235711   2.746   5.946  12.340  0.0956 -1.0331 -0.4418
 4766TIP3   OH235712   2.914   0.761   5.771 -0.7867 -0.2714  0.0013
 4766TIP3    H135713   2.842   0.822   5.755 -0.9724 -0.1730  1.1320
 4766TIP3    H235714   2.896   0.725   5.858  1.1907  0.7415  0.8981
 4767TIP3   OH235715   3.468   2.677  13.935  0.1748 -0.4529  0.1382
 4767TIP3    H135716   3.528   2.603  13.928  1.0086  0.2870 -0.9973
 4767TIP3    H235717   3.525   2.754  13.929 -0.7881  0.2695  0.1098
 4768TIP3   OH235718   5.033   5.718   2.981  0.0527  0.0655 -0.0168
 4768TIP3    H135719   5.059   5.652   3.045  0.0555  1.3462  1.3531
 4768TIP3    H235720   5.108   5.725   2.922  1.4485  1.1387  1.7702
 4769TIP3   OH235721   1.865   0.911  10.824 -0.4697  0.6499 -0.0719
 4769TIP3    H135722   1.938   0.866  10.866  0.8940  2.1703 -0.6778
 4769TIP3    H235723   1.881   1.004  10.842 -1.6443  1.0979 -1.1883
 4770TIP3   OH235724   0.264   4.588   0.481 -0.0496 -0.2940  0.0393
 4770TIP3    H135725   0.299   4.507   0.443  0.7031  0.3160 -0.6064
 4770TIP3    H235726   0.334   4.652   0.467  0.9587 -0.3482  3.7483
 4771TIP3   OH235727   0.730   2.509   1.564 -0.3486  0.2087 -0.0183
 4771TIP3    H135728   0.721   2.415   1.578  0.2898 -0.0540 -1.1919
 4771TIP3    H235729   0.723   2.520   1.469  0.0705  1.2847  0.0581
 4772TIP3   OH235730   1.712   3.318   3.078  0.1389 -0.1733 -0.4788
 4772TIP3    H135731   1.739   3.354   3.163 -1.9577  0.5481 -0.0581
 4772TIP3    H235732   1.770   3.361   3.015 -0.3154  1.7296  0.3072
 4773TIP3   OH235733   1.274   0.624  16.191  0.6863 -0.2176 -0.2147
 4773TIP3    H135734   1.272   0.566  16.115 -3.0777  0.8584 -1.1909
 4773TIP3    H235735   1.182   0.627  16.220  1.1906  2.9956  1.5034
 4774TIP3   OH235736   2.919   0.144   5.761 -0.0890 -0.3427 -0.0155
 4774TIP3    H135737   2.921   0.231   5.801 -0.0200 -1.0140  1.5221
 4774TIP3    H235738   2.890   0.086   5.832  0.5022 -1.6688 -0.8226
 4775TIP3   OH235739   1.175   0.811  16.535 -0.8305 -0.2580 -0.5398
 4775TIP3    H135740   1.084   0.783  16.535 -0.4544 -2.0035  2.8277
 4775TIP3    H235741   1.223   0.736  16.499 -0.5707 -0.2732 -0.1778
 4776TIP3   OH235742   4.979   0.400  15.853  0.2837 -0.1327  0.1568
 4776TIP3    H135743   4.926   0.433  15.780  0.0897 -0.7643  0.0047
 4776TIP3    H235744   4.933   0.430  15.931 -1.9660 -2.9982  0.1177
 4777TIP3   OH235745   3.008   2.180   5.570 -0.3627  0.5617 -0.3643
 4777TIP3    H135746   3.008   2.089   5.599 -1.5510  0.7972  0.4566
 4777TIP3    H235747   3.100   2.200   5.553 -0.1765 -1.1042 -1.6329
 4778TIP3   OH235748   6.574   0.586  12.027 -0.4273  0.3546 -0.2205
 4778TIP3    H135749   6.480   0.601  12.032 -0.4226  0.2098  0.3889
 4778TIP3    H235750   6.603   0.640  11.954 -0.6835  1.8925  0.7658
 4779TIP3   OH235751   4.913   0.042   3.950 -0.2188  0.0620 -0.5792
 4779TIP3    H135752   4.838   0.004   3.996 -1.0407  1.4083 -0.7562
 4779TIP3    H235753   4.937  -0.024   3.884  0.0534 -1.2461  0.7909
 4780TIP3   OH235754   4.573   6.057  14.097 -0.0754 -0.7201  0.0426
 4780TIP3    H135755   4.592   6.132  14.040  0.2289 -1.8637 -1.4348
 4780TIP3    H235756   4.621   6.076  14.177  1.5984 -0.2075 -1.0158
 4781TIP3   OH235757   0.724   2.619   2.931  0.0411 -0.0612 -0.0300
 4781TIP3    H135758   0.756   2.532   2.910  0.2334 -0.5826  2.1696
 4781TIP3    H235759   0.794   2.678   2.903  1.1031 -0.8528  0.9029
 4782TIP3   OH235760   3.731   2.434  11.667 -0.6163  0.4313  0.1929
 4782TIP3    H135761   3.721   2.419  11.573 -2.1125  0.8646  0.2561
 4782TIP3    H235762   3.663   2.381  11.708  1.8004 -2.0605  1.3071
 4783TIP3   OH235763   2.550   5.274   3.978 -0.0482 -0.5407 -0.4985
 4783TIP3    H135764   2.524   5.229   4.058  1.8401 -0.9294 -0.0582
 4783TIP3    H235765   2.562   5.365   4.003  0.9133 -0.7303 -0.2158
 4784TIP3   OH235766   4.898   5.384   2.561  0.5942 -0.1230  0.1161
 4784TIP3    H135767   4.896   5.477   2.582 -1.2394  0.1937 -1.1702
 4784TIP3    H235768   4.827   5.346   2.612 -0.9883 -0.1228 -1.9377
 4785TIP3   OH235769   4.268   1.450   2.518 -0.1635 -0.0706  0.1111
 4785TIP3    H135770   4.236   1.540   2.530  2.2510  0.8386  0.3432
 4785TIP3    H235771   4.300   1.424   2.604  0.7039 -0.4763 -0.3168
 4786TIP3   OH235772   3.305   4.554   3.666  0.4194 -0.5109  0.5345
 4786TIP3    H135773   3.321   4.603   3.586  0.9714 -0.4216  0.6925
 4786TIP3    H235774   3.211   4.560   3.681  0.3127 -0.5331 -0.1084
 4787TIP3   OH235775   4.212   2.949  13.681 -0.9154 -1.0413 -0.6103
 4787TIP3    H135776   4.296   2.993  13.688 -2.1802  1.7949 -1.5951
 4787TIP3    H235777   4.231   2.857  13.696  2.2260 -0.4178 -0.1882
 4788TIP3   OH235778   2.831   3.396  14.540  0.4657  0.3505  0.2490
 4788TIP3    H135779   2.855   3.439  14.622 -0.7076  1.2901  0.1358
 4788TIP3    H235780   2.846   3.463  14.473 -0.6858  0.3475 -0.0264
 4789TIP3   OH235781   0.673   4.775  16.590  0.5735  0.0407 -0.3788
 4789TIP3    H135782   0.664   4.865  16.559  1.0905 -0.3147 -1.6422
 4789TIP3    H235783   0.610   4.767  16.661  0.1657  1.2554 -0.5900
 4790TIP3   OH235784   4.734   2.918   4.336 -0.2461  0.6710 -0.1194
 4790TIP3    H135785   4.818   2.916   4.292 -1.2074 -0.8846 -2.0012
 4790TIP3    H235786   4.726   2.833   4.378 -0.8061  0.8710  0.1984
 4791TIP3   OH235787   2.017   5.542   0.965 -0.7185 -0.3618  0.1762
 4791TIP3    H135788   1.933   5.499   0.946 -1.2735 -0.0607  1.8233
 4791TIP3    H235789   2.027   5.605   0.893 -2.5072  0.4471  0.5652
 4792TIP3   OH235790   2.749   3.909   5.930 -0.3386 -0.3601 -0.6472
 4792TIP3    H135791   2.699   3.923   6.010  1.1794  0.0507  0.2515
 4792TIP3    H235792   2.781   3.995   5.906  2.5119 -0.9879  0.5494
 4793TIP3   OH235793   4.043   5.110  16.263  0.1092  0.0381 -0.0237
 4793TIP3    H135794   4.045   5.054  16.340  0.4083 -0.8737 -0.6763
 4793TIP3    H235795   4.080   5.193  16.293 -0.5418 -0.0269  1.0087
 4794TIP3   OH235796   3.180   2.212   0.918  0.1371  0.2070 -0.0683
 4794TIP3    H135797   3.232   2.220   0.839 -0.6516  2.9521 -0.4124
 4794TIP3    H235798   3.132   2.295   0.924 -1.7427 -0.9082  1.9373
 4795TIP3   OH235799   6.051   1.761  16.285 -0.0417 -0.3214 -0.2601
 4795TIP3    H135800   6.146   1.757  16.273 -0.0941  0.8254 -1.3340
 4795TIP3    H235801   6.021   1.674  16.261  0.6245 -0.2912 -1.2800
 4796TIP3   OH235802   5.531   2.858   0.354  0.3310  0.0006  0.1469
 4796TIP3    H135803   5.494   2.779   0.313  0.4641 -1.8165  3.2471
 4796TIP3    H235804   5.617   2.867   0.313 -0.0649 -0.8794 -0.9505
 4797TIP3   OH235805   6.123   0.936   2.090 -0.6293  0.9707 -0.4434
 4797TIP3    H135806   6.133   1.017   2.140 -0.9284 -0.4213  2.0443
 4797TIP3    H235807   6.138   0.961   1.999  0.7151  3.5187  0.4090
 4798TIP3   OH235808   3.827   1.634  14.323  0.0902  0.3086  0.6109
 4798TIP3    H135809   3.890   1.594  14.383  1.4186  0.2974 -0.7469
 4798TIP3    H235810   3.865   1.622  14.237 -1.5598  0.7426 -0.2192
 4799TIP3   OH235811   3.581   2.405   1.435  0.5627 -0.2843  0.8188
 4799TIP3    H135812   3.517   2.348   1.394 -1.6543  1.7282  1.2802
 4799TIP3    H235813   3.624   2.350   1.501 -1.2050 -1.5264  0.9904
 4800TIP3   OH235814   0.418   5.263   1.280 -0.4305  0.3493  0.2851
 4800TIP3    H135815   0.436   5.356   1.271  0.1347  0.1261 -1.1629
 4800TIP3    H235816   0.489   5.230   1.336 -1.1175  0.9167  1.5186
 4801TIP3   OH235817   4.678   4.398  12.371 -0.0456 -0.1992 -0.2844
 4801TIP3    H135818   4.693   4.483  12.329  0.4980 -0.7528 -1.2688
 4801TIP3    H235819   4.605   4.412  12.430 -1.4520  0.4464 -2.0789
 4802TIP3   OH235820   1.907   1.925  11.640  0.2001 -0.2713 -0.5593
 4802TIP3    H135821   1.973   1.888  11.699 -1.1786 -0.5547  0.8527
 4802TIP3    H235822   1.937   1.901  11.553  1.2679 -1.5517  0.1316
 4803TIP3   OH235823   2.006   4.801  15.648  0.4304  0.1435  0.4396
 4803TIP3    H135824   2.086   4.804  15.595  0.7024  0.1043  0.8439
 4803TIP3    H235825   2.006   4.882  15.697 -0.3380  0.6406 -0.3440
 4804TIP3   OH235826   1.934   3.551   5.208 -0.4331  0.2816  0.1622
 4804TIP3    H135827   1.937   3.469   5.259  0.9688 -0.1620 -0.5622
 4804TIP3    H235828   1.898   3.526   5.124  3.8955 -0.6822 -1.6923
 4805TIP3   OH235829   4.227   1.875   4.515  0.2441  0.1207 -0.1344
 4805TIP3    H135830   4.143   1.905   4.550  0.1801  2.3697 -1.9046
 4805TIP3    H235831   4.286   1.875   4.589 -1.1828 -1.1411  1.0783
 4806TIP3   OH235832   1.636   2.756   5.579  0.2818  0.9919  0.3057
 4806TIP3    H135833   1.700   2.685   5.587 -0.9421  0.0285  1.9406
 4806TIP3    H235834   1.679   2.832   5.620  0.2247  0.2180  1.8603
 4807TIP3   OH235835   5.341   4.188   3.856  0.3421  0.0551 -0.1413
 4807TIP3    H135836   5.253   4.223   3.869 -0.0091 -0.0169 -2.1281
 4807TIP3    H235837   5.400   4.261   3.874 -0.2238  0.6644 -0.7572
 4808TIP3   OH235838   1.888   0.637   1.002 -0.2344 -0.2958  0.3633
 4808TIP3    H135839   1.911   0.684   1.082 -0.1712 -0.9446  0.7337
 4808TIP3    H235840   1.792   0.637   1.002 -0.2364 -0.6321  0.6439
 4809TIP3   OH235841   5.556   2.243   5.006 -0.3644 -0.2210  0.1907
 4809TIP3    H135842   5.537   2.157   4.969  0.3582 -0.2552 -0.1075
 4809TIP3    H235843   5.471   2.275   5.037 -0.5057 -1.4216  1.1269
 4810TIP3   OH235844   4.812   4.916  12.861  0.3415 -0.6354  0.2938
 4810TIP3    H135845   4.803   4.884  12.771 -0.3792  0.7872 -0.1773
 4810TIP3    H235846   4.900   4.889  12.888  0.4565 -1.3316 -0.7251
 4811TIP3   OH235847   5.628   1.665   2.257  0.0591  0.1492 -0.2516
 4811TIP3    H135848   5.723   1.654   2.263  0.0038 -0.0375  0.4075
 4811TIP3    H235849   5.613   1.756   2.281 -0.0243 -0.1678  1.0051
 4812TIP3   OH235850   1.930   4.409  10.344 -0.5317 -0.1660 -0.1089
 4812TIP3    H135851   1.975   4.348  10.286  1.1055  0.4754  0.4183
 4812TIP3    H235852   1.878   4.353  10.402 -1.0367 -0.8858 -1.2210
 4813TIP3   OH235853   5.667   3.763  11.343 -0.3563 -0.2022 -0.2101
 4813TIP3    H135854   5.659   3.697  11.412 -0.4791 -0.6251 -0.6227
 4813TIP3    H235855   5.711   3.718  11.271 -1.8422 -0.3147 -1.1053
 4814TIP3   OH235856   3.081   4.095   5.743 -0.0077  0.2290  0.6658
 4814TIP3    H135857   3.033   4.139   5.813 -0.1251 -0.5090  1.0606
 4814TIP3    H235858   3.155   4.054   5.788  1.3884  1.8764 -0.0117
 4815TIP3   OH235859   1.757   5.289   1.826  0.2697  0.5706 -0.5701
 4815TIP3    H135860   1.779   5.379   1.804 -3.6950  2.1212  0.7801
 4815TIP3    H235861   1.682   5.268   1.769  0.6602 -1.6327 -0.3618
 4816TIP3   OH235862   0.826   0.593  13.715 -0.4649  0.6817 -0.1898
 4816TIP3    H135863   0.864   0.651  13.649 -0.6244 -1.6516 -2.4760
 4816TIP3    H235864   0.886   0.519  13.720 -0.8335  0.4641  1.8191
 4817TIP3   OH235865   5.196   5.082  16.881 -0.0279 -0.2109  0.3226
 4817TIP3    H135866   5.242   5.166  16.881 -1.4474  0.6076  1.5704
 4817TIP3    H235867   5.227   5.038  16.801  1.7846  0.8816  0.3650
 4818TIP3   OH235868   3.773   3.361  10.854  0.4499  0.2980 -0.2458
 4818TIP3    H135869   3.796   3.382  10.945 -0.6769  1.2465 -0.1534
 4818TIP3    H235870   3.694   3.413  10.837  0.8749  0.4419 -1.9094
 4819TIP3   OH235871   4.824   6.012   1.694 -0.0951  0.1477  0.2878
 4819TIP3    H135872   4.762   6.085   1.698 -2.2906 -1.4265 -2.0936
 4819TIP3    H235873   4.810   5.964   1.776 -1.9398 -0.0273 -0.0856
 4820TIP3   OH235874   4.157   3.225  14.048 -0.5910  0.6509 -0.0007
 4820TIP3    H135875   4.226   3.174  14.091 -0.4183  1.0620  0.2222
 4820TIP3    H235876   4.082   3.166  14.044 -0.6933  0.6791  1.1093
 4821TIP3   OH235877   4.675   6.182  16.597  0.4563  0.1990 -0.3722
 4821TIP3    H135878   4.604   6.207  16.656 -1.1922  0.0383 -2.2219
 4821TIP3    H235879   4.748   6.163  16.656 -1.1218 -0.0523  1.6273
 4822TIP3   OH235880   6.696   4.939   1.487  0.0639 -0.2104  0.2835
 4822TIP3    H135881   6.657   4.851   1.496  1.7208 -1.0043  0.0756
 4822TIP3    H235882   6.785   4.923   1.456 -0.1346  1.6590 -1.4499
 4823TIP3   OH235883   3.185   2.691   0.592 -0.2481 -0.0766 -0.3008
 4823TIP3    H135884   3.110   2.702   0.652  0.7410 -0.7467  1.1193
 4823TIP3    H235885   3.193   2.596   0.582 -0.3981  0.0280 -1.5449
 4824TIP3   OH235886   3.747   2.015   2.341  0.0731  0.1691  0.0078
 4824TIP3    H135887   3.670   2.050   2.386 -0.1900  0.7209 -0.8428
 4824TIP3    H235888   3.716   1.993   2.253  1.2125  1.8848 -0.8735
 4825TIP3   OH235889   3.857   1.267  12.199  0.5910 -0.9090 -0.3566
 4825TIP3    H135890   3.798   1.192  12.196  0.1941 -0.5903 -0.6263
 4825TIP3    H235891   3.822   1.328  12.135 -0.6792  0.6729  1.7052
 4826TIP3   OH235892   2.509   0.991  12.657  0.2622  0.3582 -0.5021
 4826TIP3    H135893   2.487   0.924  12.593  0.1463  0.8732 -1.0096
 4826TIP3    H235894   2.440   0.985  12.723  0.3719 -0.1588 -0.4299
 4827TIP3   OH235895   2.444   4.215  12.976  0.0937  0.5050  0.2774
 4827TIP3    H135896   2.399   4.136  12.947  2.1115 -0.5629 -0.1149
 4827TIP3    H235897   2.504   4.185  13.044  1.3996  1.5560 -0.3700
 4828TIP3   OH235898   3.097   1.127   3.239  0.4533  0.6666 -0.3494
 4828TIP3    H135899   3.016   1.091   3.275  1.1251 -0.4285  0.1159
 4828TIP3    H235900   3.121   1.198   3.298  0.9712 -0.4170  0.7925
 4829TIP3   OH235901   3.234   5.007   2.970 -0.2170  0.0642  0.2505
 4829TIP3    H135902   3.193   4.941   3.027  0.7636 -1.7540 -1.0251
 4829TIP3    H235903   3.327   4.985   2.972 -0.0642  0.4384 -1.4222
 4830TIP3   OH235904   4.498   5.751  14.446  0.2464  0.4488  0.1248
 4830TIP3    H135905   4.584   5.765  14.485 -1.0219 -1.3335  4.0017
 4830TIP3    H235906   4.496   5.657  14.427 -0.3694  0.7386 -1.4142
 4831TIP3   OH235907   4.735   4.116   1.979 -0.3024 -0.0372  0.2578
 4831TIP3    H135908   4.692   4.073   1.905 -0.8565 -0.2716  0.7083
 4831TIP3    H235909   4.791   4.182   1.939 -0.2495 -0.4612 -0.3945
 4832TIP3   OH235910   6.338   6.383  13.267  0.0200  0.0224 -0.5053
 4832TIP3    H135911   6.278   6.458  13.267 -0.1272 -0.0934 -0.8362
 4832TIP3    H235912   6.349   6.361  13.359 -2.3957 -1.4886 -0.4941
 4833TIP3   OH235913   3.407   3.032  15.811 -0.2991  0.1302  0.1555
 4833TIP3    H135914   3.404   3.036  15.715  0.7826 -0.2018  0.0892
 4833TIP3    H235915   3.501   3.034  15.832 -0.5419  0.7534  1.2390
 4834TIP3   OH235916   5.373   3.133   0.024 -0.5354  0.2637 -0.4863
 4834TIP3    H135917   5.356   3.039   0.034  1.7561 -0.0412  1.5363
 4834TIP3    H235918   5.407   3.142  -0.065 -1.5775 -0.6555 -1.0024
 4835TIP3   OH235919   1.162   2.318  15.521 -0.0730  0.9380 -0.7361
 4835TIP3    H135920   1.081   2.320  15.471 -0.1289 -0.2624 -0.7368
 4835TIP3    H235921   1.155   2.391  15.582 -0.8731  1.2211 -1.1589
 4836TIP3   OH235922   1.629   6.459   6.187  0.3051  0.2428 -0.1895
 4836TIP3    H135923   1.544   6.452   6.144  0.8875  0.8619 -1.4934
 4836TIP3    H235924   1.630   6.546   6.226  0.7346  0.6519 -1.0891
 4837TIP3   OH235925   6.162   6.241  15.388  0.0246 -0.2367  0.5001
 4837TIP3    H135926   6.225   6.173  15.410  1.1109  0.5728  0.0113
 4837TIP3    H235927   6.118   6.210  15.309  0.2406 -0.5358  0.4992
 4838TIP3   OH235928   4.450   4.755   4.477 -0.1054  0.4670 -0.3395
 4838TIP3    H135929   4.426   4.779   4.388 -1.1708 -0.7288 -0.4080
 4838TIP3    H235930   4.533   4.707   4.467  0.0368  0.7721 -0.6247
 4839TIP3   OH235931   5.629   3.983   4.815  0.2763 -0.3130 -0.3429
 4839TIP3    H135932   5.590   3.903   4.779 -0.0734 -0.1266 -0.3855
 4839TIP3    H235933   5.668   3.956   4.897 -0.0133 -0.4917 -0.2599
 4840TIP3   OH235934   5.551   3.118  15.492  0.4598  0.3101  0.1036
 4840TIP3    H135935   5.592   3.118  15.579  0.1743  1.3882  0.2569
 4840TIP3    H235936   5.571   3.032  15.456 -1.7469 -1.3293  2.3470
 4841TIP3   OH235937   4.110   4.401  12.909 -0.0123  0.0071  0.4170
 4841TIP3    H135938   4.053   4.358  12.973  0.7314 -0.3310  0.8581
 4841TIP3    H235939   4.189   4.424  12.958 -0.1658  1.3948  0.0615
 4842TIP3   OH235940   1.019   4.257   6.141 -0.1143  0.9694 -0.2363
 4842TIP3    H135941   1.085   4.222   6.082  0.1443  0.8330  0.1299
 4842TIP3    H235942   1.069   4.308   6.205 -0.3514  0.8130  0.0787
 4843TIP3   OH235943   3.438   4.391   2.002 -0.1496 -0.0432 -0.1687
 4843TIP3    H135944   3.459   4.484   1.994  0.7415 -0.3321 -1.5109
 4843TIP3    H235945   3.454   4.355   1.914  0.6783 -1.6810  0.6143
 4844TIP3   OH235946   1.567   5.646   4.555 -0.6129 -0.1473 -0.1867
 4844TIP3    H135947   1.477   5.614   4.566 -0.5795 -0.2993 -0.3551
 4844TIP3    H235948   1.573   5.668   4.462  0.2346 -2.3234 -0.7172
 4845TIP3   OH235949   4.410   0.959   1.514  0.1132 -0.1167  0.0153
 4845TIP3    H135950   4.440   0.869   1.526  0.7176  0.2601  1.5306
 4845TIP3    H235951   4.341   0.970   1.579  0.3028  0.6319  0.0998
 4846TIP3   OH235952   1.656   2.027   3.760 -0.5149  0.1755  0.1622
 4846TIP3    H135953   1.660   2.081   3.839  1.7610  0.0384  0.2095
 4846TIP3    H235954   1.746   1.995   3.749 -1.2403 -1.4491 -1.3556
 4847TIP3   OH235955   3.423   2.107   0.493  0.1375  0.1726 -0.0591
 4847TIP3    H135956   3.458   2.189   0.527 -1.0372  0.7621 -0.2214
 4847TIP3    H235957   3.329   2.111   0.512  0.1778 -1.5244  0.7119
 4848TIP3   OH235958   3.374   1.404  12.796 -0.4073  0.1027 -0.5154
 4848TIP3    H135959   3.377   1.396  12.701 -3.0565  1.1056 -0.7791
 4848TIP3    H235960   3.282   1.385  12.819  0.5589 -2.0621  2.0846
 4849TIP3   OH235961   0.205   4.425   2.270  0.2233  0.2878  0.0615
 4849TIP3    H135962   0.166   4.512   2.269 -1.5757 -0.4211  1.5816
 4849TIP3    H235963   0.182   4.390   2.356  1.5067 -1.4368 -0.2466
 4850TIP3   OH235964   0.465   4.300   1.239 -0.2902  0.9849 -0.1149
 4850TIP3    H135965   0.463   4.313   1.144 -0.5407  1.5620 -0.0367
 4850TIP3    H235966   0.500   4.382   1.273 -2.0894  1.5917  0.4208
 4851TIP3   OH235967   1.757   1.358  11.433 -0.1482  0.4474  0.2164
 4851TIP3    H135968   1.735   1.450  11.443 -1.1005  0.0995  1.6349
 4851TIP3    H235969   1.704   1.328  11.359 -1.6134  0.5252  1.1975
 4852TIP3   OH235970   1.745   2.451   3.726 -0.6774 -0.0131 -0.3117
 4852TIP3    H135971   1.706   2.536   3.710  1.5710  1.2450  0.4053
 4852TIP3    H235972   1.777   2.423   3.640 -1.1801 -0.0191 -0.5000
 4853TIP3   OH235973   3.027   3.821  16.794 -0.1337 -0.1361  0.0189
 4853TIP3    H135974   3.079   3.872  16.857 -1.7876  1.2708  0.3405
 4853TIP3    H235975   2.962   3.776  16.849 -1.2716  0.7022 -0.5986
 4854TIP3   OH235976   3.070   6.751   2.703 -0.5443 -0.0838 -0.3320
 4854TIP3    H135977   2.987   6.730   2.660  0.3303 -0.0928 -2.0963
 4854TIP3    H235978   3.080   6.845   2.690 -1.0067  0.2395  1.3103
 4855TIP3   OH235979   0.610   3.481  11.151  0.1686  0.1046  0.4750
 4855TIP3    H135980   0.603   3.496  11.056 -0.4192 -1.6821  0.1972
 4855TIP3    H235981   0.565   3.398  11.165 -2.8785  1.9689  2.8645
 4856TIP3   OH235982   2.589   0.083   4.690 -0.5894  0.5534  0.4040
 4856TIP3    H135983   2.529   0.020   4.652  0.8791 -0.1928 -0.7412
 4856TIP3    H235984   2.594   0.059   4.783  0.5739 -1.5998 -0.1553
 4857TIP3   OH235985   6.103   4.340  14.648 -0.1184 -0.3041  0.3421
 4857TIP3    H135986   6.012   4.330  14.620 -0.2306 -0.8064  0.8590
 4857TIP3    H235987   6.114   4.274  14.716  0.5077  0.0534  0.5946
 4858TIP3   OH235988   5.658   1.261  16.931  0.1746  0.1887 -0.9461
 4858TIP3    H135989   5.598   1.239  17.002 -0.1857 -1.3423 -1.6928
 4858TIP3    H235990   5.623   1.342  16.894 -0.4744  0.2073 -0.3055
 4859TIP3   OH235991   1.978   3.007   5.492  0.1976  0.0223  0.6794
 4859TIP3    H135992   1.972   3.074   5.423  1.6285 -0.8139 -0.3173
 4859TIP3    H235993   1.906   3.027   5.551 -0.2627  1.5931 -0.3431
 4860TIP3   OH235994   6.669   2.991  10.812 -0.1283  0.7752 -0.2121
 4860TIP3    H135995   6.618   2.995  10.730 -0.0695  0.0237 -0.2948
 4860TIP3    H235996   6.752   3.032  10.790  0.0354  0.2235 -0.6537
 4861TIP3   OH235997   3.245   6.087   4.144 -0.4718  0.5083 -0.2997
 4861TIP3    H135998   3.323   6.079   4.089  0.4839  1.6479  0.8100
 4861TIP3    H235999   3.188   6.015   4.116  1.6581 -1.4106 -0.0609
 4862TIP3   OH236000   0.762   4.799  12.469 -0.0919 -0.2694  0.1425
 4862TIP3    H136001   0.748   4.885  12.508 -0.2528  0.3394 -1.1984
 4862TIP3    H236002   0.687   4.786  12.411 -0.5176 -1.7090  0.9542
 4863TIP3   OH236003   2.519   3.168  16.832  0.0218  0.3000 -0.0827
 4863TIP3    H136004   2.465   3.093  16.854 -0.4590  0.7238  0.1945
 4863TIP3    H236005   2.609   3.134  16.834 -0.0838  0.0758  1.4858
 4864TIP3   OH236006   3.632   0.254  13.470  0.4660 -0.4262 -0.0214
 4864TIP3    H136007   3.704   0.302  13.430 -0.1501 -0.8013 -1.6697
 4864TIP3    H236008   3.585   0.319  13.523  2.4224 -0.3541  1.7402
 4865TIP3   OH236009   5.287   0.452   1.349 -0.2960 -0.4985  0.1662
 4865TIP3    H136010   5.195   0.426   1.344 -1.2559  2.5282 -0.1162
 4865TIP3    H236011   5.297   0.484   1.439  0.6148 -1.2222  0.3291
 4866TIP3   OH236012   4.776   4.203  14.688  0.0633  0.3116 -0.2267
 4866TIP3    H136013   4.823   4.166  14.615  0.6260 -1.2053  0.8612
 4866TIP3    H236014   4.742   4.128  14.736 -1.3133  1.2949  0.4254
 4867TIP3   OH236015   6.563   0.724  14.470  0.1988  0.2705 -0.2806
 4867TIP3    H136016   6.494   0.790  14.483 -0.4801 -0.1413 -1.6388
 4867TIP3    H236017   6.629   0.769  14.417  0.5659  0.3936  0.2780
 4868TIP3   OH236018   1.278   3.801   2.719 -0.1908 -0.1701 -0.4625
 4868TIP3    H136019   1.247   3.822   2.631 -2.5833 -1.2564  0.0393
 4868TIP3    H236020   1.198   3.791   2.771  1.1342  0.7927  1.9514
 4869TIP3   OH236021   0.788   6.332   1.959  0.0582 -0.1642  0.0428
 4869TIP3    H136022   0.803   6.417   1.917 -0.8885  0.6166  1.2239
 4869TIP3    H236023   0.854   6.327   2.027 -0.2809 -0.0788  0.3829
 4870TIP3   OH236024   4.851   5.563  11.099 -0.0679 -0.2253 -0.2202
 4870TIP3    H136025   4.885   5.515  11.024 -0.3955  0.8967 -1.1315
 4870TIP3    H236026   4.776   5.611  11.064  0.3436  1.0614  0.5790
 4871TIP3   OH236027   3.088   2.672   3.665 -0.2585  0.1304  0.1266
 4871TIP3    H136028   3.126   2.600   3.715 -0.3951  0.2081  0.3471
 4871TIP3    H236029   3.044   2.630   3.591  0.8291  0.0945 -0.5098
 4872TIP3   OH236030   3.282   2.521  14.179 -0.3793  0.0594  0.7508
 4872TIP3    H136031   3.301   2.431  14.153 -0.5696  0.1947  0.1051
 4872TIP3    H236032   3.304   2.526  14.272  1.4112 -0.1640  0.3659
 4873TIP3   OH236033   5.688   1.543  12.798  0.0353  0.2873  0.2652
 4873TIP3    H136034   5.748   1.594  12.853  0.6370 -0.2947  0.1543
 4873TIP3    H236035   5.667   1.466  12.851  0.7497 -0.3605 -0.3672
 4874TIP3   OH236036   0.117   3.093  16.951 -0.3448  0.2935  0.3541
 4874TIP3    H136037   0.149   3.002  16.947 -1.8399 -0.2675  0.3890
 4874TIP3    H236038   0.122   3.115  17.044  1.7238  0.9286  0.1405
 4875TIP3   OH236039   2.875   3.005  10.981  0.2675 -0.8084  0.7018
 4875TIP3    H136040   2.805   2.951  11.018 -0.8930  0.2435  0.1065
 4875TIP3    H236041   2.841   3.094  10.984  0.7017 -0.5119 -1.5606
 4876TIP3   OH236042   5.390   3.429   6.149  0.1477  0.6501 -0.1402
 4876TIP3    H136043   5.348   3.449   6.233  1.1736 -0.0298  0.5650
 4876TIP3    H236044   5.343   3.353   6.116  0.7326 -0.0473  0.5961
 4877TIP3   OH236045   5.431   5.495   5.816  0.3301  0.4021 -0.3015
 4877TIP3    H136046   5.496   5.559   5.844  0.9316  0.2625 -1.3150
 4877TIP3    H236047   5.346   5.538   5.828  0.7235  1.3769 -0.9183
 4878TIP3   OH236048   3.657   0.835   3.075 -0.0127 -0.2694 -0.0246
 4878TIP3    H136049   3.577   0.814   3.028 -0.0505 -2.0580  0.7639
 4878TIP3    H236050   3.728   0.812   3.015 -0.0539  0.8062 -0.5148
 4879TIP3   OH236051   5.781   0.276   2.743  0.4063 -0.2165  0.0525
 4879TIP3    H136052   5.714   0.284   2.675  1.5731  2.5041 -0.9348
 4879TIP3    H236053   5.739   0.225   2.813 -1.6790 -0.9976 -1.6616
 4880TIP3   OH236054   6.340   0.655   6.189 -0.3989  0.1046 -0.3478
 4880TIP3    H136055   6.286   0.642   6.267 -1.0702 -1.9682 -1.0964
 4880TIP3    H236056   6.417   0.701   6.222 -0.5140 -0.9647  1.6105
 4881TIP3   OH236057   3.057   2.487   3.017 -0.3880  0.1761 -0.0152
 4881TIP3    H136058   3.112   2.496   3.095 -0.8659  1.3442  0.2062
 4881TIP3    H236059   3.023   2.397   3.022 -1.0727  0.4896  1.5727
 4882TIP3   OH236060   5.917   5.191   5.282  0.0114  0.3569  0.1625
 4882TIP3    H136061   5.892   5.160   5.369 -0.5072  0.3417  0.0150
 4882TIP3    H236062   5.929   5.286   5.293  1.2435  0.1753  0.5332
 4883TIP3   OH236063   3.407   6.078   2.922  0.4531  0.7480  0.0907
 4883TIP3    H136064   3.435   6.162   2.958  0.5210 -0.2932  2.7139
 4883TIP3    H236065   3.420   6.016   2.994 -0.0353 -1.4337 -1.6026
 4884TIP3   OH236066   6.329   2.545  16.371  0.0644 -0.1966 -0.1384
 4884TIP3    H136067   6.279   2.517  16.294 -2.7237  2.0829  0.6598
 4884TIP3    H236068   6.380   2.620  16.341 -1.2250  0.8581  0.2217
 4885TIP3   OH236069   1.154   2.258   5.797  0.1661 -0.2428  0.0502
 4885TIP3    H136070   1.237   2.215   5.819  0.6779  0.8812  0.3955
 4885TIP3    H236071   1.088   2.212   5.849  0.4940 -1.4289 -0.5569
 4886TIP3   OH236072   5.044   3.175  16.908 -0.0238  0.1141  0.2759
 4886TIP3    H136073   5.080   3.094  16.943  0.9241  0.3327 -0.1536
 4886TIP3    H236074   5.002   3.217  16.983 -0.1893 -0.5889  0.5838
 4887TIP3   OH236075   1.465   6.751  16.962  0.2373  0.4855  1.0059
 4887TIP3    H136076   1.530   6.705  17.014  0.9292  0.8489  0.4839
 4887TIP3    H236077   1.427   6.816  17.021  0.5120  0.4243  1.2477
 4888TIP3   OH236078   1.459   2.412  15.322 -0.2307 -0.2132  0.4002
 4888TIP3    H136079   1.515   2.476  15.277  1.1865 -2.1999 -0.8487
 4888TIP3    H236080   1.370   2.435  15.296  0.4055 -0.0539 -1.8112
 4889TIP3   OH236081   0.405   0.928  13.893 -0.6732  0.4705  0.2907
 4889TIP3    H136082   0.468   0.928  13.821 -0.7785 -0.8342  0.1655
 4889TIP3    H236083   0.329   0.975  13.858 -0.9285 -0.6018 -0.6644
 4890TIP3   OH236084   1.429   4.177  11.332 -0.1401  0.3227 -0.1128
 4890TIP3    H136085   1.423   4.259  11.381 -1.1627  0.2645 -0.1214
 4890TIP3    H236086   1.394   4.111  11.392 -0.2300  0.0500 -0.4615
 4891TIP3   OH236087   4.359   4.162   4.689  0.0504 -0.8320  0.1624
 4891TIP3    H136088   4.281   4.217   4.702 -0.4269 -1.3251 -0.5320
 4891TIP3    H236089   4.346   4.122   4.603  1.3449 -0.5019 -0.2099
 4892TIP3   OH236090   0.277   6.690  15.321  0.1512  0.0762 -0.0726
 4892TIP3    H136091   0.282   6.720  15.230  0.6491  1.1354  0.2847
 4892TIP3    H236092   0.190   6.718  15.350  1.0809  2.5072  0.6599
 4893TIP3   OH236093   1.207   3.184   6.538 -0.4924  0.5221  0.6328
 4893TIP3    H136094   1.198   3.273   6.502  1.3583  1.6306  2.7226
 4893TIP3    H236095   1.301   3.167   6.536 -0.9295 -2.5804 -2.2090
 4894TIP3   OH236096   0.697   0.935   0.344  0.2153 -0.0382  0.1112
 4894TIP3    H136097   0.646   0.948   0.265 -1.6556  0.7878  1.3836
 4894TIP3    H236098   0.698   1.021   0.387  2.5360 -0.0594  0.2665
 4895TIP3   OH236099   4.681   0.772  14.366  0.2002 -0.4031 -0.2983
 4895TIP3    H136100   4.693   0.866  14.379 -0.6209 -0.1781 -1.0471
 4895TIP3    H236101   4.650   0.739  14.451 -1.4600  0.3671 -0.5607
 4896TIP3   OH236102   4.035   4.755   2.726 -0.1619  0.0269  0.1643
 4896TIP3    H136103   3.999   4.834   2.685  0.6542  1.1901  1.5991
 4896TIP3    H236104   4.097   4.788   2.791  0.0124 -1.8033  0.9792
 4897TIP3   OH236105   0.265   2.588  16.396 -0.2035  0.3440  0.0957
 4897TIP3    H136106   0.189   2.532  16.412  0.1757  0.2278  1.7083
 4897TIP3    H236107   0.286   2.624  16.482  1.3783  0.6106 -0.3717
 4898TIP3   OH236108   1.985   1.928   2.219 -0.1298 -0.1851 -0.3541
 4898TIP3    H136109   2.036   1.960   2.145 -0.1265 -2.1056 -1.2499
 4898TIP3    H236110   2.049   1.887   2.277 -0.4351 -1.2502 -0.7399
 4899TIP3   OH236111   5.697   5.725  12.632 -0.3093  1.0011 -0.4148
 4899TIP3    H136112   5.757   5.686  12.568  0.8068  1.7672  0.1397
 4899TIP3    H236113   5.711   5.673  12.711  0.2556  1.7096 -0.0418
 4900TIP3   OH236114   6.345   2.454  11.613  0.3800 -0.3700  0.0059
 4900TIP3    H136115   6.400   2.532  11.606 -0.6354  0.3399 -0.3001
 4900TIP3    H236116   6.387   2.391  11.554  0.3645  0.4684 -0.9336
 4901TIP3   OH236117   5.729   4.082  14.537  0.5130 -0.1507 -0.4003
 4901TIP3    H136118   5.677   4.160  14.517 -0.0508 -0.1985  0.8002
 4901TIP3    H236119   5.732   4.078  14.632 -1.7624 -3.0211 -0.2828
 4902TIP3   OH236120   4.188   6.411   1.580  0.5790 -1.2309  0.3804
 4902TIP3    H136121   4.164   6.422   1.488  0.7554 -0.8015  0.3847
 4902TIP3    H236122   4.279   6.440   1.584  0.6891 -1.6031  0.6207
 4903TIP3   OH236123   3.211   0.847   4.437  0.3767 -0.6541  0.3495
 4903TIP3    H136124   3.130   0.828   4.485 -0.0004  1.4738  0.6397
 4903TIP3    H236125   3.266   0.770   4.453 -0.5512 -0.9562  2.4330
 4904TIP3   OH236126   0.074   5.699  12.054  0.1349 -0.0541  0.4638
 4904TIP3    H136127   0.076   5.713  12.148  0.5745 -1.6187  0.7130
 4904TIP3    H236128  -0.018   5.715  12.030  0.3466  1.9475  0.8559
 4905TIP3   OH236129   2.597   1.471  17.133  0.1668 -0.2136  0.0876
 4905TIP3    H136130   2.629   1.551  17.092 -0.8341 -0.2557 -0.8377
 4905TIP3    H236131   2.659   1.403  17.106  1.2241  0.2861  1.1776
 4906TIP3   OH236132   4.797   5.682   0.162  0.2265 -0.3637  0.6765
 4906TIP3    H136133   4.723   5.626   0.189  0.4759 -0.3388  1.4165
 4906TIP3    H236134   4.761   5.736   0.092 -0.0297 -1.4371 -0.0558
 4907TIP3   OH236135   5.172   3.261   3.957  0.4831  0.5878 -0.3832
 4907TIP3    H136136   5.096   3.260   4.015 -0.3600 -1.1855 -1.4442
 4907TIP3    H236137   5.240   3.304   4.008  0.0671 -1.6766  2.3299
 4908TIP3   OH236138   4.278   5.931   1.706 -0.0237  0.0497  0.6694
 4908TIP3    H136139   4.248   5.984   1.632  1.4067  0.0541  0.0705
 4908TIP3    H236140   4.273   5.841   1.673 -1.1700 -0.1239  1.2353
 4909TIP3   OH236141   4.777   6.648   0.877  0.7137  0.2771  0.4963
 4909TIP3    H136142   4.709   6.658   0.943  0.6925 -0.4453  0.5941
 4909TIP3    H236143   4.731   6.619   0.798  0.9782 -0.9623  0.7760
 4910TIP3   OH236144   3.922   2.993   1.874 -0.1550 -0.3512  0.0484
 4910TIP3    H136145   3.851   2.934   1.902  0.5907 -0.7907  1.0746
 4910TIP3    H236146   3.991   2.934   1.843  0.0707  0.0381 -0.1923
 4911TIP3   OH236147   5.411   5.275   5.165 -0.2120  0.2013  0.0179
 4911TIP3    H136148   5.364   5.202   5.126  1.2350 -1.1138  0.6063
 4911TIP3    H236149   5.428   5.335   5.092 -0.9946 -0.2776 -0.5731
 4912TIP3   OH236150   2.219   2.727  10.525 -0.4812  0.5270 -0.6027
 4912TIP3    H136151   2.208   2.686  10.611  0.6129  1.6778  0.1207
 4912TIP3    H236152   2.132   2.762  10.504 -1.1717 -1.1705 -0.7642
 4913TIP3   OH236153   2.452   3.674   6.261  0.0485  0.1026 -0.0726
 4913TIP3    H136154   2.384   3.676   6.192  0.1529 -1.2916 -0.2550
 4913TIP3    H236155   2.404   3.649   6.340  0.3053 -0.7713 -0.1784
 4914TIP3   OH236156   5.129   4.757  13.923 -0.1427 -0.0321 -0.1670
 4914TIP3    H136157   5.171   4.675  13.896 -1.3418 -0.6432 -0.2428
 4914TIP3    H236158   5.202   4.816  13.944  0.7609 -0.7837 -1.0812
 4915TIP3   OH236159   2.625   3.474  11.718 -0.1765 -0.2489 -0.4696
 4915TIP3    H136160   2.617   3.479  11.622  0.0074 -0.7741 -0.5112
 4915TIP3    H236161   2.719   3.479  11.734 -0.1967 -0.3685 -0.3231
 4916TIP3   OH236162   0.432   3.478   1.747  0.0763 -0.1829  0.5689
 4916TIP3    H136163   0.380   3.523   1.680 -0.0550 -0.9452  0.1439
 4916TIP3    H236164   0.486   3.417   1.697  0.5350 -0.2206  1.1066
 4917TIP3   OH236165   3.576   2.867  13.165 -0.6482  0.4016  0.3401
 4917TIP3    H136166   3.547   2.851  13.075  0.5550  0.3204 -0.0542
 4917TIP3    H236167   3.495   2.873  13.216 -1.3564  0.8133 -0.8067
 4918TIP3   OH236168   3.153   3.862  15.250  0.4144  0.1135 -0.0755
 4918TIP3    H136169   3.179   3.785  15.199  2.1544  1.0789 -0.7427
 4918TIP3    H236170   3.236   3.907  15.269 -0.3952  0.9117  1.8029
 4919TIP3   OH236171   5.417   0.234  12.537 -0.2088  0.2430  0.0791
 4919TIP3    H136172   5.458   0.314  12.503  1.3579 -0.7412 -0.4634
 4919TIP3    H236173   5.418   0.245  12.632 -0.0590  0.8881  0.0097
 4920TIP3   OH236174   4.970   5.021  16.689 -0.3169 -0.2988 -0.1424
 4920TIP3    H136175   4.998   5.042  16.778 -1.9117 -0.8358  0.5085
 4920TIP3    H236176   4.953   4.927  16.690 -2.0565 -0.0113 -0.5083
 4921TIP3   OH236177   3.880   0.464   2.677  0.1006  0.6477  0.0330
 4921TIP3    H136178   3.870   0.559   2.674  0.9433  0.7373 -0.4930
 4921TIP3    H236179   3.792   0.430   2.665 -0.3541  1.3596  1.1989
 4922TIP3   OH236180   3.076   5.175  14.140 -0.7104 -0.3525  0.2782
 4922TIP3    H136181   3.029   5.181  14.057 -0.4526 -2.6222 -0.1013
 4922TIP3    H236182   3.024   5.227  14.201 -1.2333  0.8705 -1.1409
 4923TIP3   OH236183   5.102   0.486  12.763 -0.0603 -0.4077 -0.4024
 4923TIP3    H136184   5.147   0.402  12.762  0.8141  0.0112 -2.5490
 4923TIP3    H236185   5.083   0.503  12.855  0.0109 -2.7857  0.1087
 4924TIP3   OH236186   5.830   2.666  11.645  0.0430  0.2983  0.4818
 4924TIP3    H136187   5.915   2.695  11.612  0.1466  0.9897  1.3061
 4924TIP3    H236188   5.815   2.582  11.603  0.8239  0.4826 -0.1901
 4925TIP3   OH236189   6.497   2.687  13.659 -0.5858 -0.1335  0.4414
 4925TIP3    H136190   6.433   2.630  13.701 -1.3095  0.8293  0.6612
 4925TIP3    H236191   6.531   2.634  13.586  0.5437 -1.7561  2.0599
 4926TIP3   OH236192   6.091   3.564  13.629  0.8974 -0.8566 -0.1849
 4926TIP3    H136193   6.154   3.634  13.611  0.5569 -0.1487  1.1857
 4926TIP3    H236194   6.106   3.542  13.721  0.1437 -1.7229 -0.2542
 4927TIP3   OH236195   3.995   4.999  15.674 -0.0645 -0.2745 -0.8115
 4927TIP3    H136196   3.952   4.966  15.595  0.5122  0.7583 -1.5755
 4927TIP3    H236197   4.004   5.093  15.660  1.2926 -0.2714 -0.1252
 4928TIP3   OH236198   4.583   2.597  16.123  0.2969  0.1261  0.0548
 4928TIP3    H136199   4.564   2.671  16.180  0.1575  1.0660 -1.1606
 4928TIP3    H236200   4.522   2.529  16.151  0.4876  0.4385  1.2548
 4929TIP3   OH236201   2.307   2.936   6.149 -0.0310 -0.0954  0.0430
 4929TIP3    H136202   2.276   2.946   6.239 -2.0035 -0.2740 -0.5655
 4929TIP3    H236203   2.395   2.901   6.158 -0.4543 -0.8016  1.9126
 4930TIP3   OH236204   2.095   6.737  10.954  0.7691  0.0568  0.4599
 4930TIP3    H136205   2.061   6.697  11.034 -1.2130 -0.4428 -0.5693
 4930TIP3    H236206   2.094   6.831  10.972  2.0284 -0.1212  1.6123
 4931TIP3   OH236207   6.641   2.806   1.439 -0.3446 -0.2564  0.5490
 4931TIP3    H136208   6.670   2.893   1.411 -0.2534 -0.5190 -0.1935
 4931TIP3    H236209   6.616   2.762   1.358 -0.6624 -0.8274  0.9508
 4932TIP3   OH236210   2.309   2.101   5.075  0.6611  0.4701 -0.0099
 4932TIP3    H136211   2.219   2.098   5.106  0.4549 -0.5764 -0.6515
 4932TIP3    H236212   2.301   2.110   4.980  1.2599  1.5390  0.0201
 4933TIP3   OH236213   0.720   0.522   1.199  0.5371 -0.0134 -0.2642
 4933TIP3    H136214   0.698   0.471   1.277 -1.4756  0.3284 -0.5488
 4933TIP3    H236215   0.691   0.611   1.219  1.0271  0.3214 -0.9896
 4934TIP3   OH236216   5.385   0.374   5.286  0.0793  0.2016  0.0614
 4934TIP3    H136217   5.419   0.339   5.204 -1.1537 -0.5613 -0.1588
 4934TIP3    H236218   5.434   0.327   5.354  0.9997  0.7294 -0.2191
 4935TIP3   OH236219   6.612   3.612   5.764  0.3648 -0.4854 -0.0191
 4935TIP3    H136220   6.663   3.674   5.712  1.2086 -1.8067 -0.8550
 4935TIP3    H236221   6.668   3.534   5.770 -0.4934 -1.0523  1.2999
 4936TIP3   OH236222   2.356   6.753  13.144 -0.1055  0.6252 -0.1762
 4936TIP3    H136223   2.301   6.819  13.102 -1.4396 -0.3747 -0.1009
 4936TIP3    H236224   2.445   6.786  13.136 -0.6089  1.7890 -1.3009
 4937TIP3   OH236225   6.419   4.498   4.438  0.0686  0.6428  0.4351
 4937TIP3    H136226   6.450   4.569   4.495 -3.8791  2.6161  0.4783
 4937TIP3    H236227   6.435   4.531   4.350  1.3219 -0.0140  0.3983
 4938TIP3   OH236228   2.487   5.852  11.451  0.2215  0.1699  0.3765
 4938TIP3    H136229   2.556   5.901  11.494 -1.0683  2.0245  0.4391
 4938TIP3    H236230   2.483   5.887  11.362 -1.5519  1.1730  0.7921
 4939TIP3   OH236231   5.002   6.046   5.398  0.4142  0.1345  0.1631
 4939TIP3    H136232   5.027   6.110   5.331 -0.5325  0.0568 -0.2834
 4939TIP3    H236233   5.030   6.085   5.480 -1.0892  1.6422  0.0018
 4940TIP3   OH236234   0.377   1.532  15.359 -0.0528  0.1227  0.2135
 4940TIP3    H136235   0.462   1.574  15.371 -0.5085  1.1083  0.0923
 4940TIP3    H236236   0.325   1.596  15.310 -0.9944 -0.2943  0.6378
 4941TIP3   OH236237   5.538   1.854   5.697  0.5158  0.3687  0.3340
 4941TIP3    H136238   5.612   1.800   5.725  0.7382  1.0363  1.0922
 4941TIP3    H236239   5.574   1.911   5.629 -0.1121 -1.5017 -1.6709
 4942TIP3   OH236240   0.785   0.968   1.201  0.7509 -0.0975 -0.2826
 4942TIP3    H136241   0.829   0.906   1.143  0.1831 -0.9379  0.1546
 4942TIP3    H236242   0.762   1.041   1.144 -0.0600 -1.0346 -1.2242
 4943TIP3   OH236243   5.653   1.035  16.250  0.1479  0.0460  0.1644
 4943TIP3    H136244   5.604   0.960  16.216  1.0029 -0.1082 -0.7874
 4943TIP3    H236245   5.637   1.105  16.186  0.8508  0.1037  0.0383
 4944TIP3   OH236246   1.617   1.612   1.943  0.7047 -0.0539  0.3188
 4944TIP3    H136247   1.692   1.645   1.993 -1.1388  3.6346  1.0596
 4944TIP3    H236248   1.625   1.654   1.857 -0.0012 -0.4357  0.0577
 4945TIP3   OH236249   1.631   5.220   3.568  0.0746  0.3810 -0.3820
 4945TIP3    H136250   1.606   5.300   3.614  0.0748 -0.3635  0.9653
 4945TIP3    H236251   1.589   5.228   3.483  0.5836  2.0905 -0.5236
 4946TIP3   OH236252   2.326   3.704  16.204 -0.3237  0.1306  0.1605
 4946TIP3    H136253   2.292   3.689  16.292 -0.0801  0.7927  0.3791
 4946TIP3    H236254   2.295   3.792  16.182 -1.7704 -0.6381 -1.0823
 4947TIP3   OH236255   5.086   5.256  14.542 -0.2318  0.1976  0.8077
 4947TIP3    H136256   5.063   5.335  14.591  0.0473  0.3997  0.6150
 4947TIP3    H236257   5.010   5.200  14.551 -0.3605  0.4146  1.1021
 4948TIP3   OH236258   1.359   4.631  16.476  0.3735  0.6988  0.4132
 4948TIP3    H136259   1.362   4.694  16.548 -0.4609  1.4948 -0.2346
 4948TIP3    H236260   1.273   4.589  16.485  0.4092  0.5557  0.0845
 4949TIP3   OH236261   1.746   5.798  13.023  0.4364  0.0986 -0.3502
 4949TIP3    H136262   1.749   5.859  12.949 -0.8369  0.0004 -0.4922
 4949TIP3    H236263   1.788   5.845  13.095  0.1440  0.8467 -0.6628
 4950TIP3   OH236264   3.286   4.242   3.697 -0.4876 -0.3893  0.0016
 4950TIP3    H136265   3.206   4.247   3.750  1.3714 -0.4217  3.0410
 4950TIP3    H236266   3.310   4.334   3.682 -1.6340 -0.3606 -1.9206
 4951TIP3   OH236267   0.107   5.414   3.453 -0.7153 -0.6766  0.1975
 4951TIP3    H136268   0.080   5.407   3.544 -0.1065  1.9015  0.6759
 4951TIP3    H236269   0.197   5.381   3.452 -1.9059 -4.3044 -0.3394
 4952TIP3   OH236270   4.948   3.686   0.071 -0.1719 -0.8509 -0.0906
 4952TIP3    H136271   4.928   3.718   0.159  1.4100  0.9642 -0.3118
 4952TIP3    H236272   5.044   3.679   0.070 -0.1008 -0.1442 -1.8597
 4953TIP3   OH236273   1.776   3.526  16.415 -0.0549 -0.6295  0.2656
 4953TIP3    H136274   1.740   3.545  16.501 -2.8901 -2.1792 -0.4375
 4953TIP3    H236275   1.789   3.431  16.415  1.6416 -0.4320 -0.4481
 4954TIP3   OH236276   6.348   6.650   2.753 -0.5493 -0.4452 -0.4901
 4954TIP3    H136277   6.266   6.627   2.795  0.7370 -1.4948  1.6099
 4954TIP3    H236278   6.345   6.607   2.667 -2.9879  1.2440 -1.3400
 4955TIP3   OH236279   1.362   2.223  16.249  0.6714  0.1391 -0.8156
 4955TIP3    H136280   1.454   2.237  16.226  0.4747  1.5998 -0.8317
 4955TIP3    H236281   1.338   2.300  16.301  0.5802 -2.1482  2.8910
 4956TIP3   OH236282   4.562   0.744  16.071  0.3767  0.2293 -0.2413
 4956TIP3    H136283   4.604   0.758  16.156 -0.5884  0.4073  0.2224
 4956TIP3    H236284   4.471   0.722  16.093 -0.1410  1.2737 -1.2538
 4957TIP3   OH236285   5.876   6.114   1.574 -0.0110  0.6929  0.4033
 4957TIP3    H136286   5.972   6.119   1.565  0.0477  0.3412  0.8201
 4957TIP3    H236287   5.858   6.157   1.657 -0.0327 -0.8405  1.2292
 4958TIP3   OH236288   2.033   3.264   0.228 -0.0523  0.0065  0.2826
 4958TIP3    H136289   2.005   3.287   0.316 -0.5248 -2.4012  0.8292
 4958TIP3    H236290   1.975   3.313   0.170 -2.9422 -1.9238  1.3644
 4959TIP3   OH236291   0.664   4.453  12.473  0.5199  0.1946 -0.2141
 4959TIP3    H136292   0.581   4.424  12.437 -0.1166  0.2811  1.1167
 4959TIP3    H236293   0.708   4.498  12.400  0.1427 -1.2738 -1.3934
 4960TIP3   OH236294   0.188   5.616   0.817 -0.2693  0.3831 -0.0998
 4960TIP3    H136295   0.140   5.548   0.771 -2.0478  0.5905  1.3293
 4960TIP3    H236296   0.280   5.599   0.796 -0.8913 -0.1126 -2.8267
 4961TIP3   OH236297   6.206   3.592   2.204  0.2987 -0.2442 -0.6004
 4961TIP3    H136298   6.157   3.534   2.146  1.0752 -0.2195 -1.2996
 4961TIP3    H236299   6.298   3.567   2.192  0.3917 -1.2726  1.7685
 4962TIP3   OH236300   3.326   6.342   4.438 -0.2636  0.2208  0.2383
 4962TIP3    H136301   3.390   6.381   4.379 -0.3759  0.6420  0.3936
 4962TIP3    H236302   3.361   6.356   4.525  0.0983 -0.7502  0.2672
 4963TIP3   OH236303   0.073   2.575  13.981  0.5570 -0.0973  0.2296
 4963TIP3    H136304  -0.018   2.544  13.977  0.4630  0.2165 -2.6441
 4963TIP3    H236305   0.097   2.570  14.073 -1.8192 -1.8042  0.8395
 4964TIP3   OH236306   6.727   3.128  11.034  0.0929  0.1351 -0.2405
 4964TIP3    H136307   6.669   3.058  11.062 -0.1889  0.8769  1.1520
 4964TIP3    H236308   6.728   3.123  10.938 -0.7442 -1.0819 -0.1966
 4965TIP3   OH236309   3.443   4.195   4.352  0.1541  0.0777 -0.3066
 4965TIP3    H136310   3.474   4.145   4.276 -1.4063  0.9555 -1.5721
 4965TIP3    H236311   3.367   4.147   4.383  1.5655 -1.0438  1.6445
 4966TIP3   OH236312   4.637   0.135   0.788 -0.2550 -0.0026 -0.0456
 4966TIP3    H136313   4.728   0.127   0.817 -0.2822 -0.3344 -0.0497
 4966TIP3    H236314   4.609   0.045   0.772 -0.4847  0.1235 -0.3523
 4967TIP3   OH236315   1.307   2.353   0.452 -0.3265  0.4564  0.1527
 4967TIP3    H136316   1.263   2.412   0.391 -0.5114 -0.2950 -0.4649
 4967TIP3    H236317   1.247   2.348   0.527  0.5164  2.4172  1.0201
 4968TIP3   OH236318   5.554   0.707   4.736  0.3222 -0.6786 -0.2334
 4968TIP3    H136319   5.598   0.623   4.728  1.5200  0.0474 -1.9297
 4968TIP3    H236320   5.545   0.738   4.646 -1.8285  0.1772  0.2067
 4969TIP3   OH236321   2.802   6.008   3.968 -0.4125 -0.4734  0.0500
 4969TIP3    H136322   2.806   6.101   3.944  1.2486 -0.3688  0.6002
 4969TIP3    H236323   2.721   5.976   3.929 -0.4996  0.9653 -1.0020
 4970TIP3   OH236324   5.651   0.953  14.348 -0.5367  0.2344 -0.3668
 4970TIP3    H136325   5.687   0.879  14.299 -0.4122 -2.6449  3.5901
 4970TIP3    H236326   5.571   0.918  14.387 -0.4438  2.1794  1.7039
 4971TIP3   OH236327   2.702   2.331   0.826 -0.4966  0.7692 -0.0691
 4971TIP3    H136328   2.706   2.424   0.805  1.8069  0.3308 -1.9582
 4971TIP3    H236329   2.682   2.288   0.743  4.1692 -0.7196 -0.7028
 4972TIP3   OH236330   4.149   0.920   1.007  0.1932 -0.0016 -0.0160
 4972TIP3    H136331   4.153   0.848   1.070 -0.5511 -0.8877 -0.9385
 4972TIP3    H236332   4.240   0.940   0.986  0.4057 -1.0164 -0.1019
 4973TIP3   OH236333   2.624   6.532   0.584  0.0702 -0.0823 -0.1828
 4973TIP3    H136334   2.589   6.566   0.501 -0.6721  1.0882  0.5797
 4973TIP3    H236335   2.708   6.492   0.560 -0.4815 -0.4427 -1.6061
 4974TIP3   OH236336   1.295   0.996  15.896 -0.1543 -0.2651 -0.4571
 4974TIP3    H136337   1.301   0.901  15.884 -0.4380 -0.3595  0.1292
 4974TIP3    H236338   1.279   1.007  15.989  0.2262  0.3777 -0.4643
 4975TIP3   OH236339   2.543   2.827   1.144 -0.0756 -0.2152  0.3334
 4975TIP3    H136340   2.533   2.913   1.102 -1.2487 -0.7610 -0.5525
 4975TIP3    H236341   2.555   2.848   1.237 -1.2846  0.8923  0.2738
 4976TIP3   OH236342   0.927   5.806   0.624 -0.3092 -0.0494 -0.2676
 4976TIP3    H136343   0.981   5.762   0.559 -2.7786 -0.0478 -2.4551
 4976TIP3    H236344   0.884   5.876   0.576 -1.8498  0.2829  1.4936
 4977TIP3   OH236345   2.814   4.213   5.949 -0.5267 -1.0134 -0.2143
 4977TIP3    H136346   2.807   4.246   6.039  0.4969  0.5062 -0.6567
 4977TIP3    H236347   2.724   4.214   5.916 -0.5724  1.1957 -0.1232
 4978TIP3   OH236348   6.251   2.648   0.582  1.1178  0.0944 -0.0783
 4978TIP3    H136349   6.188   2.693   0.639 -0.2032  0.7242 -1.9398
 4978TIP3    H236350   6.304   2.717   0.544  1.7611 -0.2898  0.1053
 4979TIP3   OH236351   0.469   5.244   2.289  0.0775 -0.2048 -0.1741
 4979TIP3    H136352   0.377   5.269   2.291 -0.4863 -1.9346 -1.8384
 4979TIP3    H236353   0.479   5.184   2.363  0.1420  0.7333  0.5996
 4980TIP3   OH236354   1.291   0.867  11.805 -0.1400  0.4467  0.0199
 4980TIP3    H136355   1.227   0.842  11.871 -0.8204 -0.9960 -1.1212
 4980TIP3    H236356   1.373   0.831  11.837 -0.7313 -1.5411 -0.5778
 4981TIP3   OH236357   4.066   2.436   0.686  0.0939 -0.0118 -0.0156
 4981TIP3    H136358   4.055   2.526   0.718 -0.7438 -0.5441  1.2604
 4981TIP3    H236359   4.054   2.443   0.591 -2.5349  0.8772  0.2958
 4982TIP3   OH236360   1.407   3.269   1.542  0.3592  0.0770 -0.3138
 4982TIP3    H136361   1.350   3.324   1.489  0.0449 -0.3509 -0.4322
 4982TIP3    H236362   1.403   3.183   1.500  0.0025 -0.3054  0.4739
 4983TIP3   OH236363   2.825   1.041  16.275 -0.0347  0.3758  0.4570
 4983TIP3    H136364   2.895   1.035  16.339  0.9538 -1.0614 -0.6798
 4983TIP3    H236365   2.779   0.957  16.281 -2.1458  1.5248  1.6490
 4984TIP3   OH236366   3.184   0.234  12.527  0.3722  0.2514 -0.6443
 4984TIP3    H136367   3.230   0.293  12.587  0.5493  0.8385 -1.3466
 4984TIP3    H236368   3.221   0.148  12.546  0.8086  0.5141 -0.2708
 4985TIP3   OH236369   5.673   0.712   2.120 -0.1995 -0.5876 -0.1315
 4985TIP3    H136370   5.649   0.694   2.210 -0.9889  0.0331 -0.1988
 4985TIP3    H236371   5.672   0.627   2.077 -0.5479 -0.7979  0.2827
 4986TIP3   OH236372   5.172   0.554  15.315 -0.2321  0.2122 -0.2443
 4986TIP3    H136373   5.225   0.493  15.367 -0.1879  0.6216  0.1897
 4986TIP3    H236374   5.174   0.517  15.226 -0.8000 -0.8224  0.1521
 4987TIP3   OH236375   1.165   0.757   6.315 -0.2665  0.2809  0.5086
 4987TIP3    H136376   1.172   0.716   6.402 -0.4081  2.8357  1.8230
 4987TIP3    H236377   1.074   0.785   6.310 -0.1408  0.5562 -0.2908
 4988TIP3   OH236378   4.572   4.798   2.545  0.6564  0.1867 -0.3102
 4988TIP3    H136379   4.655   4.812   2.501  0.1631  2.2652 -0.7092
 4988TIP3    H236380   4.542   4.886   2.567 -1.1047 -0.5565  0.4563
 4989TIP3   OH236381   5.016   3.188   5.518  0.2832 -0.4628 -0.6037
 4989TIP3    H136382   5.111   3.178   5.518  0.7163  2.3630  1.3131
 4989TIP3    H236383   4.983   3.109   5.559  2.5269  1.3328  5.7934
 4990TIP3   OH236384   0.800   0.909  10.639  0.1993  0.0877  0.6962
 4990TIP3    H136385   0.729   0.921  10.576 -1.2362 -0.2858  2.1735
 4990TIP3    H236386   0.878   0.901  10.585 -0.9028  0.2403 -1.0134
 4991TIP3   OH236387   6.366   2.890   1.313 -0.5737 -0.2341 -0.0371
 4991TIP3    H136388   6.384   2.959   1.376 -4.4759  0.1311  0.9398
 4991TIP3    H236389   6.414   2.916   1.234  1.8452  0.9882  1.7125
 4992TIP3   OH236390   0.062   3.285  12.026  0.2742  0.2711  0.4476
 4992TIP3    H136391   0.072   3.358  11.964  2.0610 -1.6755 -1.7065
 4992TIP3    H236392  -0.032   3.266  12.024  0.3101 -0.0777 -2.1794
 4993TIP3   OH236393   5.740   4.989   1.218 -0.8511  0.3173  0.0659
 4993TIP3    H136394   5.683   5.050   1.264 -0.0450  0.5026  0.8587
 4993TIP3    H236395   5.778   5.042   1.147 -1.8578  0.1142 -0.6486
 4994TIP3   OH236396   5.270   1.819  10.934  0.4327  0.8354  0.2063
 4994TIP3    H136397   5.312   1.840  11.018  1.2421 -0.3681  0.1307
 4994TIP3    H236398   5.305   1.733  10.911 -1.6713  0.0320 -0.1671
 4995TIP3   OH236399   1.909   1.220   1.932  0.2366 -0.1381 -0.5635
 4995TIP3    H136400   1.895   1.145   1.875 -0.8759 -0.5135  0.1604
 4995TIP3    H236401   1.989   1.199   1.981 -0.6804 -1.4231  0.4635
 4996TIP3   OH236402   3.699   5.626  14.173  0.1951 -0.6753  0.5280
 4996TIP3    H136403   3.667   5.713  14.149 -1.2979 -1.5840 -0.9724
 4996TIP3    H236404   3.636   5.593  14.237  1.0119 -0.5022  1.4447
 4997TIP3   OH236405   3.223   1.961  13.786 -0.2005 -0.1669  0.4250
 4997TIP3    H136406   3.316   1.979  13.802  0.0602  1.1508 -2.0358
 4997TIP3    H236407   3.216   1.866  13.789  1.7294 -0.4381 -1.4685
 4998TIP3   OH236408   3.315   3.910  14.436 -0.3950 -0.1072 -0.2211
 4998TIP3    H136409   3.346   3.821  14.453 -0.4708 -0.5133 -2.0017
 4998TIP3    H236410   3.396   3.960  14.423 -0.3247  0.2718  1.4617
 4999TIP3   OH236411   0.464   2.854  17.061 -0.2521 -0.2323  0.6741
 4999TIP3    H136412   0.508   2.790  17.117 -4.2429 -2.2541  1.8486
 4999TIP3    H236413   0.456   2.932  17.115  1.3986  0.0623  0.5569
 5000TIP3   OH236414   6.783   4.009   4.579  0.8011 -0.2315  0.6580
 5000TIP3    H136415   6.697   4.019   4.618  0.1870 -0.2965 -0.6134
 5000TIP3    H236416   6.786   4.077   4.511  1.7356 -0.2525  0.6698
 5001TIP3   OH236417   0.392   4.367   0.385  0.0781  0.2025 -0.3456
 5001TIP3    H136418   0.480   4.372   0.349  0.5374  1.1758  0.8516
 5001TIP3    H236419   0.361   4.280   0.361  1.3634 -0.1524 -0.7664
 5002TIP3   OH236420   2.094   3.175  13.685  0.0547 -0.0068  0.1541
 5002TIP3    H136421   2.147   3.204  13.610  1.0101 -2.6828 -0.2987
 5002TIP3    H236422   2.156   3.168  13.757 -0.9429  2.9819  1.4441
 5003TIP3   OH236423   0.880   4.448   1.392  0.1012  0.0149  0.0056
 5003TIP3    H136424   0.895   4.410   1.305 -0.0409 -1.2253  0.5078
 5003TIP3    H236425   0.931   4.529   1.392  0.8674 -0.4482 -0.8983
 5004TIP3   OH236426   3.984   4.253   2.499  0.0002 -0.1136 -0.6361
 5004TIP3    H136427   4.008   4.197   2.425 -0.4500  0.5045 -1.2688
 5004TIP3    H236428   3.954   4.193   2.566  1.1915 -0.7483 -0.6372
 5005TIP3   OH236429   6.092   5.885   0.144 -0.0803  0.0743 -0.0879
 5005TIP3    H136430   6.139   5.961   0.110  0.7074  0.1558  1.1009
 5005TIP3    H236431   6.140   5.861   0.224 -1.5312 -0.4010  0.6782
 5006TIP3   OH236432   4.151   2.573  12.683 -0.5480  0.5707 -0.4296
 5006TIP3    H136433   4.121   2.652  12.728  1.4405  1.5537 -0.7107
 5006TIP3    H236434   4.076   2.513  12.686 -0.9939  1.0973  2.9220
 5007TIP3   OH236435   0.248   0.738  16.509 -0.5602 -0.3366  0.6075
 5007TIP3    H136436   0.185   0.801  16.544 -1.4193 -1.3632  0.9609
 5007TIP3    H236437   0.265   0.678  16.582 -1.4440 -1.7893 -0.3399
 5008TIP3   OH236438   4.563   1.124   1.300 -0.1011  0.3449  0.3071
 5008TIP3    H136439   4.541   1.066   1.373 -1.6361 -0.5089 -0.7457
 5008TIP3    H236440   4.570   1.211   1.338  0.6026 -0.2861  1.6768
 5009TIP3   OH236441   2.210   5.292   1.061 -0.0275  0.5308  0.6570
 5009TIP3    H136442   2.152   5.274   0.988 -0.3598  1.9480  0.5468
 5009TIP3    H236443   2.227   5.206   1.100 -0.5067 -0.1387 -0.5683
 5010TIP3   OH236444   1.035   0.342   1.167 -0.2578  0.1416  0.9868
 5010TIP3    H136445   1.010   0.342   1.260  0.6286 -2.2665  1.2982
 5010TIP3    H236446   1.086   0.262   1.156  0.7820  1.0300 -1.3181
 5011TIP3   OH236447   0.855   1.627   4.941  0.6815 -0.5474 -0.2635
 5011TIP3    H136448   0.925   1.594   4.998  0.3005 -1.4618 -0.3052
 5011TIP3    H236449   0.819   1.701   4.989  2.6902  0.9578 -0.9529
 5012TIP3   OH236450   2.331   1.448   0.013  0.5713  0.0317 -0.6493
 5012TIP3    H136451   2.420   1.462  -0.021  0.8612 -0.2979 -0.0586
 5012TIP3    H236452   2.317   1.520   0.074 -0.2415  1.0520 -1.9948
 5013TIP3   OH236453   0.280   3.565   5.860  0.0543 -0.0723 -0.1720
 5013TIP3    H136454   0.192   3.593   5.886  0.7442  2.7702 -0.5060
 5013TIP3    H236455   0.335   3.587   5.936  0.9203  1.2989 -1.1351
 5014TIP3   OH236456   0.040   3.956   3.556  0.1020 -0.1635 -0.4788
 5014TIP3    H136457   0.016   4.005   3.634  0.7561 -0.9500  0.2301
 5014TIP3    H236458   0.070   4.023   3.494 -1.6200  0.6024 -0.5459
 5015TIP3   OH236459   4.391   5.800  13.129 -0.5082  0.2369  0.7675
 5015TIP3    H136460   4.364   5.842  13.211 -4.5458 -0.4398 -0.0331
 5015TIP3    H236461   4.370   5.864  13.061 -1.8845 -1.0455 -0.0635
 5016TIP3   OH236462   3.615   4.890  14.079  0.1214 -0.0464  0.2949
 5016TIP3    H136463   3.622   4.794  14.086  1.3440 -0.1816 -1.9527
 5016TIP3    H236464   3.659   4.922  14.158  2.4925 -1.3739 -0.3753
 5017TIP3   OH236465   5.794   1.733  11.184 -0.5216  0.0873  0.3205
 5017TIP3    H136466   5.840   1.806  11.142  1.5594 -1.2178  0.1499
 5017TIP3    H236467   5.726   1.707  11.122  0.2216  0.4400 -0.6646
 5018TIP3   OH236468   5.303   0.244  14.080  0.0021 -0.4154 -0.3520
 5018TIP3    H136469   5.221   0.243  14.030 -1.0566 -0.6409  1.3314
 5018TIP3    H236470   5.329   0.336  14.079 -0.1295 -0.3749 -1.0963
 5019TIP3   OH236471   5.484   1.042  11.363 -0.0449 -0.6379  0.2311
 5019TIP3    H136472   5.401   0.995  11.359 -0.4983  0.0714  0.9189
 5019TIP3    H236473   5.535   1.007  11.290 -0.4840 -1.9407  0.5242
 5020TIP3   OH236474   1.128   6.508  11.243 -0.2104  0.3822 -0.5810
 5020TIP3    H136475   1.073   6.475  11.314 -0.6227  1.1745 -0.5300
 5020TIP3    H236476   1.185   6.573  11.284  0.2688  0.0912 -0.7759
 5021TIP3   OH236477   2.529   0.719  13.923  0.3268  0.5172  0.3706
 5021TIP3    H136478   2.574   0.749  14.002 -0.5118  2.6122  0.1306
 5021TIP3    H236479   2.471   0.792  13.899 -1.3250 -1.0506 -0.7514
 5022TIP3   OH236480   2.382   2.037   3.168 -0.3334 -0.2416  0.5645
 5022TIP3    H136481   2.473   2.047   3.194 -0.6558 -0.2031  1.7222
 5022TIP3    H236482   2.354   2.126   3.147  0.4673 -0.4927 -1.9172
 5023TIP3   OH236483   4.589   3.109   0.591  0.8339 -0.2174  0.5739
 5023TIP3    H136484   4.671   3.158   0.604  1.3582 -1.5802  2.8883
 5023TIP3    H236485   4.590   3.042   0.659 -3.5357  1.3990  2.5318
 5024TIP3   OH236486   3.522   6.209   5.209 -0.1682  0.1861 -0.3617
 5024TIP3    H136487   3.617   6.205   5.196 -0.2556  0.1943 -1.0605
 5024TIP3    H236488   3.490   6.125   5.175 -0.0979 -1.3984  3.0686
 5025TIP3   OH236489   6.396   3.893   0.258 -0.1523 -0.5127 -0.1231
 5025TIP3    H136490   6.472   3.951   0.263  0.8000 -1.8223  1.4572
 5025TIP3    H236491   6.357   3.897   0.345 -0.1035 -2.1619  0.0014
 5026TIP3   OH236492   6.361   1.577   1.530 -0.3609 -0.5814  0.1161
 5026TIP3    H136493   6.373   1.505   1.591 -0.6425  0.6027  1.6205
 5026TIP3    H236494   6.353   1.655   1.585 -0.8015  0.5164 -1.4182
 5027TIP3   OH236495   2.528   2.866  12.290  0.2644 -0.0742 -0.3745
 5027TIP3    H136496   2.519   2.772  12.301 -1.1554  0.0899  0.0939
 5027TIP3    H236497   2.558   2.878  12.200  2.7077 -1.0501  0.2459
 5028TIP3   OH236498   2.003   1.255  14.740  0.1877  0.4334  0.1722
 5028TIP3    H136499   1.927   1.272  14.685  0.0914  0.6413  0.3667
 5028TIP3    H236500   2.011   1.333  14.795 -0.7705 -0.4858  1.6968
 5029TIP3   OH236501   2.168   2.134   2.837  0.0642 -0.1634  0.1580
 5029TIP3    H136502   2.171   2.161   2.745 -1.7514  1.0205  0.3783
 5029TIP3    H236503   2.095   2.072   2.841  0.1757 -0.2593  0.7787
 5030TIP3   OH236504   1.678   2.720   4.557  0.0028  0.3446  0.1599
 5030TIP3    H136505   1.680   2.657   4.485  0.5121 -0.5673  0.9481
 5030TIP3    H236506   1.685   2.805   4.514 -1.6100 -0.0550 -0.9839
 5031TIP3   OH236507   6.040   5.905  14.470 -0.7460 -0.2597 -0.4694
 5031TIP3    H136508   6.002   5.858  14.544  0.5116 -0.8219 -0.1616
 5031TIP3    H236509   6.130   5.925  14.496 -1.4495  3.1494 -0.2354
 5032TIP3   OH236510   5.365   1.270   2.596 -0.1892  0.1761 -0.0487
 5032TIP3    H136511   5.415   1.344   2.563  0.9980 -0.1114  1.0247
 5032TIP3    H236512   5.431   1.205   2.620 -1.1516 -3.0541 -4.7884
 5033TIP3   OH236513   0.639   2.287   6.724  0.2628 -0.5990  0.1571
 5033TIP3    H136514   0.599   2.256   6.643 -1.1860  1.7958 -0.1770
 5033TIP3    H236515   0.574   2.267   6.792  0.5151 -0.6980  0.3705
 5034TIP3   OH236516   4.309   4.816  12.755 -0.0404  0.0095 -0.1299
 5034TIP3    H136517   4.346   4.736  12.718  0.6077  0.3907 -0.3247
 5034TIP3    H236518   4.378   4.849  12.813  0.6921  1.6542 -1.8123
 5035TIP3   OH236519   3.729   4.231   2.354 -0.0689  0.4286 -0.2267
 5035TIP3    H136520   3.751   4.146   2.314  0.3515  0.8733 -0.9721
 5035TIP3    H236521   3.802   4.249   2.413 -0.5783 -0.1219  0.5929
 5036TIP3   OH236522   3.450   6.677   1.670  0.0682  0.1544  0.3146
 5036TIP3    H136523   3.417   6.694   1.581  0.7389 -1.5169 -0.2849
 5036TIP3    H236524   3.385   6.619   1.709 -0.8711  1.8471  1.4238
 5037TIP3   OH236525   1.200   4.166   4.825 -0.0054  0.2957 -0.2251
 5037TIP3    H136526   1.105   4.161   4.809  0.1879 -0.0639 -1.3560
 5037TIP3    H236527   1.220   4.259   4.824 -0.6186  0.4857  1.8257
 5038TIP3   OH236528   6.225   6.523   3.764  0.6806 -0.3338  0.3580
 5038TIP3    H136529   6.315   6.544   3.787  0.8975  0.8968 -1.4859
 5038TIP3    H236530   6.223   6.524   3.668 -1.2606 -0.4954  0.3554
 5039TIP3   OH236531   0.141   0.993   0.797  0.1014  0.1804  0.1873
 5039TIP3    H136532   0.158   1.027   0.885  0.2207 -1.3562  0.7977
 5039TIP3    H236533   0.225   0.957   0.769  0.1264  0.8793 -0.6777
 5040TIP3   OH236534   5.615   6.096  16.186 -0.4022 -0.4783  0.2141
 5040TIP3    H136535   5.624   6.189  16.206  2.7546 -0.2024 -1.7866
 5040TIP3    H236536   5.579   6.094  16.098  1.3209 -1.0279 -0.5092
 5041TIP3   OH236537   3.104   5.165   6.384  0.1646 -0.8080 -0.3911
 5041TIP3    H136538   3.060   5.083   6.363 -1.3075 -0.0402 -0.3741
 5041TIP3    H236539   3.126   5.157   6.477  1.0074 -1.5956 -0.6320
 5042TIP3   OH236540   1.777   6.484  16.396  0.6471 -0.3017  0.1961
 5042TIP3    H136541   1.865   6.446  16.406  0.8980  0.0372 -0.6262
 5042TIP3    H236542   1.747   6.451  16.311 -0.7705 -1.8803  1.2529
 5043TIP3   OH236543   3.422   1.575   6.222  0.0729  0.4155 -0.4128
 5043TIP3    H136544   3.395   1.622   6.301  0.2139 -0.4026  0.1375
 5043TIP3    H236545   3.376   1.619   6.150 -0.4033  0.8888  0.1716
 5044TIP3   OH236546   1.214   5.196  16.416 -0.0679 -0.6990 -0.1819
 5044TIP3    H136547   1.242   5.108  16.438 -0.1679 -0.7768 -0.3630
 5044TIP3    H236548   1.178   5.188  16.327  0.3110 -0.3975 -0.3667
 5045TIP3   OH236549   5.266   2.302  11.518 -0.1715  0.1941  0.4489
 5045TIP3    H136550   5.317   2.229  11.553 -0.6348  0.5319  1.8808
 5045TIP3    H236551   5.283   2.374  11.578 -0.0811  1.1547 -0.6852
 5046TIP3   OH236552   2.012   3.050  15.052 -0.1418  0.1403 -0.5082
 5046TIP3    H136553   2.056   3.021  15.132 -0.0359 -1.7112 -1.1683
 5046TIP3    H236554   2.082   3.079  14.995  0.0896 -1.0398 -0.8653
 5047TIP3   OH236555   6.637   1.323   3.342 -1.1954 -1.0903  0.0654
 5047TIP3    H136556   6.574   1.258   3.312 -1.5432 -1.4122  1.4293
 5047TIP3    H236557   6.617   1.335   3.434 -1.1212  0.9500 -0.1425
 5048TIP3   OH236558   6.169   1.354   3.683  0.0929  0.5374 -0.6643
 5048TIP3    H136559   6.153   1.440   3.723  0.6791  1.2834 -1.9765
 5048TIP3    H236560   6.202   1.374   3.595  1.6726 -1.0194 -0.4686
 5049TIP3   OH236561   4.326   4.235  15.911  0.0548  0.3515  0.1112
 5049TIP3    H136562   4.393   4.205  15.851 -0.3302 -0.8877  0.2800
 5049TIP3    H236563   4.314   4.163  15.973 -2.6737 -0.2501 -0.9641
 5050TIP3   OH236564   6.512   5.267   0.322  0.1083 -0.2326 -0.0686
 5050TIP3    H136565   6.476   5.354   0.304  1.1096  0.4590  1.0709
 5050TIP3    H236566   6.458   5.233   0.393  0.0281 -0.3288 -0.1756
 5051TIP3   OH236567   2.453   0.836  17.190 -0.2791  0.2434 -0.5414
 5051TIP3    H136568   2.443   0.743  17.211 -1.1169  0.2149 -1.0602
 5051TIP3    H236569   2.415   0.882  17.265 -1.6635  0.1475 -1.1594
 5052TIP3   OH236570   4.341   0.287  12.339 -0.0622 -0.1390  0.2342
 5052TIP3    H136571   4.419   0.234  12.324  0.1529  0.4828 -0.9564
 5052TIP3    H236572   4.297   0.290  12.254 -0.7525  0.5220  0.5986
 5053TIP3   OH236573   6.696   3.541  14.412 -0.1474 -0.1306 -0.1203
 5053TIP3    H136574   6.623   3.602  14.424 -0.6373 -0.2459 -2.1086
 5053TIP3    H236575   6.742   3.542  14.495 -1.5971  1.0419  0.7195
 5054TIP3   OH236576   5.919   6.032  13.264 -0.4393  0.0260 -0.5392
 5054TIP3    H136577   5.857   6.098  13.297 -1.1798 -0.7183 -0.4287
 5054TIP3    H236578   5.878   5.998  13.185 -1.0703 -1.7596  0.4936
 5055TIP3   OH236579   1.257   5.897   2.383 -0.7807  0.1175 -0.1578
 5055TIP3    H136580   1.240   5.956   2.309  1.6340  0.8860 -0.1897
 5055TIP3    H236581   1.261   5.955   2.459  1.5639  0.0901 -0.1776
 5056TIP3   OH236582   6.015   6.542  14.267  0.0543  0.0845  0.2205
 5056TIP3    H136583   5.970   6.618  14.305 -1.3158 -0.6311  0.1089
 5056TIP3    H236584   6.090   6.579  14.221 -0.7911  1.4282 -0.1508
 5057TIP3   OH236585   0.460   3.967   2.251 -0.5164  0.1117  0.6585
 5057TIP3    H136586   0.413   4.032   2.198 -0.4298 -1.4089 -1.4402
 5057TIP3    H236587   0.551   3.998   2.251 -0.7150  0.7149  0.8913
 5058TIP3   OH236588   0.442   0.477   3.231 -0.6474  0.2915  0.1021
 5058TIP3    H136589   0.467   0.428   3.153  1.5352  2.9358 -1.0281
 5058TIP3    H236590   0.393   0.553   3.198 -0.5215  0.9548  1.3554
 5059TIP3   OH236591   0.070   0.282   2.152 -0.0722 -0.2484  0.1218
 5059TIP3    H136592   0.138   0.349   2.158  0.6624 -1.0290  0.8562
 5059TIP3    H236593   0.038   0.273   2.242 -1.4829  0.4225 -0.2824
 5060TIP3   OH236594   3.104   0.351   1.771  0.2445 -0.4780  0.0699
 5060TIP3    H136595   3.043   0.420   1.799  0.9083  0.4061 -0.6113
 5060TIP3    H236596   3.176   0.356   1.834  1.0043  0.4797 -0.8390
 5061TIP3   OH236597   6.156   5.608   2.244  0.5288 -0.0675 -0.2308
 5061TIP3    H136598   6.232   5.640   2.293  0.6086  0.9765 -1.0119
 5061TIP3    H236599   6.102   5.686   2.231  0.7394 -0.2267 -2.2294
 5062TIP3   OH236600   4.752   2.852   1.197  0.2255  0.1406 -0.3966
 5062TIP3    H136601   4.709   2.783   1.147 -0.9669 -1.5116  2.6104
 5062TIP3    H236602   4.681   2.892   1.248  1.3738  1.5313  0.1671
 5063TIP3   OH236603   3.557   4.071   5.359 -0.2648  0.1591 -0.1004
 5063TIP3    H136604   3.531   4.026   5.439 -2.3469 -1.6096 -1.6116
 5063TIP3    H236605   3.651   4.056   5.352 -0.1034  0.0836  1.8287
 5064TIP3   OH236606   1.480   3.076   0.596  0.2252 -0.1805  0.0292
 5064TIP3    H136607   1.531   3.114   0.668  0.6884 -2.1670  0.8326
 5064TIP3    H236608   1.528   3.101   0.517  2.1173 -1.3815  0.7190
 5065TIP3   OH236609   6.594   6.700  14.157 -0.1332  0.0580  0.3145
 5065TIP3    H136610   6.654   6.742  14.218 -0.8847  0.1417  1.0106
 5065TIP3    H236611   6.581   6.765  14.087  0.1025  0.2788  0.4774
 5066TIP3   OH236612   6.348   4.709  14.703  0.1047  0.3022 -0.4594
 5066TIP3    H136613   6.321   4.618  14.694 -0.4894  0.5221 -0.9657
 5066TIP3    H236614   6.267   4.759  14.693  0.7709  1.0415 -2.8511
 5067TIP3   OH236615   3.854   5.383   0.556  0.0887  0.3751  0.1044
 5067TIP3    H136616   3.767   5.344   0.547  0.4899 -0.9553  1.4645
 5067TIP3    H236617   3.914   5.313   0.530  0.7851  0.8251  0.4752
 5068TIP3   OH236618   5.695   5.741   6.178  0.3500 -0.1563  0.3558
 5068TIP3    H136619   5.634   5.674   6.207 -0.9198  1.5971  1.9843
 5068TIP3    H236620   5.779   5.715   6.217 -0.7610  0.7127  3.6600
 5069TIP3   OH236621   2.397   5.610  16.506  0.4052 -0.2153  0.6441
 5069TIP3    H136622   2.380   5.641  16.417 -0.3038  3.4839  1.8908
 5069TIP3    H236623   2.464   5.669  16.540  2.9553 -3.4183  1.7103
 5070TIP3   OH236624   5.303   1.106   1.154  0.6862 -0.2749  0.6399
 5070TIP3    H136625   5.390   1.078   1.185  0.5409 -0.6761  0.6977
 5070TIP3    H236626   5.242   1.069   1.218  0.4202 -0.6292  0.1878
 5071TIP3   OH236627   1.466   5.113   5.892 -0.5229 -0.6536  0.3938
 5071TIP3    H136628   1.548   5.092   5.937 -0.6245 -0.9689  0.4396
 5071TIP3    H236629   1.463   5.052   5.819 -0.0324  0.3081 -0.4532
 5072TIP3   OH236630   6.707   4.425   3.331  0.1894 -0.7135  0.2257
 5072TIP3    H136631   6.612   4.418   3.321  0.0253 -0.7385  1.5743
 5072TIP3    H236632   6.724   4.519   3.334  0.2265 -0.7075 -0.1525
 5073TIP3   OH236633   5.134   6.269  16.002 -0.1691  0.5266  0.5423
 5073TIP3    H136634   5.064   6.281  16.066 -0.8312  1.0076 -0.2504
 5073TIP3    H236635   5.202   6.331  16.028  0.6522 -0.9605  2.1879
 5074TIP3   OH236636   2.140   2.031  12.855 -0.4045 -0.3253 -0.1544
 5074TIP3    H136637   2.088   2.074  12.923 -0.5071  2.3022 -1.7792
 5074TIP3    H236638   2.201   1.975  12.903 -1.8695 -0.2122  1.9750
 5075TIP3   OH236639   4.462   1.636  16.039 -0.2302 -0.0772 -0.3850
 5075TIP3    H136640   4.546   1.617  16.081  0.3130  1.8039 -0.5183
 5075TIP3    H236641   4.459   1.578  15.963  0.3136 -1.1266  0.3660
 5076TIP3   OH236642   0.192   1.072  14.966  0.2874 -0.5869  0.2544
 5076TIP3    H136643   0.125   1.111  14.910 -2.0176 -1.0444  2.5150
 5076TIP3    H236644   0.196   0.980  14.938 -0.6597 -0.7542  0.6600
 5077TIP3   OH236645   6.744   3.019   1.310  0.4522  0.1171  0.0578
 5077TIP3    H136646   6.794   2.952   1.263  0.3991  0.6327 -0.7642
 5077TIP3    H236647   6.729   3.087   1.245 -0.7795  0.2603  0.4540
 5078TIP3   OH236648   0.279   5.994   3.763  0.8228 -0.3215 -0.3102
 5078TIP3    H136649   0.232   6.023   3.841  0.8660 -0.9632 -0.0455
 5078TIP3    H236650   0.339   6.067   3.743 -0.6437  0.7507 -0.9797
 5079TIP3   OH236651   4.698   1.928  16.932 -0.2788 -0.3946 -0.4372
 5079TIP3    H136652   4.789   1.902  16.916 -0.1964 -0.2210 -0.2669
 5079TIP3    H236653   4.650   1.898  16.856 -0.0883 -0.5506 -0.4957
 5080TIP3   OH236654   5.501   0.086   1.208  0.8267  0.1791 -0.2319
 5080TIP3    H136655   5.409   0.069   1.227 -0.4540  2.2390 -3.6198
 5080TIP3    H236656   5.526   0.154   1.270  0.7637 -1.6653  1.9591
 5081TIP3   OH236657   2.947   2.948  15.847 -0.2419 -0.4916 -0.2828
 5081TIP3    H136658   2.952   3.016  15.780 -2.8480  1.1221  1.0096
 5081TIP3    H236659   3.029   2.956  15.896  0.4272  0.2287 -1.4917
 5082TIP3   OH236660   5.698   3.795   4.477  0.6062 -0.2016 -0.0647
 5082TIP3    H136661   5.711   3.887   4.500  0.4279 -0.2367  0.1765
 5082TIP3    H236662   5.614   3.772   4.516  1.1685 -0.7787  0.8612
 5083TIP3   OH236663   4.382   0.269   1.673 -0.5194 -0.0307 -0.5037
 5083TIP3    H136664   4.363   0.338   1.737 -0.6447 -0.7721  0.2810
 5083TIP3    H236665   4.296   0.231   1.653 -0.6235  0.9152 -1.9703
 5084TIP3   OH236666   0.933   4.127   5.311 -0.4359  0.3523  0.0013
 5084TIP3    H136667   1.001   4.068   5.344  0.1386 -0.1436 -1.9655
 5084TIP3    H236668   0.931   4.112   5.217 -1.5435  2.1774 -0.3211
 5085TIP3   OH236669   4.435   5.403  11.310  0.6342  0.0171 -0.2390
 5085TIP3    H136670   4.353   5.451  11.296  1.4874  0.9153 -2.8122
 5085TIP3    H236671   4.469   5.389  11.222  1.2435 -4.0419  0.4430
 5086TIP3   OH236672   5.225   0.951   3.534  0.0907  0.1489 -0.0754
 5086TIP3    H136673   5.232   0.856   3.523  0.3562  0.3720 -2.5798
 5086TIP3    H236674   5.304   0.976   3.581 -0.9045 -1.0223  2.3794
 5087TIP3   OH236675   1.466   5.498  13.701  0.2425  0.2183  0.6029
 5087TIP3    H136676   1.531   5.428  13.701 -0.9602 -1.0114 -1.9522
 5087TIP3    H236677   1.503   5.565  13.644 -0.0517  0.2072  0.3975
 5088TIP3   OH236678   5.571   3.684   3.322  0.3387 -0.4872 -0.0705
 5088TIP3    H136679   5.593   3.768   3.363  0.8068 -0.8504  0.4472
 5088TIP3    H236680   5.504   3.646   3.379 -0.7741  0.0688 -0.9749
 5089TIP3   OH236681   1.823   1.114   5.733 -0.1356  0.3041 -0.2120
 5089TIP3    H136682   1.885   1.166   5.783 -1.8690  0.7108  1.6801
 5089TIP3    H236683   1.803   1.167   5.656 -0.8130  1.8815  0.9812
 5090TIP3   OH236684   2.502   4.450   1.472 -0.7826 -0.2959 -0.6312
 5090TIP3    H136685   2.485   4.540   1.499 -1.7000  0.1513 -2.5066
 5090TIP3    H236686   2.448   4.438   1.393  1.8021 -1.3736 -2.3735
 5091TIP3   OH236687   2.423   5.778   1.564  0.0586  0.4646  0.4230
 5091TIP3    H136688   2.393   5.751   1.477  1.2490 -0.6658  0.3431
 5091TIP3    H236689   2.420   5.698   1.616 -1.0216  1.2068  1.5635
 5092TIP3   OH236690   4.232   0.808  15.118  0.1708 -0.1429  0.2158
 5092TIP3    H136691   4.163   0.804  15.052 -1.5912  1.9971  1.7363
 5092TIP3    H236692   4.285   0.883  15.092  1.2454 -1.0478 -0.2814
 5093TIP3   OH236693   6.645   5.053  11.639  0.6706  0.2197 -0.1001
 5093TIP3    H136694   6.603   5.107  11.706  0.0626  1.0502 -1.1154
 5093TIP3    H236695   6.727   5.098  11.620  1.3808 -0.6314  0.8720
 5094TIP3   OH236696   3.229   6.144  10.752  0.2002  0.1990 -0.0879
 5094TIP3    H136697   3.190   6.219  10.799  1.4757  1.9544 -1.6853
 5094TIP3    H236698   3.158   6.111  10.697 -0.7136 -0.5734  1.4869
 5095TIP3   OH236699   1.870   5.001  15.862 -0.4453  0.5939  0.4521
 5095TIP3    H136700   1.922   5.072  15.824  2.1485 -2.6266 -2.6595
 5095TIP3    H236701   1.897   4.998  15.954  1.4731  1.8423 -0.0207
 5096TIP3   OH236702   1.660   3.640  15.397 -0.7305  0.2366  0.0207
 5096TIP3    H136703   1.604   3.628  15.321 -1.5604  1.7473  0.3599
 5096TIP3    H236704   1.604   3.623  15.472 -0.3484  0.3123  0.3304
 5097TIP3   OH236705   2.155   5.238   0.477 -1.3988  0.2835  0.4165
 5097TIP3    H136706   2.089   5.301   0.448 -0.6611  1.0470  0.3682
 5097TIP3    H236707   2.236   5.289   0.482 -0.5067 -0.9423 -0.8951
 5098TIP3   OH236708   2.571   6.374   2.262  0.0707 -0.0562 -0.2895
 5098TIP3    H136709   2.581   6.465   2.288 -0.1094  0.2884 -1.4116
 5098TIP3    H236710   2.584   6.325   2.344  0.2513  0.9548  0.3068
 5099TIP3   OH236711   4.326   0.687   0.208  0.1827  0.2665  0.2307
 5099TIP3    H136712   4.326   0.641   0.124  0.4041 -0.6152  0.6985
 5099TIP3    H236713   4.418   0.707   0.224  0.0357  1.4039 -0.2341
 5100TIP3   OH236714   4.766   4.898   5.410 -0.2276  0.0640 -0.4419
 5100TIP3    H136715   4.832   4.902   5.340 -0.3056  0.7516 -0.4877
 5100TIP3    H236716   4.684   4.879   5.365 -0.5398  1.9425 -0.7457
 5101TIP3   OH236717   6.257   4.665  15.155  0.4135 -0.2455  0.0273
 5101TIP3    H136718   6.318   4.732  15.123  0.4891  0.0272  0.7282
 5101TIP3    H236719   6.282   4.651  15.246 -1.2605  0.6654  0.6650
 5102TIP3   OH236720   3.640   6.691  14.723 -0.0603 -0.3212 -0.6160
 5102TIP3    H136721   3.568   6.724  14.775  0.7076  1.7153 -0.7680
 5102TIP3    H236722   3.606   6.690  14.633 -0.1859 -0.1998 -0.5698
 5103TIP3   OH236723   0.981   4.531   5.281  0.8380  0.3798  0.9303
 5103TIP3    H136724   1.039   4.526   5.205  0.3382  2.8030  0.2992
 5103TIP3    H236725   0.936   4.615   5.271 -2.5772 -1.2353  1.5719
 5104TIP3   OH236726   0.215   1.611   2.078 -0.4295 -0.1131 -0.2555
 5104TIP3    H136727   0.266   1.548   2.028  2.0416  0.2603  1.5648
 5104TIP3    H236728   0.210   1.688   2.022 -1.6871 -1.1688 -1.6669
 5105TIP3   OH236729   2.236   5.373  10.957 -0.8593  0.1984  0.2106
 5105TIP3    H136730   2.266   5.306  10.895 -1.4981 -0.0341  0.1431
 5105TIP3    H236731   2.227   5.452  10.904  0.8049  0.6025  0.4748
 5106TIP3   OH236732   5.750   3.317   3.921 -0.8459  0.2302 -0.4969
 5106TIP3    H136733   5.768   3.411   3.913 -1.0081  0.2777 -0.2819
 5106TIP3    H236734   5.747   3.300   4.015 -0.6498 -0.0226 -0.5347
 5107TIP3   OH236735   4.758   4.606  12.235 -0.5444 -0.0957  0.2481
 5107TIP3    H136736   4.722   4.691  12.210 -0.1276  0.3176  1.0011
 5107TIP3    H236737   4.852   4.614  12.215  0.1102  0.8163  3.2496
 5108TIP3   OH236738   4.106   3.621  10.913 -0.5597 -0.2841 -0.1601
 5108TIP3    H136739   4.148   3.539  10.889  1.4264 -0.1720  2.5536
 5108TIP3    H236740   4.081   3.610  11.005  1.3863  2.6525  0.8810
 5109TIP3   OH236741   6.509   5.316  14.084  0.7524  0.7086 -0.0217
 5109TIP3    H136742   6.446   5.305  14.155  0.8887  1.5394  0.2336
 5109TIP3    H236743   6.472   5.265  14.012 -1.0103  2.3595 -0.3718
 5110TIP3   OH236744   6.641   1.823  13.184 -0.0163  0.1295 -0.2501
 5110TIP3    H136745   6.696   1.843  13.108 -0.4683 -2.5434 -1.4293
 5110TIP3    H236746   6.551   1.832  13.151 -0.2369 -2.4259 -0.6000
 5111TIP3   OH236747   3.886   5.594  14.482 -0.3496 -0.4272 -0.0993
 5111TIP3    H136748   3.806   5.642  14.459 -0.8735 -0.8726  0.7669
 5111TIP3    H236749   3.936   5.654  14.537 -1.1352 -0.9505  1.2200
 5112TIP3   OH236750   5.881   1.125  14.352  0.2882  0.1177 -0.2696
 5112TIP3    H136751   5.798   1.076  14.354  0.8845 -0.9180  1.8978
 5112TIP3    H236752   5.855   1.217  14.348 -0.9729 -0.1935  0.3416
 5113TIP3   OH236753   2.107   4.122   2.389 -0.0405 -0.4646 -0.0252
 5113TIP3    H136754   2.150   4.144   2.472 -0.8462 -0.3386  0.3662
 5113TIP3    H236755   2.076   4.032   2.401 -2.0187  0.2596  0.6211
 5114TIP3   OH236756   5.887   2.772   0.056  0.3751  0.1727  0.2963
 5114TIP3    H136757   5.834   2.743   0.131 -0.2383 -1.0269 -0.5591
 5114TIP3    H236758   5.967   2.721   0.062  0.6931  0.7034  0.6057
 5115TIP3   OH236759   2.025   0.690  16.135 -0.0444 -0.6291  0.3169
 5115TIP3    H136760   1.981   0.612  16.100  0.1133 -0.1173 -1.0955
 5115TIP3    H236761   1.980   0.763  16.092  1.2491 -0.0433 -0.0796
 5116TIP3   OH236762   6.686   4.742   4.351  0.1639  0.3413 -0.1229
 5116TIP3    H136763   6.660   4.832   4.331  2.2008  0.6587 -1.6103
 5116TIP3    H236764   6.701   4.742   4.446  0.7009  1.7455 -0.1841
 5117TIP3   OH236765   2.119   6.214   1.645 -0.1714 -0.4631 -0.0397
 5117TIP3    H136766   2.174   6.231   1.722  1.8897  0.7456 -1.6648
 5117TIP3    H236767   2.146   6.127   1.615  0.8973  0.1250 -0.8296
 5118TIP3   OH236768   4.893   0.720  12.844 -0.0283 -0.6561  0.3797
 5118TIP3    H136769   4.907   0.698  12.936  0.9709 -0.4798  0.2858
 5118TIP3    H236770   4.816   0.670  12.818 -2.6952  2.1103  2.2983
 5119TIP3   OH236771   1.820   0.189   5.239  0.1667  0.0597  0.3985
 5119TIP3    H136772   1.830   0.098   5.210  0.3828  0.2013  0.0311
 5119TIP3    H236773   1.898   0.205   5.292  0.9979  0.5735 -0.9471
 5120TIP3   OH236774   6.793   5.632   3.312  0.1971 -0.2589  0.2924
 5120TIP3    H136775   6.832   5.554   3.352 -1.9143 -1.4426  0.2110
 5120TIP3    H236776   6.701   5.609   3.301 -0.1136  1.5823 -1.4612
 5121TIP3   OH236777   1.238   4.047   2.331  0.0090  0.1817  0.2689
 5121TIP3    H136778   1.190   4.070   2.252  1.3614 -2.1374 -1.3336
 5121TIP3    H236779   1.310   4.109   2.335 -1.2547  1.6831  0.9624
 5122TIP3   OH236780   6.031   4.594   1.773 -0.1720  0.7547 -0.1988
 5122TIP3    H136781   5.953   4.549   1.741  1.0839  0.1303 -2.6662
 5122TIP3    H236782   6.069   4.633   1.695  1.7636  1.3863  1.0005
 5123TIP3   OH236783   6.584   0.220   4.579  0.2210 -0.0346  0.0686
 5123TIP3    H136784   6.596   0.266   4.496  1.3846 -0.2209  0.1102
 5123TIP3    H236785   6.507   0.260   4.619 -0.3192  0.0854 -1.0812
 5124TIP3   OH236786   5.995   6.048   1.883  0.7423 -0.0064 -0.2877
 5124TIP3    H136787   6.060   6.109   1.848  0.9503 -0.1899 -0.2203
 5124TIP3    H236788   6.045   5.970   1.908  0.5959  0.1096  0.4013
 5125TIP3   OH236789   1.191   5.783   6.165  0.9819 -0.3418  0.7235
 5125TIP3    H136790   1.227   5.743   6.244  0.1330  0.9340  1.8123
 5125TIP3    H236791   1.129   5.849   6.198  3.1458  2.7686 -0.8377
 5126TIP3   OH236792   3.431   5.862   3.096  0.1019 -0.5531  0.5026
 5126TIP3    H136793   3.343   5.858   3.134  0.4262 -0.6039  1.2642
 5126TIP3    H236794   3.433   5.792   3.031  0.3206 -2.0590  2.0863
 5127TIP3   OH236795   1.725   5.618  14.640 -0.4699  0.2992  0.1893
 5127TIP3    H136796   1.754   5.540  14.593 -0.1133  1.1569 -1.0473
 5127TIP3    H236797   1.771   5.613  14.724  0.8737  0.0276 -0.5323
 5128TIP3   OH236798   1.084   0.504   6.141 -0.2242  1.1508 -0.1920
 5128TIP3    H136799   1.108   0.517   6.233 -0.5085 -1.3563  0.3240
 5128TIP3    H236800   1.123   0.419   6.118  0.1085  1.8623 -2.5130
 5129TIP3   OH236801   2.823   1.877  12.044  0.1895 -0.6747 -0.0613
 5129TIP3    H136802   2.822   1.840  11.956 -0.6592  0.1893 -0.4390
 5129TIP3    H236803   2.863   1.963  12.033 -0.2841 -0.3984  0.3227
 5130TIP3   OH236804   4.660   1.031   5.108  1.1218  0.2915 -0.4480
 5130TIP3    H136805   4.582   0.978   5.124  0.8651  0.6020 -0.6600
 5130TIP3    H236806   4.727   0.967   5.083  1.6928 -0.3012  2.2233
 5131TIP3   OH236807   5.040   6.771  16.743  0.1846  0.3332 -0.0908
 5131TIP3    H136808   5.008   6.802  16.827  1.7299  0.4322  0.4844
 5131TIP3    H236809   5.112   6.711  16.764  2.6515  2.6295 -1.2905
 5132TIP3   OH236810   0.109   0.225   1.281 -0.1526  0.0500  0.1989
 5132TIP3    H136811   0.156   0.152   1.321  0.2899  0.3564  0.2475
 5132TIP3    H236812   0.093   0.197   1.191 -0.2033 -0.2054  0.2867
 5133TIP3   OH236813   1.322   5.692   1.123  0.1818  0.0199  0.0641
 5133TIP3    H136814   1.259   5.690   1.050  0.0471 -0.9885  0.1911
 5133TIP3    H236815   1.407   5.697   1.081  0.1199 -0.8578 -0.1809
 5134TIP3   OH236816   2.137   4.981  16.707  0.4669  0.3277  0.9317
 5134TIP3    H136817   2.225   5.011  16.687 -0.5782  1.9781 -1.6170
 5134TIP3    H236818   2.101   4.952  16.623 -0.9491 -1.7608  2.1519
 5135TIP3   OH236819   5.416   0.848  14.181  0.0583  0.3052  0.6421
 5135TIP3    H136820   5.416   0.848  14.277  0.7305  0.0685  0.6451
 5135TIP3    H236821   5.363   0.772  14.157 -0.4161  0.5755  0.8213
 5136TIP3   OH236822   6.704   5.256   3.337  0.0805 -0.6598  1.0520
 5136TIP3    H136823   6.788   5.280   3.377 -0.1204  0.7991  0.6805
 5136TIP3    H236824   6.706   5.297   3.250 -0.5047 -1.6822  0.5385
 5137TIP3   OH236825   4.311   0.469  16.869  0.1066 -0.5442  0.4436
 5137TIP3    H136826   4.320   0.386  16.916 -0.4567 -0.6592  0.3615
 5137TIP3    H236827   4.356   0.454  16.785  1.1545 -0.3216  0.9477
 5138TIP3   OH236828   1.436   0.207  15.920 -0.1101 -0.5689  0.4192
 5138TIP3    H136829   1.386   0.149  15.978  2.1491 -0.6515  2.4705
 5138TIP3    H236830   1.449   0.286  15.972  0.8114 -0.0869 -0.5184
 5139TIP3   OH236831   0.311   5.634  14.921 -0.9950  0.3758  0.5152
 5139TIP3    H136832   0.295   5.609  14.830 -0.3002  0.6435  0.3124
 5139TIP3    H236833   0.383   5.577  14.948 -0.0468  1.4715  0.3502
 5140TIP3   OH236834   4.111   3.826   4.260 -0.8297  0.6744 -0.1243
 5140TIP3    H136835   4.081   3.735   4.251 -1.4030  0.9266 -0.7761
 5140TIP3    H236836   4.177   3.836   4.192  0.8295  0.1189  1.3063
 5141TIP3   OH236837   4.610   5.044   1.082  0.0622 -0.3476 -0.0405
 5141TIP3    H136838   4.587   5.120   1.135  1.9710  1.4486 -1.6411
 5141TIP3    H236839   4.557   5.052   1.003  1.6181  0.4583 -1.0578
 5142TIP3   OH236840   1.118   2.120   4.232  0.2051  0.6912  1.1083
 5142TIP3    H136841   1.080   2.203   4.264 -1.5216  0.5762 -0.4327
 5142TIP3    H236842   1.120   2.063   4.309 -0.8089  1.4160  1.6977
 5143TIP3   OH236843   6.454   3.710  11.136 -0.7717 -0.2651  0.7346
 5143TIP3    H136844   6.505   3.649  11.083 -0.4888  0.5262  0.0661
 5143TIP3    H236845   6.378   3.731  11.080 -0.6531  0.3046  0.7870
 5144TIP3   OH236846   5.825   5.203   0.002  0.0524 -0.3602  0.0674
 5144TIP3    H136847   5.886   5.261   0.047 -0.8994  0.8816 -0.2103
 5144TIP3    H236848   5.835   5.119   0.047  1.4070  0.0088  0.5102
 5145TIP3   OH236849   1.970   6.238   4.786 -0.7239  0.5483  0.4723
 5145TIP3    H136850   2.032   6.172   4.756 -1.4428  0.2280 -0.3550
 5145TIP3    H236851   1.949   6.213   4.876 -0.5845 -0.0382  0.3454
 5146TIP3   OH236852   0.816   3.927  16.436  0.2530 -0.4132  0.3857
 5146TIP3    H136853   0.853   3.874  16.507  0.9844 -1.1827 -0.5377
 5146TIP3    H236854   0.767   3.996  16.480  1.6891 -0.1593  1.6563
 5147TIP3   OH236855   6.249   1.903  14.039 -0.7310 -0.1725 -0.0119
 5147TIP3    H136856   6.157   1.878  14.035 -0.3883 -1.5009 -0.3754
 5147TIP3    H236857   6.261   1.961  13.964 -1.0776 -0.7860 -0.5616
 5148TIP3   OH236858   2.399   4.596  17.064  0.0613 -0.3294 -0.5691
 5148TIP3    H136859   2.343   4.521  17.084  0.8586 -1.6541 -2.9239
 5148TIP3    H236860   2.486   4.558  17.052  0.4685  0.9509 -1.8899
 5149TIP3   OH236861   4.663   5.233  12.068  0.3204  0.7463  0.4698
 5149TIP3    H136862   4.587   5.262  12.118 -0.0892  0.5374 -0.0221
 5149TIP3    H236863   4.698   5.312  12.029 -1.3681  0.5462 -1.6735
 5150TIP3   OH236864   0.980   0.601  16.197 -0.6907  0.4434  0.5000
 5150TIP3    H136865   0.933   0.518  16.184 -1.4239  0.8032  0.7612
 5150TIP3    H236866   0.974   0.645  16.112  1.5541 -0.6640 -0.2897
 5151TIP3   OH236867   1.626   1.161   2.342  0.1548 -0.4310 -0.1285
 5151TIP3    H136868   1.548   1.209   2.369 -1.2431 -2.1121 -0.9234
 5151TIP3    H236869   1.597   1.111   2.265  1.9424 -1.3068 -0.2774
 5152TIP3   OH236870   1.737   3.668   4.679 -0.3278 -0.5778 -0.3051
 5152TIP3    H136871   1.684   3.644   4.755 -0.6290  1.7211  0.2730
 5152TIP3    H236872   1.819   3.701   4.716  0.0595 -0.6684 -1.0564
 5153TIP3   OH236873   3.243   6.731   2.923  0.6975  0.0646  0.1240
 5153TIP3    H136874   3.190   6.710   2.846 -1.0323 -1.3296  1.6272
 5153TIP3    H236875   3.212   6.817   2.952  1.3184  0.5702 -0.6481
 5154TIP3   OH236876   5.150   0.103  11.127 -0.4964 -0.1200 -0.8220
 5154TIP3    H136877   5.062   0.137  11.144 -0.2273  0.3300 -0.2965
 5154TIP3    H236878   5.193   0.104  11.212  0.5058  1.0802 -1.3122
 5155TIP3   OH236879   5.887   4.668   1.125 -0.2715  0.9701  0.4540
 5155TIP3    H136880   5.894   4.573   1.115 -2.0007  0.7034  1.3986
 5155TIP3    H236881   5.955   4.691   1.188 -1.2235  0.0329  1.8559
 5156TIP3   OH236882   3.045   3.153  13.982  0.1259 -0.0103  0.3688
 5156TIP3    H136883   3.106   3.203  14.035  1.2535  1.0500 -1.7929
 5156TIP3    H236884   3.007   3.089  14.043  3.3024 -0.6928  1.8757
 5157TIP3   OH236885   4.230   1.316   6.615  0.1153  0.0625 -0.6188
 5157TIP3    H136886   4.210   1.387   6.676  0.9899 -1.0979  1.0624
 5157TIP3    H236887   4.247   1.240   6.670  0.2143 -1.2242 -2.3420
 5158TIP3   OH236888   4.958   2.929  16.496  0.2116  0.2866  0.5426
 5158TIP3    H136889   4.894   2.999  16.483 -0.2726  0.0302  1.4405
 5158TIP3    H236890   4.931   2.887  16.578  0.8685 -0.5492  0.3451
 5159TIP3   OH236891   2.890   5.869  15.769  0.0493 -0.5101  0.5454
 5159TIP3    H136892   2.970   5.905  15.732  1.1743 -2.0610  1.3784
 5159TIP3    H236893   2.857   5.938  15.827  0.3823  0.3920 -0.3056
 5160TIP3   OH236894   1.774   0.159   3.694 -0.2381 -0.1187 -0.0924
 5160TIP3    H136895   1.836   0.204   3.637  2.2450  1.0210  3.1809
 5160TIP3    H236896   1.719   0.229   3.730 -0.2817 -0.4812  0.5654
 5161TIP3   OH236897   0.015   2.060   0.348 -0.1933  0.1931  0.1838
 5161TIP3    H136898   0.034   2.152   0.364 -0.8127  0.5771 -1.1308
 5161TIP3    H236899  -0.068   2.061   0.300 -1.2649 -1.1639  1.8732
 5162TIP3   OH236900   4.305   2.591  14.503  0.0907  0.2617  0.0804
 5162TIP3    H136901   4.370   2.521  14.498 -0.4725 -0.2050 -0.7367
 5162TIP3    H236902   4.233   2.563  14.447 -0.6056  1.0116  0.5663
 5163TIP3   OH236903   5.718   1.826   5.339 -0.4152  0.0242 -0.3165
 5163TIP3    H136904   5.804   1.783   5.345 -0.7922 -0.6460  0.5237
 5163TIP3    H236905   5.664   1.765   5.288 -0.8782 -0.4126  0.6594
 5164TIP3   OH236906   1.722   0.597  13.071 -0.3995  0.4330  0.3963
 5164TIP3    H136907   1.696   0.505  13.079 -1.6078  0.6769 -0.5117
 5164TIP3    H236908   1.807   0.601  13.115 -0.3620 -1.0953  0.5303
 5165TIP3   OH236909   1.419   4.286  16.913  0.7367  0.0104  0.5793
 5165TIP3    H136910   1.337   4.324  16.883  1.0464  0.0968 -0.1879
 5165TIP3    H236911   1.485   4.319  16.852  1.2404 -0.5655  0.7927
 5166TIP3   OH236912   3.833   4.217   3.411 -0.4232  0.4410  0.0005
 5166TIP3    H136913   3.891   4.292   3.421  0.0078  0.0734  0.2935
 5166TIP3    H236914   3.751   4.244   3.454 -0.1135  0.5677  0.5148
 5167TIP3   OH236915   6.427   3.324   2.698  0.3678 -0.6733  0.0091
 5167TIP3    H136916   6.356   3.334   2.634  0.1599  0.8015  0.4284
 5167TIP3    H236917   6.497   3.283   2.649 -0.6566 -1.8738 -0.5012
 5168TIP3   OH236918   0.693   1.793   6.173 -0.5037 -0.6664  0.1325
 5168TIP3    H136919   0.668   1.765   6.085 -0.3687  0.1383 -0.1742
 5168TIP3    H236920   0.782   1.759   6.185 -0.5002 -0.7314 -0.0667
 5169TIP3   OH236921   6.562   6.693  16.856  0.2549  0.3751 -0.1175
 5169TIP3    H136922   6.489   6.649  16.900  0.9277 -1.5629 -0.8435
 5169TIP3    H236923   6.605   6.624  16.805  3.0683  1.2361  0.8850
 5170TIP3   OH236924   1.030   2.557   1.601 -0.1411  0.1975 -0.3824
 5170TIP3    H136925   1.064   2.477   1.641 -0.7495  0.6782  1.1715
 5170TIP3    H236926   0.944   2.570   1.640  0.5776  2.4478  0.6698
 5171TIP3   OH236927   1.230   3.225  12.427 -0.1262  0.8328 -0.4470
 5171TIP3    H136928   1.208   3.319  12.424  2.5684  1.5390 -0.2531
 5171TIP3    H236929   1.236   3.205  12.520 -4.5393 -0.6617 -0.2612
 5172TIP3   OH236930   4.951   2.912  15.648  0.1170  0.3242 -0.5259
 5172TIP3    H136931   4.875   2.907  15.707  0.8283  0.5999  0.4465
 5172TIP3    H236932   4.914   2.931  15.562 -0.9656 -0.2396 -0.1997
 5173TIP3   OH236933   5.122   6.370   3.201 -0.4756  0.3847  0.9290
 5173TIP3    H136934   5.128   6.361   3.106  0.5001 -0.3067  1.0445
 5173TIP3    H236935   5.030   6.391   3.217 -0.8478 -0.3674 -0.1027
 5174TIP3   OH236936   4.114   6.619   4.379  0.5483  0.1114  0.5033
 5174TIP3    H136937   4.182   6.611   4.312 -0.7238  0.1964 -0.8402
 5174TIP3    H236938   4.155   6.583   4.458  1.0314 -3.1316 -1.0405
 5175TIP3   OH236939   4.380   4.742   0.221  0.0632  0.2354  0.4400
 5175TIP3    H136940   4.347   4.774   0.137  3.0198  0.3646 -0.8093
 5175TIP3    H236941   4.430   4.815   0.256 -0.5011 -0.0873  1.9635
 5176TIP3   OH236942   6.742   4.605  16.299 -0.0660  0.0998 -0.1707
 5176TIP3    H136943   6.744   4.698  16.276  0.0633  0.6887  1.9899
 5176TIP3    H236944   6.746   4.604  16.394  1.8701 -2.2074 -0.1829
 5177TIP3   OH236945   1.309   1.677  11.528  0.0911  0.7008  0.4197
 5177TIP3    H136946   1.335   1.769  11.530 -0.6518  0.9190  0.4330
 5177TIP3    H236947   1.214   1.679  11.538 -0.0267 -0.0245 -0.4356
 5178TIP3   OH236948   0.758   0.420   1.999 -0.0922  0.6312  0.3496
 5178TIP3    H136949   0.757   0.502   2.048  1.1226  0.9856 -0.1811
 5178TIP3    H236950   0.851   0.405   1.980 -0.3345 -0.6689  0.1080
 5179TIP3   OH236951   6.627   3.217   3.802 -0.1162 -0.2657 -0.3231
 5179TIP3    H136952   6.707   3.195   3.851 -0.1868  1.0699  0.4732
 5179TIP3    H236953   6.659   3.266   3.726 -0.1474  0.2258 -0.0303
 5180TIP3   OH236954   0.997   6.654  15.614  0.0965 -1.4583  0.2453
 5180TIP3    H136955   0.907   6.672  15.641  0.8364  0.4720  1.6188
 5180TIP3    H236956   1.020   6.728  15.558  1.3504 -1.0663  1.2400
 5181TIP3   OH236957   1.476   6.094   1.963  0.5190  0.2281 -0.3370
 5181TIP3    H136958   1.475   6.109   1.868  1.3715 -0.2410 -0.4324
 5181TIP3    H236959   1.472   5.999   1.972 -3.0510  0.3032  0.2159
 5182TIP3   OH236960   5.492   0.784   4.992 -0.2381 -0.0765 -0.1369
 5182TIP3    H136961   5.518   0.795   4.900  0.2679 -0.2222 -0.0141
 5182TIP3    H236962   5.447   0.865   5.014  1.1216  0.6675 -0.0222
 5183TIP3   OH236963   6.775   6.709  12.054 -0.0776 -0.0496 -0.2163
 5183TIP3    H136964   6.853   6.657  12.030 -0.8592 -1.9276  1.0710
 5183TIP3    H236965   6.763   6.769  11.980  1.0818 -1.5035 -1.6672
 5184TIP3   OH236966   1.320   4.662  11.133 -0.4589 -0.0050  0.8898
 5184TIP3    H136967   1.322   4.727  11.064 -1.4650  0.3806  1.2130
 5184TIP3    H236968   1.412   4.642  11.150 -0.1438  1.2759  0.7437
 5185TIP3   OH236969   5.800   5.608  13.540 -0.2356  0.6892 -0.2493
 5185TIP3    H136970   5.804   5.566  13.454  0.6089 -1.9156  0.9526
 5185TIP3    H236971   5.723   5.569  13.582  1.6750 -1.2860  1.6222
 5186TIP3   OH236972   2.404   2.981  16.006  0.1116 -0.3880 -0.2048
 5186TIP3    H136973   2.358   2.905  16.041  0.2897 -0.6620 -0.5538
 5186TIP3    H236974   2.374   2.987  15.915 -0.0897  0.1091 -0.1066
 5187TIP3   OH236975   2.112   5.933  12.980  0.4361  0.3418  0.1110
 5187TIP3    H136976   2.056   5.998  13.021  0.6354  0.5191  0.1018
 5187TIP3    H236977   2.076   5.922  12.892  0.1989  0.1909  0.2261
 5188TIP3   OH236978   1.957   6.758  16.561 -0.7741 -0.4271 -0.4867
 5188TIP3    H136979   2.031   6.754  16.622 -1.2984  1.7905  0.3860
 5188TIP3    H236980   1.975   6.688  16.497  2.1735  0.1540 -0.4350
 5189TIP3   OH236981   1.159   2.749  14.832 -0.6916  0.3720 -0.3794
 5189TIP3    H136982   1.123   2.762  14.919 -0.8147  0.8573 -0.4978
 5189TIP3    H236983   1.253   2.768  14.842 -1.2166  4.2322 -1.0690
 5190TIP3   OH236984   3.523   5.936   2.015 -0.1127 -0.2770 -0.3944
 5190TIP3    H136985   3.458   6.005   2.006  0.9641  0.9234  0.6345
 5190TIP3    H236986   3.520   5.911   2.107  1.0043 -0.0454 -0.2788
 5191TIP3   OH236987   0.253   1.234  15.194  0.1174  0.1923  0.3827
 5191TIP3    H136988   0.313   1.298  15.157 -0.4265  0.5420  0.1010
 5191TIP3    H236989   0.253   1.161  15.132  0.1681  0.2350  0.3330
 5192TIP3   OH236990   3.155   2.589  13.747  0.3360  0.4042 -0.3992
 5192TIP3    H136991   3.238   2.616  13.786  0.2116  1.8723 -1.0805
 5192TIP3    H236992   3.113   2.536  13.815  2.1077 -0.9681 -0.3042
 5193TIP3   OH236993   2.100   2.106   3.123 -0.5507  0.2019 -0.1657
 5193TIP3    H136994   2.129   2.125   3.033  0.7925  0.7075  0.3535
 5193TIP3    H236995   2.102   2.010   3.128  0.8748  0.2075 -0.2260
 5194TIP3   OH236996   1.994   5.610   0.702  0.3072  0.7653  0.4314
 5194TIP3    H136997   1.954   5.661   0.632  0.3423 -0.4816 -0.5298
 5194TIP3    H236998   2.083   5.594   0.672 -0.2775 -1.5380 -0.2619
 5195TIP3   OH236999   5.028   4.447   1.088  0.0051 -0.2289 -0.2590
 5195TIP3    H137000   5.113   4.484   1.062 -0.0405 -0.3332 -0.5569
 5195TIP3    H237001   5.044   4.353   1.094 -0.0943 -0.2499 -0.3309
 5196TIP3   OH237002   1.905   0.443  15.906  0.2027  0.1784 -0.0158
 5196TIP3    H137003   1.999   0.435  15.891  0.6769  0.9275  2.2619
 5196TIP3    H237004   1.873   0.490  15.829  2.1806  2.4068  0.4007
 5197TIP3   OH237005   2.203   1.049   3.724 -0.1164  0.0188 -0.1480
 5197TIP3    H137006   2.146   1.041   3.800  0.5756  0.0407  0.3784
 5197TIP3    H237007   2.144   1.076   3.653 -0.6341  0.8078  0.5595
 5198TIP3   OH237008   3.659   0.417   5.031 -0.0740  0.0114  0.6681
 5198TIP3    H137009   3.713   0.344   5.060 -1.2463 -1.8779 -1.5142
 5198TIP3    H237010   3.702   0.495   5.065  2.8587 -1.5172  0.7173
 5199TIP3   OH237011   0.229   5.965  14.949 -0.5174  0.1665 -0.4045
 5199TIP3    H137012   0.193   6.047  14.916 -1.3146 -0.5697 -1.4394
 5199TIP3    H237013   0.246   5.913  14.870 -0.5235 -0.8568  0.2529
 5200TIP3   OH237014   3.535   3.827  13.503 -0.0027  0.1265 -0.0808
 5200TIP3    H137015   3.591   3.758  13.540  1.2032  0.4741 -1.1707
 5200TIP3    H237016   3.459   3.830  13.561 -0.5616 -2.7450 -0.5043
 5201TIP3   OH237017   5.555   5.763  10.664 -0.0864  0.9160  0.4256
 5201TIP3    H137018   5.518   5.846  10.634 -1.7602 -0.2894 -1.0924
 5201TIP3    H237019   5.519   5.698  10.603  1.6042 -0.8550  1.2265
 5202TIP3   OH237020   1.716   6.670   4.481 -0.6101  0.8980 -0.3892
 5202TIP3    H137021   1.702   6.750   4.430  0.2557  0.1382 -1.8770
 5202TIP3    H237022   1.732   6.701   4.570  1.2814  2.5329 -1.2239
 5203TIP3   OH237023   2.070   1.757   5.191  0.0558  0.6545 -0.3474
 5203TIP3    H137024   2.162   1.775   5.173  0.4295  0.3063  1.0682
 5203TIP3    H237025   2.023   1.796   5.118  1.3637  0.2219 -1.4541
 5204TIP3   OH237026   5.887   3.551   3.548 -0.0161 -0.1220 -0.1145
 5204TIP3    H137027   5.974   3.510   3.555 -0.6890 -1.7636 -0.9317
 5204TIP3    H237028   5.897   3.617   3.480  1.1172  1.2206  1.2868
 5205TIP3   OH237029   1.920   2.860  16.750 -0.1334 -0.4654 -0.2045
 5205TIP3    H137030   1.954   2.813  16.827 -0.8344  0.4223  0.6734
 5205TIP3    H237031   1.832   2.825  16.738  0.0515 -0.7488 -0.7369
 5206TIP3   OH237032   1.479   6.728  15.166  0.9751 -0.7121  0.2707
 5206TIP3    H137033   1.528   6.717  15.084 -0.0976  2.6363 -1.0208
 5206TIP3    H237034   1.530   6.793  15.215 -0.9728  1.3026 -0.2110
 5207TIP3   OH237035   3.109   6.773  15.392 -0.2589 -0.0690  0.0845
 5207TIP3    H137036   3.054   6.780  15.314 -2.2007 -1.5794  1.2343
 5207TIP3    H237037   3.119   6.864  15.423 -1.2757  0.3224 -0.6923
 5208TIP3   OH237038   1.917   4.049   0.198 -0.1437 -0.2342 -0.1084
 5208TIP3    H137039   1.837   4.014   0.159 -0.2097 -1.4547  1.0563
 5208TIP3    H237040   1.887   4.116   0.259 -0.5024 -1.8537  1.6230
 5209TIP3   OH237041   6.452   2.540   3.331  0.0870  0.0097 -0.0978
 5209TIP3    H137042   6.361   2.572   3.331  1.0971  3.4104  1.5619
 5209TIP3    H237043   6.478   2.545   3.239 -0.7406  1.4099 -0.3035
 5210TIP3   OH237044   0.182   0.213  12.314  0.3092 -0.1860  0.0995
 5210TIP3    H137045   0.103   0.227  12.264  1.7860  0.8639 -2.0809
 5210TIP3    H237046   0.218   0.131  12.281  1.5015  0.7141 -0.9377
 5211TIP3   OH237047   4.975   0.705  14.236  0.4589  0.1990 -0.0192
 5211TIP3    H137048   4.900   0.764  14.227  0.1240 -0.1556  0.3589
 5211TIP3    H237049   4.968   0.672  14.326  1.4907  0.7119  0.2647
 5212TIP3   OH237050   3.024   6.760   2.029 -0.3358  0.3689 -0.4536
 5212TIP3    H137051   3.111   6.759   1.989  0.3316 -0.9758  0.9407
 5212TIP3    H237052   2.972   6.818   1.972  1.0585  0.0464 -2.1287
 5213TIP3   OH237053   2.146   6.678  12.035  0.0813  0.2489 -0.7223
 5213TIP3    H137054   2.228   6.629  12.024  0.4167  0.3163  1.1493
 5213TIP3    H237055   2.173   6.763  12.070 -0.7906  0.0067  0.6352
 5214TIP3   OH237056   0.648   6.538   3.645 -0.1845 -0.1615  0.2338
 5214TIP3    H137057   0.718   6.601   3.625  0.3771 -0.3560  1.4720
 5214TIP3    H237058   0.694   6.462   3.682 -1.0265 -0.4087  0.7960
 5215TIP3   OH237059   3.130   0.415   2.307 -0.1472 -0.2868 -0.9523
 5215TIP3    H137060   3.041   0.386   2.325 -0.1086  0.3911  0.5127
 5215TIP3    H237061   3.120   0.501   2.268 -0.1487 -0.5797 -1.6087
 5216TIP3   OH237062   4.723   0.917  16.833  0.0492 -0.0272 -0.3085
 5216TIP3    H137063   4.776   0.997  16.830 -0.7629  0.5512  0.3963
 5216TIP3    H237064   4.736   0.883  16.922  1.8954 -1.7522 -1.1609
 5217TIP3   OH237065   0.668   5.950  13.428 -0.1736 -0.1581 -0.4344
 5217TIP3    H137066   0.742   6.001  13.461  1.5642 -1.2670 -2.3711
 5217TIP3    H237067   0.672   5.867  13.475  1.9571 -1.5160 -2.7653
 5218TIP3   OH237068   5.060   1.069  12.062 -0.3276 -0.3945 -0.3405
 5218TIP3    H137069   5.088   1.141  12.118 -1.7725  1.2758 -1.6694
 5218TIP3    H237070   5.140   1.019  12.046  1.0480  1.7327 -0.5336
 5219TIP3   OH237071   0.908   1.206  11.653  0.7064 -0.0948  0.0835
 5219TIP3    H137072   0.837   1.239  11.598 -0.4671 -0.6791  1.2034
 5219TIP3    H237073   0.879   1.222  11.743 -0.4593 -4.8957  0.8545
 5220TIP3   OH237074   6.377   5.503  16.296 -0.4334  0.3488 -0.9476
 5220TIP3    H137075   6.360   5.548  16.379  0.6938  1.2625 -1.1884
 5220TIP3    H237076   6.400   5.572  16.235  0.9378 -0.4889 -1.4425
 5221TIP3   OH237077   0.200   1.523  16.231 -0.1788  0.1040 -0.0944
 5221TIP3    H137078   0.291   1.535  16.258 -0.6999 -0.3914  2.0834
 5221TIP3    H237079   0.190   1.582  16.157  1.5694  1.1519  0.4246
 5222TIP3   OH237080   0.634   4.943  11.590  0.1145 -0.0929 -0.3610
 5222TIP3    H137081   0.722   4.969  11.617 -0.7416  2.7725  0.0428
 5222TIP3    H237082   0.631   4.960  11.495  0.0087 -0.2519 -0.3879
 5223TIP3   OH237083   0.877   4.291   6.405  0.3365 -0.3503  0.0843
 5223TIP3    H137084   0.834   4.330   6.481  1.7404  0.7889  0.3403
 5223TIP3    H237085   0.871   4.357   6.337  1.2100 -0.3842 -0.0345
 5224TIP3   OH237086   1.395   0.587   2.634 -0.4581 -0.4568  0.4107
 5224TIP3    H137087   1.438   0.652   2.688 -0.6982  0.3719 -0.3813
 5224TIP3    H237088   1.384   0.629   2.549 -1.8390 -1.0227  0.2771
 5225TIP3   OH237089   6.748   5.298  16.518  0.1311  0.0935 -0.5347
 5225TIP3    H137090   6.717   5.308  16.609 -0.0712  2.8378 -0.8140
 5225TIP3    H237091   6.675   5.256  16.473 -1.1029  1.5489 -0.0180
 5226TIP3   OH237092   5.884   5.124   3.464 -0.2646 -0.3402 -0.0726
 5226TIP3    H137093   5.822   5.152   3.396 -1.4688 -0.0510  1.0910
 5226TIP3    H237094   5.868   5.184   3.537  1.5317 -0.1553  0.2176
 5227TIP3   OH237095   1.111   0.823  12.324  0.6511  0.3670  0.3127
 5227TIP3    H137096   1.191   0.778  12.352  0.5200  0.1111  0.2807
 5227TIP3    H237097   1.052   0.816  12.399 -1.0306 -3.4217 -1.1294
 5228TIP3   OH237098   1.889   1.935   5.784  0.0651 -0.1168 -0.2430
 5228TIP3    H137099   1.813   1.877   5.786 -0.7916  0.9709 -0.4626
 5228TIP3    H237100   1.902   1.960   5.876 -0.1601  0.0874 -0.2648
 5229TIP3   OH237101   2.951   0.970   3.037 -0.0445 -0.6464  0.2027
 5229TIP3    H137102   2.859   0.965   3.010 -0.3430  0.5584  0.9503
 5229TIP3    H237103   2.958   1.053   3.084  1.6938 -0.1802 -0.8026
 5230TIP3   OH237104   1.516   0.843  16.575  0.1654  0.4055 -0.6102
 5230TIP3    H137105   1.466   0.921  16.600  0.6579  1.1968 -1.9898
 5230TIP3    H237106   1.449   0.780  16.548 -0.1619  1.4966 -2.5541
 5231TIP3   OH237107   2.566   3.878  11.864 -0.1819  0.4937 -0.4358
 5231TIP3    H137108   2.502   3.934  11.908 -0.1545  0.2222 -0.0458
 5231TIP3    H237109   2.580   3.919  11.778 -1.7263 -0.0629 -0.9824
 5232TIP3   OH237110   2.037   0.030  13.784 -0.2699 -0.3247 -0.4951
 5232TIP3    H137111   2.132   0.035  13.793 -0.1701  0.6657 -1.7745
 5232TIP3    H237112   2.009  -0.026  13.857  1.0116  1.5005  1.5574
 5233TIP3   OH237113   6.258   4.548   3.084 -0.0430 -0.3631 -0.0003
 5233TIP3    H137114   6.224   4.579   3.168  1.8311  0.4843  0.4984
 5233TIP3    H237115   6.277   4.629   3.036  0.3743 -0.8261 -0.6152
 5234TIP3   OH237116   0.794   0.265   0.806  0.4760  0.3167 -0.5750
 5234TIP3    H137117   0.704   0.267   0.839  0.3821  1.1837 -0.8613
 5234TIP3    H237118   0.828   0.353   0.825  1.3513 -0.0866 -0.2295
 5235TIP3   OH237119   0.279   2.193   5.604 -0.5071  0.2753  0.0540
 5235TIP3    H137120   0.267   2.120   5.544 -0.3421 -0.4971  0.9291
 5235TIP3    H237121   0.222   2.262   5.570 -1.2765 -0.5362 -0.3505
 5236TIP3   OH237122   6.758   1.298   2.621  0.1400 -0.1704 -0.1258
 5236TIP3    H137123   6.811   1.376   2.603  1.8528 -1.3179 -0.3010
 5236TIP3    H237124   6.817   1.239   2.668 -0.7730 -1.8041 -0.9469
 5237TIP3   OH237125   4.123   3.449  13.892 -0.3485  0.1294  0.2669
 5237TIP3    H137126   4.118   3.368  13.941  1.7166  1.5646  3.1299
 5237TIP3    H237127   4.189   3.433  13.825 -0.6174 -0.7942  0.2147
 5238TIP3   OH237128   0.302   1.840   5.504  0.0749 -0.3679  0.1865
 5238TIP3    H137129   0.380   1.852   5.560 -0.2130 -1.2151  0.7940
 5238TIP3    H237130   0.338   1.831   5.416  0.7048 -0.9601  0.4829
 5239TIP3   OH237131   5.256   0.725   3.325 -0.2876 -0.6333 -0.1352
 5239TIP3    H137132   5.257   0.659   3.395 -3.3495 -0.2237  0.4435
 5239TIP3    H237133   5.272   0.675   3.245  1.1711 -1.4428  0.6198
 5240TIP3   OH237134   3.295   6.049   4.761  0.3479  0.3328  0.0716
 5240TIP3    H137135   3.345   6.039   4.680 -0.3652  0.9900 -0.4573
 5240TIP3    H237136   3.210   6.082   4.733 -0.4626 -0.9317  0.9436
 5241TIP3   OH237137   5.794   4.983  12.597 -0.2058 -0.0242  0.5777
 5241TIP3    H137138   5.812   4.901  12.643 -0.0330  0.1800  0.8715
 5241TIP3    H237139   5.819   5.052  12.658  2.0158  0.2657 -0.5499
 5242TIP3   OH237140   3.708   1.585   3.369 -0.2700  0.0651  0.3971
 5242TIP3    H137141   3.723   1.495   3.340 -1.8649  0.0460 -0.4989
 5242TIP3    H237142   3.614   1.598   3.360 -0.0506  1.9095  0.2850
 5243TIP3   OH237143   2.665   5.511   0.080  0.0063 -0.4084  0.9558
 5243TIP3    H137144   2.571   5.520   0.090 -0.1650  0.9168 -1.2525
 5243TIP3    H237145   2.676   5.447   0.009  0.6968  0.6680  0.0647
 5244TIP3   OH237146   3.217   4.275   2.206  0.6012  0.0221 -0.3581
 5244TIP3    H137147   3.213   4.334   2.281  2.8116 -1.8426  1.4089
 5244TIP3    H237148   3.293   4.306   2.156  0.6932 -0.2529 -0.3907
 5245TIP3   OH237149   0.304   4.935   2.433  0.1271  0.5179  0.7861
 5245TIP3    H137150   0.238   4.872   2.404  0.2594  0.3274  0.8948
 5245TIP3    H237151   0.376   4.923   2.371 -0.3292  1.4188  0.0639
 5246TIP3   OH237152   1.910   5.964  17.104  0.5360  0.4304  0.1679
 5246TIP3    H137153   1.951   5.900  17.046 -0.4690 -0.1037  0.0208
 5246TIP3    H237154   1.982   6.022  17.130  1.4203 -0.5858  0.0876
 5247TIP3   OH237155   6.677   4.531   2.342 -0.7555  0.4241 -0.5042
 5247TIP3    H137156   6.756   4.571   2.307 -0.0378 -1.0962 -0.6791
 5247TIP3    H237157   6.611   4.544   2.274 -0.1792  0.1471 -1.1250
 5248TIP3   OH237158   6.392   6.643  16.258 -0.3274 -0.0467 -0.5130
 5248TIP3    H137159   6.479   6.607  16.244 -0.4274 -1.3939  1.7484
 5248TIP3    H237160   6.407   6.724  16.307 -0.3053  0.6796 -1.6840
 5249TIP3   OH237161   5.853   6.443  14.643 -0.4096  0.1605  0.7951
 5249TIP3    H137162   5.869   6.400  14.559  1.0627  2.9176 -0.4760
 5249TIP3    H237163   5.839   6.372  14.705 -2.5656 -1.9950 -1.9048
 5250TIP3   OH237164   3.345   3.248   1.855 -0.6786  0.0725  0.1881
 5250TIP3    H137165   3.396   3.173   1.823 -1.2202  0.6413 -2.2199
 5250TIP3    H237166   3.377   3.263   1.944  3.0475  0.1490 -1.0292
 5251TIP3   OH237167   4.135   4.366  12.406  0.2259  0.3112 -0.1898
 5251TIP3    H137168   4.071   4.407  12.348  0.3316  0.2594 -0.3443
 5251TIP3    H237169   4.118   4.405  12.492 -0.0486  0.2581 -0.2180
 5252TIP3   OH237170   2.304   3.680   1.595 -0.7576  0.0306  0.3169
 5252TIP3    H137171   2.352   3.743   1.647 -1.2668  1.1386 -0.5169
 5252TIP3    H237172   2.229   3.655   1.650 -0.4169 -0.0455  0.7460
 5253TIP3   OH237173   6.486   3.377  15.230 -0.1962 -0.0615 -0.4278
 5253TIP3    H137174   6.576   3.406  15.217  0.0455 -0.7454 -0.3256
 5253TIP3    H237175   6.434   3.434  15.173  0.0790  1.5216  0.8380
 5254TIP3   OH237176   3.483   2.294  13.193 -0.0240  0.0190 -0.3861
 5254TIP3    H137177   3.422   2.344  13.138 -0.4170 -2.1289 -2.0421
 5254TIP3    H237178   3.452   2.309  13.282 -2.1022  0.1690 -1.0650
 5255TIP3   OH237179   4.843   3.712  17.017 -0.0551 -0.7301  0.4963
 5255TIP3    H137180   4.757   3.746  17.040  0.5719  1.4733 -0.2377
 5255TIP3    H237181   4.896   3.725  17.096  0.6965  1.9658 -0.3541
 5256TIP3   OH237182   0.705   2.642   6.530  0.0785 -0.3727 -0.2899
 5256TIP3    H137183   0.642   2.631   6.601 -1.7183 -1.2455 -1.9161
 5256TIP3    H237184   0.788   2.611   6.566 -0.1647  1.5026  2.1672
 5257TIP3   OH237185   3.357   2.263  12.175 -0.1610 -1.0458  0.2349
 5257TIP3    H137186   3.270   2.296  12.200  0.0524 -0.9867  0.9246
 5257TIP3    H237187   3.401   2.338  12.136 -0.6421 -1.2426 -0.7188
 5258TIP3   OH237188   4.371   0.237   4.980 -0.0688 -0.5595 -0.3008
 5258TIP3    H137189   4.444   0.179   4.960  0.2542 -0.6484  1.0246
 5258TIP3    H237190   4.302   0.211   4.920  0.8139 -0.8278 -1.2191
 5259TIP3   OH237191   3.642   6.490  11.949 -0.0751 -0.2276 -0.5007
 5259TIP3    H137192   3.562   6.528  11.915  1.0299  1.6069 -1.2195
 5259TIP3    H237193   3.644   6.518  12.041 -0.8800 -1.4382 -0.0829
 5260TIP3   OH237194   1.508   1.483  12.136 -0.2933 -0.6093 -0.2991
 5260TIP3    H137195   1.446   1.456  12.068 -0.7821 -2.1963  0.7254
 5260TIP3    H237196   1.578   1.417  12.133 -0.9099 -1.4045  1.4782
 5261TIP3   OH237197   3.705   1.394  15.765 -0.1543 -0.4420 -0.8822
 5261TIP3    H137198   3.668   1.440  15.689  2.8460 -1.1020 -2.9115
 5261TIP3    H237199   3.750   1.462  15.815  1.1064 -0.5189 -1.8540
 5262TIP3   OH237200   2.034   3.848  16.906 -0.2270  0.2643 -0.0343
 5262TIP3    H137201   2.033   3.896  16.824  1.0556 -2.0687 -1.5245
 5262TIP3    H237202   2.007   3.759  16.883 -0.2743 -0.3678  2.1638
 5263TIP3   OH237203   5.876   0.620  15.238  0.3738 -0.2809 -0.3870
 5263TIP3    H137204   5.816   0.693  15.221  0.6663 -0.2508 -1.2905
 5263TIP3    H237205   5.820   0.543  15.239  0.1698 -0.1355 -0.1330
 5264TIP3   OH237206   1.991   3.067  11.704 -0.0063  0.5506  0.0992
 5264TIP3    H137207   1.950   3.063  11.617  1.2640 -0.5389 -0.4991
 5264TIP3    H237208   1.960   3.149  11.742 -0.7544  0.9551 -1.3094
 5265TIP3   OH237209   4.829   0.328   4.741  0.1286 -0.3286 -0.1554
 5265TIP3    H137210   4.758   0.274   4.773  0.2424 -1.1528 -1.2397
 5265TIP3    H237211   4.883   0.345   4.818  0.7091 -2.7113  0.0231
 5266TIP3   OH237212   5.013   4.134  17.076 -0.9710  0.0174  0.0910
 5266TIP3    H137213   5.096   4.162  17.114 -0.6372 -0.7454 -0.0473
 5266TIP3    H237214   5.036   4.105  16.988 -1.6229  1.1379 -0.4760
 5267TIP3   OH237215   1.926   0.000  15.020  0.3030 -0.5116 -0.8880
 5267TIP3    H137216   1.883  -0.082  15.044 -1.4164  0.4778 -0.4563
 5267TIP3    H237217   1.907   0.012  14.928  0.4567 -0.5352 -0.9235
 5268TIP3   OH237218   1.329   2.824   4.336 -0.4241  0.4751 -0.2813
 5268TIP3    H137219   1.423   2.814   4.317 -0.8445  0.2886 -2.4779
 5268TIP3    H237220   1.291   2.738   4.317 -0.9938  0.3608  1.2018
 5269TIP3   OH237221   3.987   6.458  12.458 -0.0686 -0.2083 -0.4798
 5269TIP3    H137222   3.916   6.394  12.455 -1.1551  0.7348  2.1496
 5269TIP3    H237223   3.953   6.534  12.410  0.0036 -0.4742 -0.9621
 5270TIP3   OH237224   0.409   0.589   3.789  0.1970 -0.0004 -0.3065
 5270TIP3    H137225   0.410   0.683   3.806  1.0952  0.0075 -0.3647
 5270TIP3    H237226   0.464   0.552   3.858  0.0357 -0.4555 -0.4238
 5271TIP3   OH237227   3.475   1.267  13.106  0.3680 -0.0404 -0.0158
 5271TIP3    H137228   3.569   1.266  13.092  0.8280  1.7825  2.3008
 5271TIP3    H237229   3.457   1.352  13.147 -2.4932  0.2242 -1.5435
 5272TIP3   OH237230   2.030   4.743  11.830 -0.0355 -0.0184  0.0993
 5272TIP3    H137231   2.118   4.742  11.793  0.4743  1.9529  1.1161
 5272TIP3    H237232   1.976   4.785  11.763  0.0768  0.0450  0.0491
 5273TIP3   OH237233   4.046   6.485   3.309 -0.5686  0.0357  0.2720
 5273TIP3    H137234   3.961   6.466   3.271 -0.0831 -0.1555 -0.7706
 5273TIP3    H237235   4.064   6.576   3.284 -0.6592  0.2200  0.8705
 5274TIP3   OH237236   3.759   4.385   0.821 -0.2485  0.3858  0.1278
 5274TIP3    H137237   3.769   4.336   0.740 -3.1393  1.9769 -1.3471
 5274TIP3    H237238   3.783   4.475   0.798  1.1208  0.4931  1.7296
 5275TIP3   OH237239   0.737   4.395   5.162 -0.0191  1.2439  0.2107
 5275TIP3    H137240   0.737   4.301   5.178  0.9689  0.7919 -2.0804
 5275TIP3    H237241   0.785   4.432   5.237  1.7645 -0.3559 -0.0856
 5276TIP3   OH237242   5.036   6.144  13.417 -0.2809  0.0878  0.0305
 5276TIP3    H137243   4.980   6.066  13.416  0.1351 -0.2097 -0.1803
 5276TIP3    H237244   5.024   6.183  13.331  1.0556 -0.8596 -0.6193
 5277TIP3   OH237245   0.316   5.738  12.986 -0.6804  0.5838 -0.4462
 5277TIP3    H137246   0.307   5.824  13.027  2.2559  0.7790  0.0041
 5277TIP3    H237247   0.242   5.732  12.926 -2.3527  2.3589  1.3074
 5278TIP3   OH237248   1.925   1.374   0.196 -0.2961  0.3932 -0.3186
 5278TIP3    H137249   1.846   1.321   0.187 -1.0060  1.2376  0.7503
 5278TIP3    H237250   1.909   1.450   0.140  0.1265  0.1644 -0.7569
 5279TIP3   OH237251   0.411   1.709  11.559 -0.1894  0.1269 -0.4271
 5279TIP3    H137252   0.340   1.645  11.566 -0.3432  0.4287  1.0150
 5279TIP3    H237253   0.412   1.754  11.644  2.0603 -0.2190 -0.2044
 5280TIP3   OH237254   3.474   6.467   0.187 -0.0143 -0.9836 -0.4658
 5280TIP3    H137255   3.485   6.381   0.229 -1.2094 -0.3423  1.2934
 5280TIP3    H237256   3.384   6.492   0.207  0.8199  1.4575  0.6763
 5281TIP3   OH237257   1.028   0.172   0.414 -0.2557 -0.1696 -0.1601
 5281TIP3    H137258   1.014   0.263   0.387  0.2649 -0.1522 -0.3798
 5281TIP3    H237259   0.978   0.121   0.349 -1.2969 -0.0163  0.4896
 5282TIP3   OH237260   1.919   2.647   4.179 -0.3841 -0.3016 -0.1645
 5282TIP3    H137261   1.853   2.591   4.139  0.0438 -0.9580  0.0404
 5282TIP3    H237262   1.996   2.591   4.190 -0.2640  0.0423  0.9271
 5283TIP3   OH237263   3.111   5.617  14.004 -0.5295 -0.1124 -0.7436
 5283TIP3    H137264   3.117   5.699  13.955 -1.7264  0.5726  0.2048
 5283TIP3    H237265   3.034   5.572  13.967  0.3775 -1.0501 -1.5672
 5284TIP3   OH237266   0.959   3.793   1.392 -0.1047 -0.1118 -0.1985
 5284TIP3    H137267   1.015   3.759   1.462  1.1095  0.6508 -0.7781
 5284TIP3    H237268   0.958   3.888   1.405  0.7545  0.1246 -1.6294
 5285TIP3   OH237269   3.637   5.860   3.292  0.5949  0.2181  0.2836
 5285TIP3    H137270   3.684   5.782   3.262 -1.1844 -1.1353  0.7823
 5285TIP3    H237271   3.563   5.868   3.231  0.9185  1.7158  0.0657
 5286TIP3   OH237272   1.891   5.932   5.361  0.6132  0.1541 -0.1015
 5286TIP3    H137273   1.937   5.957   5.442  0.8770  1.6251 -0.6837
 5286TIP3    H237274   1.840   6.009   5.337 -1.0569 -0.9482 -0.2830
 5287TIP3   OH237275   0.386   1.228   1.155 -0.1050 -0.2943 -0.2954
 5287TIP3    H137276   0.457   1.166   1.135 -0.9950 -1.7286  0.7720
 5287TIP3    H237277   0.431   1.308   1.183  1.1511 -1.6756  1.9304
 5288TIP3   OH237278   2.571   4.379   3.958 -0.4608  0.1809 -0.2514
 5288TIP3    H137279   2.554   4.418   3.873 -1.0061 -0.7809 -0.5895
 5288TIP3    H237280   2.645   4.320   3.943 -0.8137 -0.2895 -0.1523
 5289TIP3   OH237281   2.324   3.261  16.212 -0.2334  0.3547 -0.0088
 5289TIP3    H137282   2.294   3.323  16.146 -2.1793  1.0976  1.4599
 5289TIP3    H237283   2.309   3.306  16.295  2.5690 -0.3450  0.9846
 5290TIP3   OH237284   1.718   2.071  16.892 -0.5037  0.0539 -0.1156
 5290TIP3    H137285   1.813   2.064  16.882 -0.5642 -0.4197 -0.3304
 5290TIP3    H237286   1.705   2.157  16.934  0.0083  0.1735 -0.1978
 5291TIP3   OH237287   6.143   2.810   1.117  0.5095  0.5131  0.1404
 5291TIP3    H137288   6.212   2.809   1.183  1.3048 -1.1631 -0.6627
 5291TIP3    H237289   6.090   2.733   1.136 -1.6667  2.1516  1.1933
 5292TIP3   OH237290   5.194   6.635   5.005  0.0603  0.0742  0.5040
 5292TIP3    H137291   5.101   6.656   5.013 -0.1205 -0.1107 -0.8752
 5292TIP3    H237292   5.239   6.718   5.023 -0.2405 -0.2766  3.1768
 5293TIP3   OH237293   5.914   2.635  12.737 -0.4631  0.0402 -0.5382
 5293TIP3    H137294   5.876   2.719  12.711  0.0375  0.0603 -1.2220
 5293TIP3    H237295   5.855   2.569  12.700 -1.9165  0.0519  1.5545
 5294TIP3   OH237296   2.527   2.291   5.134  0.4782  0.1271 -0.2552
 5294TIP3    H137297   2.527   2.267   5.227  1.9432 -2.7876 -0.8802
 5294TIP3    H237298   2.451   2.247   5.097  0.9541 -0.3013 -0.7491
 5295TIP3   OH237299   3.394   1.913  13.539  0.4775  0.1759  0.1945
 5295TIP3    H137300   3.482   1.951  13.545  0.6691 -0.2663  0.1752
 5295TIP3    H237301   3.335   1.989  13.545  0.8314  0.3979  1.0635
 5296TIP3   OH237302   4.029   0.693  15.287  0.3220 -0.5767  0.0844
 5296TIP3    H137303   4.013   0.743  15.367  0.9728 -0.0168 -0.1321
 5296TIP3    H237304   4.077   0.753  15.230  0.7275 -1.3029 -0.3516
 5297TIP3   OH237305   1.261   3.698   1.401  0.7179  0.1551 -0.7107
 5297TIP3    H137306   1.208   3.691   1.480 -2.8494 -0.8299 -2.9635
 5297TIP3    H237307   1.290   3.608   1.384  0.3362  0.1154 -1.1854
 5298TIP3   OH237308   1.213   6.545   1.973 -0.1139 -0.3581  0.4298
 5298TIP3    H137309   1.264   6.564   2.052 -0.1134 -0.2933  0.4137
 5298TIP3    H237310   1.248   6.462   1.942  0.0400 -0.2707  0.3696
 5299TIP3   OH237311   3.448   3.474   1.692 -0.4668  0.6597  0.2361
 5299TIP3    H137312   3.422   3.424   1.770 -2.8737  2.2996  0.5918
 5299TIP3    H237313   3.504   3.414   1.643  0.4893 -0.7309  2.8016
 5300TIP3   OH237314   4.381   0.183  11.957 -0.2347 -0.8438  0.1298
 5300TIP3    H137315   4.424   0.100  11.977 -0.0073 -0.6352  0.5065
 5300TIP3    H237316   4.435   0.250  11.999 -1.6018 -0.6614  1.7211
 5301TIP3   OH237317   1.190   0.614  11.159 -0.0782 -0.1180  0.4793
 5301TIP3    H137318   1.238   0.622  11.242  0.6221  0.8502  0.0085
 5301TIP3    H237319   1.100   0.594  11.185  0.0504  0.5325  1.4882
 5302TIP3   OH237320   4.297   1.016  13.986  0.0837  0.1429 -0.1038
 5302TIP3    H137321   4.269   0.953  14.052 -3.2458  2.4665  1.0078
 5302TIP3    H237322   4.325   0.962  13.912  2.1541 -2.5565  2.4180
 5303TIP3   OH237323   2.661   6.247  12.233 -0.6240 -0.1816  0.0662
 5303TIP3    H137324   2.670   6.152  12.242  0.2564 -0.1327 -0.2210
 5303TIP3    H237325   2.715   6.283  12.303 -1.9810  0.1144  0.9972
 5304TIP3   OH237326   1.826   4.402  11.684 -0.7532  0.0656 -0.3109
 5304TIP3    H137327   1.800   4.489  11.714  0.7587  0.5565 -0.3303
 5304TIP3    H237328   1.787   4.395  11.597 -1.7367  0.3047  0.1034
 5305TIP3   OH237329   1.303   1.661  14.782 -0.6236  0.4052  0.5292
 5305TIP3    H137330   1.209   1.638  14.783 -0.5265 -0.1072  2.5576
 5305TIP3    H237331   1.343   1.593  14.728 -1.3291  0.1719  0.2865
 5306TIP3   OH237332   5.800   3.797  12.602  0.4808  0.1099  0.1996
 5306TIP3    H137333   5.846   3.858  12.544 -0.7239  0.0584 -0.8296
 5306TIP3    H237334   5.720   3.844  12.628  0.4288 -0.3379  0.8823
 5307TIP3   OH237335   3.438   0.032  14.817 -0.2194 -0.1571 -0.8084
 5307TIP3    H137336   3.354  -0.015  14.813  0.1605 -1.1494  1.4707
 5307TIP3    H237337   3.415   0.121  14.844 -0.4206 -1.2980  3.3491
 5308TIP3   OH237338   3.716   3.850   2.033  0.6093 -0.2783  0.0608
 5308TIP3    H137339   3.803   3.890   2.041  0.4337 -0.1650  1.9167
 5308TIP3    H237340   3.731   3.767   1.988  1.1341  1.2733 -2.9010
 5309TIP3   OH237341   6.078   5.720   4.388 -0.4211  0.2583 -0.0659
 5309TIP3    H137342   6.008   5.658   4.408 -1.8597  0.9278 -2.5528
 5309TIP3    H237343   6.038   5.806   4.402  0.4915  0.6630  0.1536
 5310TIP3   OH237344   5.860   3.626   4.651  0.5431 -0.6203 -0.3358
 5310TIP3    H137345   5.809   3.580   4.718  1.2590  1.1516  1.5091
 5310TIP3    H237346   5.796   3.683   4.607  0.6960  1.0741  1.5014
 5311TIP3   OH237347   5.869   6.044  14.277  0.2913 -0.6754 -0.0970
 5311TIP3    H137348   5.928   6.001  14.339 -0.4192 -0.0011  1.0889
 5311TIP3    H237349   5.902   6.134  14.271 -1.0623 -0.0499  1.2341
 5312TIP3   OH237350   2.413   3.728   5.552 -0.0452 -0.0883 -0.4029
 5312TIP3    H137351   2.332   3.745   5.600  0.1102 -0.7554  0.1115
 5312TIP3    H237352   2.385   3.712   5.462 -0.2283  2.5701 -0.9009
 5313TIP3   OH237353   4.300   1.217   4.725 -0.2128  0.2264  0.4935
 5313TIP3    H137354   4.311   1.309   4.750 -0.8462  0.6255 -0.6379
 5313TIP3    H237355   4.387   1.190   4.694  0.3056  0.0411  1.9897
 5314TIP3   OH237356   2.284   4.463   4.077  0.5405 -0.3961  0.6085
 5314TIP3    H137357   2.220   4.533   4.090  2.3181  1.2749  0.8228
 5314TIP3    H237358   2.294   4.424   4.164  0.1918 -0.3244  0.6827
 5315TIP3   OH237359   0.005   0.584  15.557 -0.1225  0.0277 -0.2959
 5315TIP3    H137360   0.015   0.661  15.501  0.3955  0.8362  0.8566
 5315TIP3    H237361   0.094   0.553  15.570 -0.1797  0.1680  0.4854
 5316TIP3   OH237362   2.641   3.068   0.245 -0.1237  0.0660 -0.7863
 5316TIP3    H137363   2.666   3.059   0.153 -2.0177  0.0342 -1.3597
 5316TIP3    H237364   2.627   3.162   0.256 -0.3620  0.0201 -0.6866
 5317TIP3   OH237365   6.173   3.692   3.488 -0.1520  0.1902 -0.0528
 5317TIP3    H137366   6.227   3.641   3.427  0.7801  2.6053 -1.3849
 5317TIP3    H237367   6.095   3.714   3.437 -1.2690 -1.1039  1.0207
 5318TIP3   OH237368   3.893   1.660   2.096 -0.3292 -0.1816  0.4899
 5318TIP3    H137369   3.858   1.583   2.052  1.3353 -1.9057  2.0185
 5318TIP3    H237370   3.958   1.626   2.158  1.2933  2.5133  0.4722
 5319TIP3   OH237371   4.707   3.771   5.889  0.4615  0.3270  0.2951
 5319TIP3    H137372   4.654   3.762   5.968 -0.3551 -0.5403 -0.3245
 5319TIP3    H237373   4.758   3.690   5.885  0.2966  0.2455 -0.2059
 5320TIP3   OH237374   5.082   1.423  16.585 -0.4555 -0.9152 -0.0928
 5320TIP3    H137375   5.012   1.415  16.649 -0.3151  0.5565  0.2801
 5320TIP3    H237376   5.038   1.423  16.500 -1.1728  1.9378  0.1885
 5321TIP3   OH237377   1.211   4.186  12.304  0.2036 -0.0365 -0.2414
 5321TIP3    H137378   1.270   4.136  12.247  0.5404 -0.6089  0.5901
 5321TIP3    H237379   1.269   4.242  12.355 -0.0207 -0.1261  0.1143
 5322TIP3   OH237380   2.101   0.139   1.614  0.1686 -0.4024  0.2720
 5322TIP3    H137381   2.108   0.211   1.676 -0.9007 -1.2674  1.4518
 5322TIP3    H237382   2.178   0.085   1.631  1.3148  0.7385 -1.0513
 5323TIP3   OH237383   3.652   2.240  13.736  0.1917  0.0042 -0.0985
 5323TIP3    H137384   3.742   2.213  13.756  0.2080  0.1669  0.0473
 5323TIP3    H237385   3.650   2.246  13.640  0.2268 -0.3763 -0.1239
 5324TIP3   OH237386   3.645   2.371  12.463  0.2869 -0.1909  0.0530
 5324TIP3    H137387   3.636   2.281  12.431  0.6570  0.4230 -1.8888
 5324TIP3    H237388   3.690   2.417  12.392  0.7189  1.3823  1.2942
 5325TIP3   OH237389   2.726   4.119  12.767  0.3423 -0.0073  0.6495
 5325TIP3    H137390   2.673   4.051  12.808  0.0179 -0.1719 -0.0219
 5325TIP3    H237391   2.727   4.191  12.830 -0.3286 -0.1683  0.8489
 5326TIP3   OH237392   6.609   3.822  10.878 -0.1633 -0.3355  0.1186
 5326TIP3    H137393   6.653   3.741  10.852  2.3788  0.5075  1.4664
 5326TIP3    H237394   6.655   3.891  10.830 -0.3180  0.5383  1.1772
 5327TIP3   OH237395   0.351   5.923   3.509 -0.3009  0.2382 -0.3333
 5327TIP3    H137396   0.288   5.955   3.574 -0.1072 -1.5880  0.8053
 5327TIP3    H237397   0.298   5.906   3.431 -1.0500 -0.3240  0.2821
 5328TIP3   OH237398   4.292   0.559  14.994  0.1983 -0.1569 -0.3609
 5328TIP3    H137399   4.302   0.641  15.042  0.4472 -0.4275  0.0545
 5328TIP3    H237400   4.201   0.560  14.964  0.0256 -0.0042  0.1535
 5329TIP3   OH237401   4.994   2.215  14.326  1.0148  0.1950  0.1895
 5329TIP3    H137402   4.960   2.164  14.252  1.7696  0.1336 -0.1289
 5329TIP3    H237403   4.921   2.218  14.388  1.0220 -1.5016  0.3426
 5330TIP3   OH237404   1.481   4.563   3.979  0.4031 -0.2499 -0.1389
 5330TIP3    H137405   1.424   4.620   3.927 -1.3812 -0.7648  1.1644
 5330TIP3    H237406   1.434   4.480   3.985  0.9445 -0.4820  1.5354
 5331TIP3   OH237407   6.098   2.827   1.418 -0.0245  0.0711  0.1951
 5331TIP3    H137408   6.010   2.861   1.402  0.2216  0.4671 -0.3379
 5331TIP3    H237409   6.157   2.895   1.385  0.5258  0.8521  2.5635
 5332TIP3   OH237410   3.903   5.845   2.181  0.3036 -0.1477 -0.4282
 5332TIP3    H137411   3.904   5.785   2.107 -1.2127  0.3854 -0.9218
 5332TIP3    H237412   3.991   5.840   2.218  0.4150 -2.1340 -0.8721
 5333TIP3   OH237413   4.207   1.075  16.943 -0.0541  0.0213 -0.1450
 5333TIP3    H137414   4.282   1.036  16.987 -0.1884  0.9423  0.9311
 5333TIP3    H237415   4.193   1.019  16.866  1.2601 -0.5888  0.0323
 5334TIP3   OH237416   4.115   4.032  13.215  0.3348 -0.6476  0.3928
 5334TIP3    H137417   4.081   3.943  13.224  1.6390 -1.2973 -0.6302
 5334TIP3    H237418   4.174   4.043  13.290 -0.8919 -0.0950  1.3048
 5335TIP3   OH237419   3.814   1.587   0.299 -0.1491 -0.4672  0.7135
 5335TIP3    H137420   3.796   1.525   0.369 -3.7048 -0.2194  0.2226
 5335TIP3    H237421   3.761   1.555   0.225  2.4618 -0.0205 -1.5320
 5336TIP3   OH237422   3.790   0.307  13.056 -0.3397  0.0469  0.0902
 5336TIP3    H137423   3.741   0.314  12.974 -0.1959 -2.1406 -0.2533
 5336TIP3    H237424   3.774   0.390  13.101 -1.3947  0.8236 -1.6101
 5337TIP3   OH237425   6.665   1.300  11.379  0.1280 -0.6210 -0.0129
 5337TIP3    H137426   6.635   1.294  11.288 -0.1370  3.1185 -0.3219
 5337TIP3    H237427   6.584   1.306  11.430  0.2183  1.1947 -0.0094
 5338TIP3   OH237428   4.605   3.964  12.183 -0.5115  0.0333 -0.5110
 5338TIP3    H137429   4.620   3.881  12.228 -0.9112  0.9337  1.3775
 5338TIP3    H237430   4.666   3.963  12.109  3.1236  0.0991  2.2043
 5339TIP3   OH237431   4.603   2.681   1.032  0.4283 -0.3822 -0.1263
 5339TIP3    H137432   4.651   2.598   1.043 -0.6738 -1.3757 -2.2334
 5339TIP3    H237433   4.511   2.654   1.023 -0.4741  1.3816  2.5709
 5340TIP3   OH237434   3.246   5.696   0.924 -0.2831  0.0337 -0.1911
 5340TIP3    H137435   3.282   5.646   0.998  1.2029  0.0053 -0.8832
 5340TIP3    H237436   3.163   5.731   0.956  0.2061 -0.1821  1.4060
 5341TIP3   OH237437   1.416   0.896  15.364 -0.1606  0.2062  0.4096
 5341TIP3    H137438   1.430   0.870  15.273  0.6875 -1.7853  1.0578
 5341TIP3    H237439   1.394   0.989  15.359  0.2454  0.2381 -1.7841
 5342TIP3   OH237440   0.298   2.042  16.512  0.1175 -0.6478  0.7079
 5342TIP3    H137441   0.261   1.956  16.532 -0.4593 -1.0566 -1.7707
 5342TIP3    H237442   0.224   2.103  16.519  0.0781 -0.6763  0.5473
 5343TIP3   OH237443   0.440   6.708  14.297  0.1949 -0.3813  0.0221
 5343TIP3    H137444   0.370   6.705  14.363  0.0824  1.4872  0.0506
 5343TIP3    H237445   0.514   6.748  14.343  0.1290  0.9180 -0.9414
 5344TIP3   OH237446   2.379   6.393  12.240  0.3843 -0.0174  0.0566
 5344TIP3    H137447   2.472   6.374  12.245  0.4616  0.6644  2.3558
 5344TIP3    H237448   2.373   6.488  12.253 -0.6673 -0.1806  0.9014
 5345TIP3   OH237449   6.224   0.850   6.037 -0.1856  0.2332 -0.4979
 5345TIP3    H137450   6.232   0.937   6.077  1.9966  0.4602 -1.3134
 5345TIP3    H237451   6.240   0.789   6.109  0.7466  0.5835 -0.3885
 5346TIP3   OH237452   0.161   5.047  15.586 -0.0251  0.1993 -0.4146
 5346TIP3    H137453   0.080   4.996  15.584 -0.2495  0.5817 -1.9395
 5346TIP3    H237454   0.186   5.048  15.679 -2.7155  1.5430  0.4262
 5347TIP3   OH237455   3.937   1.684   0.573  0.0118 -0.2043 -0.1122
 5347TIP3    H137456   3.997   1.717   0.505  2.7722 -0.8874  1.8029
 5347TIP3    H237457   3.908   1.763   0.619  0.3827  0.0754 -0.3510
 5348TIP3   OH237458   4.095   1.555   1.730  0.1231 -0.0297 -0.1044
 5348TIP3    H137459   4.095   1.492   1.802  2.1413 -0.0547 -0.0621
 5348TIP3    H237460   4.126   1.636   1.768  1.9129 -0.2282 -1.0375
 5349TIP3   OH237461   2.229   3.160  12.848 -0.0400  0.1522  0.0597
 5349TIP3    H137462   2.204   3.069  12.861  1.5637 -0.3697 -0.2240
 5349TIP3    H237463   2.156   3.199  12.801 -1.0228 -0.8154  0.7417
 5350TIP3   OH237464   0.830   6.476   1.312  0.1137  0.4261  0.4418
 5350TIP3    H137465   0.902   6.536   1.296  1.8969 -1.7725 -0.3412
 5350TIP3    H237466   0.851   6.399   1.259 -2.6291 -0.4745  0.5021
 5351TIP3   OH237467   6.356   2.807   5.023  0.1933 -0.2725 -0.4457
 5351TIP3    H137468   6.266   2.808   5.056  0.3762 -1.9926  0.2224
 5351TIP3    H237469   6.410   2.794   5.101  0.7706 -2.4579 -1.1353
 5352TIP3   OH237470   2.646   1.904   4.512  0.4046 -0.0793 -0.0820
 5352TIP3    H137471   2.650   1.936   4.422 -1.2132  0.8648  0.1445
 5352TIP3    H237472   2.705   1.961   4.561  1.9870 -1.1615 -0.6689
 5353TIP3   OH237473   6.793   1.249   5.482 -0.3889  0.2224  0.0682
 5353TIP3    H137474   6.802   1.162   5.520  2.6693  0.0696 -0.7496
 5353TIP3    H237475   6.831   1.308   5.548  1.7710  0.3292 -1.1482
 5354TIP3   OH237476   4.274   1.819  11.713 -0.1298 -0.2689  0.5324
 5354TIP3    H137477   4.189   1.840  11.751 -1.1909  0.0528 -1.8101
 5354TIP3    H237478   4.314   1.756  11.773 -2.3597 -1.0164  1.2997
 5355TIP3   OH237479   1.981   5.820  14.846  0.4061  0.4627  0.3105
 5355TIP3    H137480   1.912   5.760  14.876 -0.2957  0.6900 -0.8103
 5355TIP3    H237481   2.051   5.762  14.816 -0.6332  0.1260 -1.6423
 5356TIP3   OH237482   3.574   0.318   0.856 -0.9304  0.1722  0.4532
 5356TIP3    H137483   3.520   0.315   0.777 -2.9006  0.2886  1.7313
 5356TIP3    H237484   3.512   0.337   0.927  0.7360 -0.1536  2.0696
 5357TIP3   OH237485   5.137   1.069  13.485 -0.0701  0.3322  0.3342
 5357TIP3    H137486   5.207   1.004  13.493 -0.2708  0.0266 -0.3259
 5357TIP3    H237487   5.168   1.145  13.535  0.8257  0.2773 -0.1293
 5358TIP3   OH237488   2.290   2.691   1.225  0.0598 -0.0456  0.2582
 5358TIP3    H137489   2.300   2.596   1.234 -0.9057 -0.2124 -0.2944
 5358TIP3    H237490   2.370   2.727   1.264  0.6608 -1.0948  0.0458
 5359TIP3   OH237491   3.448   4.533  11.712  0.8526  0.1573  0.5045
 5359TIP3    H137492   3.472   4.581  11.632 -1.7950 -0.5825 -0.8616
 5359TIP3    H237493   3.461   4.441  11.689  1.0412 -0.0225  1.3089
 5360TIP3   OH237494   4.349   6.136  14.765 -0.2510 -0.1506 -0.0846
 5360TIP3    H137495   4.425   6.185  14.797 -2.0103  1.3159  2.2058
 5360TIP3    H237496   4.309   6.194  14.701 -0.5943  0.0147  0.2785
 5361TIP3   OH237497   0.137   0.387  15.752 -0.0217  0.1486 -0.2535
 5361TIP3    H137498   0.059   0.367  15.701 -0.3028  0.6957 -0.0402
 5361TIP3    H237499   0.186   0.304  15.754  0.8133  0.4806 -2.7834
 5362TIP3   OH237500   5.915   3.035  13.569  0.6724  0.1760  0.0378
 5362TIP3    H137501   5.878   3.088  13.498  2.2125  1.5737  0.2381
 5362TIP3    H237502   5.906   3.089  13.647  0.6201 -0.6173  0.5906
 5363TIP3   OH237503   1.459   5.988  16.681  0.3639  0.1966  0.5904
 5363TIP3    H137504   1.416   6.053  16.737  0.5282  0.4652  0.4062
 5363TIP3    H237505   1.435   6.013  16.592 -0.2610 -0.4971  0.5589
 5364TIP3   OH237506   1.067   0.629   5.723 -0.3765  0.2331 -0.1071
 5364TIP3    H137507   1.058   0.620   5.818  1.0347 -2.2531 -0.1100
 5364TIP3    H237508   0.993   0.581   5.687  0.0179 -0.2827 -0.2410
 5365TIP3   OH237509   2.489   1.673   2.672  0.2050 -0.5063 -0.4824
 5365TIP3    H137510   2.498   1.592   2.621  3.3957 -0.7036  0.2023
 5365TIP3    H237511   2.551   1.663   2.744  0.9016  2.6522 -0.5253
 5366TIP3   OH237512   3.116   4.449   6.283  0.1978  0.4729 -0.3545
 5366TIP3    H137513   3.051   4.390   6.246 -0.7957  1.1173  0.2838
 5366TIP3    H237514   3.095   4.452   6.376  0.9686  0.9286 -0.1824
 5367TIP3   OH237515   6.447   5.102   3.320  0.5756 -0.2716 -0.1338
 5367TIP3    H137516   6.532   5.113   3.277 -0.3762 -0.9254 -2.2739
 5367TIP3    H237517   6.398   5.180   3.295 -0.1534 -0.8851 -0.6279
 5368TIP3   OH237518   6.614   3.182  12.101  0.5521  0.5431 -0.1482
 5368TIP3    H137519   6.569   3.143  12.026  2.7575 -0.6703 -0.9187
 5368TIP3    H237520   6.612   3.115  12.169 -1.7674  1.7661  1.1576
 5369TIP3   OH237521   6.706   2.286  15.304  0.3781  0.3897  0.4791
 5369TIP3    H137522   6.641   2.292  15.234  1.4008 -1.8891 -0.7553
 5369TIP3    H237523   6.657   2.247  15.377  0.0844 -0.3846 -0.1096
 5370TIP3   OH237524   3.301   0.803   4.061  0.2645 -0.5027  0.2143
 5370TIP3    H137525   3.387   0.790   4.102  0.4487 -1.3435 -0.4036
 5370TIP3    H237526   3.315   0.777   3.970 -0.3908  0.3685 -0.1357
 5371TIP3   OH237527   1.879   5.154  15.281  0.4879  0.0397 -0.3090
 5371TIP3    H137528   1.932   5.157  15.361  0.5518  1.0918 -0.3888
 5371TIP3    H237529   1.921   5.086  15.228  0.8402 -0.2029  0.2615
 5372TIP3   OH237530   3.981   1.152   1.507 -0.0043 -0.1851 -0.2445
 5372TIP3    H137531   4.023   1.154   1.593  0.1973 -1.4457 -0.2983
 5372TIP3    H237532   3.948   1.063   1.497  0.0085 -0.0795 -1.4929
 5373TIP3   OH237533   4.153   6.069  15.651 -0.5157 -0.2466 -0.4573
 5373TIP3    H137534   4.110   6.022  15.722  0.2453  0.5201  0.5456
 5373TIP3    H237535   4.196   6.000  15.600 -1.9820 -0.9052 -0.8406
 5374TIP3   OH237536   6.696   3.165  16.099  0.0302 -0.0275 -0.0425
 5374TIP3    H137537   6.639   3.230  16.140  0.8444  0.3578  0.5174
 5374TIP3    H237538   6.637   3.094  16.074 -0.3164 -1.3270  3.8373
 5375TIP3   OH237539   0.201   3.313  16.779 -0.0800  0.0761  0.1892
 5375TIP3    H137540   0.204   3.247  16.849  0.4114 -0.5524 -0.4195
 5375TIP3    H237541   0.171   3.265  16.702  2.1250  0.0878 -0.7538
 5376TIP3   OH237542   4.524   2.895   2.070  0.6563  0.0912  0.0590
 5376TIP3    H137543   4.543   2.838   2.145 -0.7478  1.1330  1.2526
 5376TIP3    H237544   4.603   2.891   2.016 -0.1716 -5.0057 -1.3105
 5377TIP3   OH237545   3.998   3.963  15.052 -0.2954  0.6607  0.0310
 5377TIP3    H137546   3.953   3.923  15.127  0.0318 -1.3558 -0.7840
 5377TIP3    H237547   3.928   4.006  15.003 -0.9731 -0.3343  0.0831
 5378TIP3   OH237548   6.032   2.194  12.412 -0.3776 -0.5756 -0.2011
 5378TIP3    H137549   5.982   2.272  12.388  1.8048  1.0921  0.3534
 5378TIP3    H237550   6.080   2.171  12.332  0.2536 -0.3251  0.1028
 5379TIP3   OH237551   0.858   4.058   3.963 -0.0090 -0.0892  0.1419
 5379TIP3    H137552   0.816   4.144   3.971 -1.9761 -0.6480 -2.7278
 5379TIP3    H237553   0.897   4.059   3.875 -0.1881 -2.1610  0.0063
 5380TIP3   OH237554   0.453   3.419  16.667 -0.4974  0.0633 -0.2406
 5380TIP3    H137555   0.501   3.365  16.604  0.7876 -1.3288  1.7915
 5380TIP3    H237556   0.366   3.381  16.671 -0.2664 -0.4950 -0.4304
 5381TIP3   OH237557   4.433   1.466   4.843  0.2919  0.3825  0.1811
 5381TIP3    H137558   4.498   1.395   4.846  0.7696  0.7818 -0.3943
 5381TIP3    H237559   4.474   1.533   4.789 -0.5332  0.7222 -0.0385
 5382TIP3   OH237560   1.138   4.662  16.969  0.5008  0.4524 -0.2695
 5382TIP3    H137561   1.100   4.704  17.047  0.7894 -0.6009  0.4637
 5382TIP3    H237562   1.219   4.710  16.954 -0.8722  2.5157 -1.6548
 5383TIP3   OH237563   4.018   2.134   5.454  0.3007  0.1497 -0.3083
 5383TIP3    H137564   4.028   2.227   5.438  0.2612  0.6402  2.1883
 5383TIP3    H237565   4.097   2.108   5.501 -0.5902 -0.5729  0.8771
 5384TIP3   OH237566   0.863   1.539  11.993 -0.3696 -0.0856  0.3071
 5384TIP3    H137567   0.814   1.483  12.053  0.2405 -0.5213  0.4053
 5384TIP3    H237568   0.803   1.552  11.919 -1.3119  0.8370  1.1795
 5385TIP3   OH237569   6.138   2.424  15.068  0.2136  0.3848  0.4741
 5385TIP3    H137570   6.126   2.356  15.134 -0.4076 -0.0115 -0.0424
 5385TIP3    H237571   6.189   2.492  15.113  0.2997 -0.1394  1.1798
 5386TIP3   OH237572   4.297   0.384   4.611  0.4160  0.1562 -0.0815
 5386TIP3    H137573   4.389   0.364   4.624  0.0528 -0.0928  2.4642
 5386TIP3    H237574   4.261   0.304   4.572  0.8211 -0.6996  1.2338
 5387TIP3   OH237575   4.361   3.179   4.913 -0.5962  0.2712 -0.2078
 5387TIP3    H137576   4.300   3.125   4.964  1.2118  0.0446  1.8626
 5387TIP3    H237577   4.351   3.148   4.823 -0.0656 -3.2026  0.7874
 5388TIP3   OH237578   2.367   1.933  11.461  0.4130  0.1695 -0.0130
 5388TIP3    H137579   2.379   1.983  11.381 -0.2258 -0.2291 -0.3640
 5388TIP3    H237580   2.391   1.844  11.438  0.8444  0.1685  0.4151
 5389TIP3   OH237581   5.281   0.543  16.537  0.3114 -0.1244 -0.0748
 5389TIP3    H137582   5.319   0.467  16.493  0.4690 -0.9908  1.4466
 5389TIP3    H237583   5.356   0.595  16.566  0.4020 -1.1959  1.8414
 5390TIP3   OH237584   1.077   2.294   5.025 -0.3284 -0.0205  0.5534
 5390TIP3    H137585   1.016   2.223   5.005  0.8910 -1.1924  0.9095
 5390TIP3    H237586   1.136   2.257   5.090 -0.4616  1.7487  1.7329
 5391TIP3   OH237587   6.661   4.582  12.257  0.0030  0.7953 -0.7709
 5391TIP3    H137588   6.702   4.515  12.312 -2.4996 -0.2122  0.0373
 5391TIP3    H237589   6.731   4.644  12.237  1.6668 -0.3362  1.1935
 5392TIP3   OH237590   3.206   1.717   2.364  0.6104 -0.3537  0.4598
 5392TIP3    H137591   3.201   1.698   2.458 -1.0437 -0.8796  0.2943
 5392TIP3    H237592   3.122   1.756   2.343  0.6334 -1.0119 -0.9605
 5393TIP3   OH237593   1.561   6.389  11.419  0.2205 -0.5245 -0.2360
 5393TIP3    H137594   1.654   6.388  11.443  0.6228 -1.0739 -1.7078
 5393TIP3    H237595   1.555   6.327  11.346 -0.8923  1.1537 -1.6277
 5394TIP3   OH237596   1.070   0.367  13.790  0.3362  0.2212 -0.2570
 5394TIP3    H137597   1.086   0.286  13.839  1.3786 -0.3360 -1.4563
 5394TIP3    H237598   1.104   0.348  13.702  2.4270  2.5875 -0.0741
 5395TIP3   OH237599   6.717   3.132   3.224  0.4654  0.3337  0.4310
 5395TIP3    H137600   6.777   3.066   3.189 -1.0826 -0.3474 -1.0990
 5395TIP3    H237601   6.737   3.212   3.175 -0.3541 -0.0972 -0.6446
 5396TIP3   OH237602   5.067   1.665  11.042  0.3314  0.6171  0.7933
 5396TIP3    H137603   5.006   1.673  10.969 -1.2591  1.6477  2.1707
 5396TIP3    H237604   5.143   1.718  11.016  0.5821 -0.4552 -0.8178
 5397TIP3   OH237605   4.064   5.769   4.524  0.1108 -0.1412 -0.0439
 5397TIP3    H137606   4.001   5.757   4.596 -0.4252  1.5639 -0.2014
 5397TIP3    H237607   4.114   5.846   4.549  0.0031  0.4008 -1.4435
 5398TIP3   OH237608   2.827   5.665  13.671 -0.0136  0.3968 -0.0587
 5398TIP3    H137609   2.836   5.570  13.670  0.5591  0.4477 -0.2364
 5398TIP3    H237610   2.786   5.685  13.755 -1.1659 -0.0925 -0.4924
 5399TIP3   OH237611   2.962   4.104   2.303 -0.3353 -0.7934  0.3842
 5399TIP3    H137612   2.878   4.149   2.313 -0.8649 -1.2557 -1.5035
 5399TIP3    H237613   3.028   4.173   2.309 -0.9752 -0.1358  0.0219
 5400TIP3   OH237614   0.355   4.469   6.422  0.0868 -0.2395  0.3776
 5400TIP3    H137615   0.278   4.504   6.467  0.3503 -2.4059  2.8042
 5400TIP3    H237616   0.426   4.528   6.447 -0.1509 -0.2964  1.2418
 5401TIP3   OH237617   1.084   3.023   1.146 -0.7889  0.2757 -0.2245
 5401TIP3    H137618   1.066   2.931   1.168 -0.6547 -0.0821 -1.5195
 5401TIP3    H237619   0.999   3.058   1.119 -0.7591  0.4240 -0.1284
 5402TIP3   OH237620   1.778   4.569  17.197 -0.2978 -0.3995 -0.0873
 5402TIP3    H137621   1.764   4.542  17.107 -0.8538  1.9760 -0.7763
 5402TIP3    H237622   1.873   4.579  17.205 -0.3901  2.1238 -1.3409
 5403TIP3   OH237623   2.913   2.440  11.882 -0.0371  0.0082 -0.3481
 5403TIP3    H137624   2.818   2.434  11.886 -0.1917  1.4864 -1.0580
 5403TIP3    H237625   2.930   2.500  11.809  1.3629  1.3701  1.0237
 5404TIP3   OH237626   5.792   1.063   0.367 -0.0013 -0.0580  0.0985
 5404TIP3    H137627   5.708   1.067   0.413 -0.7391  0.9374 -1.2642
 5404TIP3    H237628   5.847   1.008   0.423 -1.2398  0.0722  1.5130
 5405TIP3   OH237629   3.838   0.419  16.775 -0.0209  0.4340 -0.2272
 5405TIP3    H137630   3.841   0.396  16.682  0.7517  0.9624 -0.3351
 5405TIP3    H237631   3.921   0.464  16.791  0.8832 -1.5846  1.2268
 5406TIP3   OH237632   1.090   2.656  13.561 -0.5227 -0.1354  0.1984
 5406TIP3    H137633   1.090   2.678  13.654 -2.4808 -3.4286  1.1316
 5406TIP3    H237634   1.002   2.675  13.531 -0.3050 -0.3983 -0.6385
 5407TIP3   OH237635   1.266   2.549   0.252 -0.6919  0.4412 -0.4098
 5407TIP3    H137636   1.357   2.530   0.232 -0.6907  1.2395 -1.2669
 5407TIP3    H237637   1.252   2.637   0.216 -1.9036  0.1678 -0.6402
 5408TIP3   OH237638   4.814   3.462  16.388  0.1317  0.2604  0.0317
 5408TIP3    H137639   4.740   3.500  16.435  0.2458 -0.3560  0.7272
 5408TIP3    H237640   4.779   3.441  16.301 -0.5323 -0.0930  0.3741
 5409TIP3   OH237641   0.854   0.325   6.390 -0.2521  0.2530  0.5443
 5409TIP3    H137642   0.940   0.284   6.397 -0.1874 -0.2793 -2.3005
 5409TIP3    H237643   0.862   0.406   6.441  2.1479  0.5350 -0.1621
 5410TIP3   OH237644   5.525   5.749   0.484  0.0208 -0.4778  0.0041
 5410TIP3    H137645   5.605   5.711   0.448  1.1130  1.2294  0.5130
 5410TIP3    H237646   5.474   5.774   0.408  2.1763  2.8324 -0.5716
 5411TIP3   OH237647   3.058   4.237  17.101 -0.2011  0.6453 -0.0052
 5411TIP3    H137648   2.971   4.218  17.136  0.5205  0.4452  1.7782
 5411TIP3    H237649   3.061   4.189  17.018 -1.8922  0.9092 -0.2476
 5412TIP3   OH237650   3.818   6.453  14.464  0.3677  0.1039  0.7266
 5412TIP3    H137651   3.826   6.384  14.530  1.4536 -0.5254 -0.0281
 5412TIP3    H237652   3.874   6.524  14.497  2.7385 -1.0617 -0.5041
 5413TIP3   OH237653   3.116   2.675   2.039  0.3210  0.3416 -0.4611
 5413TIP3    H137654   3.067   2.728   1.976  0.5717 -0.6638 -1.5478
 5413TIP3    H237655   3.208   2.685   2.013  0.4639  0.1949 -0.0259
 5414TIP3   OH237656   6.060   6.207   4.550  0.3489  0.1938 -0.5901
 5414TIP3    H137657   6.127   6.273   4.531  0.3390  0.7089  1.0461
 5414TIP3    H237658   5.977   6.250   4.529  0.1733  1.5449  2.3810
 5415TIP3   OH237659   2.352   2.290  16.691 -0.8758  0.0744  0.1391
 5415TIP3    H137660   2.274   2.343  16.676 -2.0523 -1.6953 -0.3365
 5415TIP3    H237661   2.389   2.324  16.773 -1.5803  1.5898 -0.1461
 5416TIP3   OH237662   2.946   2.417   5.708 -0.0354  0.4591 -0.4541
 5416TIP3    H137663   2.961   2.327   5.679 -0.8608  0.4030 -0.7384
 5416TIP3    H237664   2.950   2.469   5.628 -1.8442  0.3648 -0.6601
 5417TIP3   OH237665   4.580   0.611  16.761 -0.0854 -0.2062 -0.1850
 5417TIP3    H137666   4.504   0.587  16.815  0.6603 -1.6405  0.2827
 5417TIP3    H237667   4.550   0.598  16.671 -0.3335 -0.9939  0.0019
 5418TIP3   OH237668   1.254   1.604  13.316 -0.1855  0.4428 -0.7267
 5418TIP3    H137669   1.321   1.545  13.280 -0.4761  0.4158 -1.2332
 5418TIP3    H237670   1.237   1.571  13.404  2.3093  1.9370  0.4236
 5419TIP3   OH237671   4.312   6.102  15.296  0.2327  0.2316 -0.1298
 5419TIP3    H137672   4.278   6.191  15.288 -0.4833  0.1832  1.8948
 5419TIP3    H237673   4.360   6.103  15.379 -1.6509 -1.8204  1.0701
 5420TIP3   OH237674   3.111   3.851   0.275 -0.4671  0.5336  0.7031
 5420TIP3    H137675   3.022   3.867   0.243 -0.3968 -0.6614 -0.1436
 5420TIP3    H237676   3.113   3.757   0.294 -0.0460  0.9135  2.8788
 5421TIP3   OH237677   4.314   0.119  16.104  0.1367 -0.1032  0.1056
 5421TIP3    H137678   4.333   0.058  16.174  2.5388  0.2075 -0.1755
 5421TIP3    H237679   4.269   0.067  16.037 -0.2217 -0.8965  0.9481
 5422TIP3   OH237680   0.673   1.811   5.033  0.3949 -0.3233  0.3289
 5422TIP3    H137681   0.630   1.803   4.948  1.1607 -0.5989 -0.0402
 5422TIP3    H237682   0.625   1.750   5.089  0.0713 -0.3564  0.0217
 5423TIP3   OH237683   4.371   1.696   0.005  0.4645  0.0552  0.2687
 5423TIP3    H137684   4.403   1.763  -0.055  0.7326  1.5148  1.9407
 5423TIP3    H237685   4.426   1.705   0.083  0.0353 -1.6583  0.8235
 5424TIP3   OH237686   6.278   5.986  12.333  0.0230 -0.2079 -0.3980
 5424TIP3    H137687   6.325   5.957  12.411  0.2389  0.8798 -0.1056
 5424TIP3    H237688   6.299   5.920  12.267  2.4453  0.5033 -0.4399
 5425TIP3   OH237689   3.511   4.344   2.532  0.6392  0.0029 -0.0963
 5425TIP3    H137690   3.571   4.348   2.607  0.1041 -2.1768  0.5281
 5425TIP3    H237691   3.553   4.283   2.471 -0.5104 -0.9073 -0.0135
 5426TIP3   OH237692   5.696   3.756  16.831 -0.0419 -0.3851 -0.0920
 5426TIP3    H137693   5.616   3.803  16.806  0.4052 -0.7094 -2.2728
 5426TIP3    H237694   5.668   3.695  16.899 -1.2472  0.8252  0.5448
 5427TIP3   OH237695   4.802   5.787  15.505  0.9940 -0.2880  0.1142
 5427TIP3    H137696   4.896   5.776  15.490  0.9732  0.8482 -1.0097
 5427TIP3    H237697   4.796   5.811  15.598  1.7180 -1.1978  0.4164
 5428TIP3   OH237698   1.378   4.168  13.547 -0.5619  0.0767 -0.1246
 5428TIP3    H137699   1.338   4.141  13.464  0.4617 -0.7345 -0.3814
 5428TIP3    H237700   1.358   4.261  13.555  0.8733  0.6301 -2.2257
 5429TIP3   OH237701   3.946   4.748  13.953 -0.5869 -0.1442  0.5183
 5429TIP3    H137702   3.880   4.811  13.926  0.0207  0.0669 -0.5709
 5429TIP3    H237703   3.964   4.696  13.874  1.5183  0.7136  0.3562
 5430TIP3   OH237704   3.009   1.327   2.210  0.4112 -0.1546  0.4898
 5430TIP3    H137705   2.987   1.292   2.124  1.2029 -1.2136  0.6884
 5430TIP3    H237706   2.972   1.264   2.272  0.9605 -0.1081  0.8778
 5431TIP3   OH237707   3.842   2.346  15.209  0.3508  0.3611  0.4761
 5431TIP3    H137708   3.938   2.352  15.204  0.3652 -0.4562 -1.0995
 5431TIP3    H237709   3.812   2.436  15.210  1.1517  0.6409  2.1197
 5432TIP3   OH237710   3.604   0.337  17.014  0.9741  0.3785 -0.1086
 5432TIP3    H137711   3.617   0.343  17.108  1.0028 -0.6804 -0.0375
 5432TIP3    H237712   3.578   0.426  16.988 -2.3390  0.0096  1.3864
 5433TIP3   OH237713   4.690   4.917   3.673 -0.1946  0.0931  0.4482
 5433TIP3    H137714   4.691   4.959   3.587 -1.1151  1.3738  1.0412
 5433TIP3    H237715   4.681   4.824   3.653 -2.7520  0.5088 -0.8618
 5434TIP3   OH237716   5.426   1.129  14.926 -0.1299  0.2515  0.1480
 5434TIP3    H137717   5.352   1.086  14.883 -0.1566  2.2725 -2.0171
 5434TIP3    H237718   5.495   1.062  14.928 -0.3095 -0.1357 -2.6693
 5435TIP3   OH237719   0.577   2.240   1.128 -0.1724  0.7760  0.0368
 5435TIP3    H137720   0.517   2.313   1.142 -0.6308  0.0500  2.2196
 5435TIP3    H237721   0.661   2.281   1.106 -0.5768  1.9272  0.5911
 5436TIP3   OH237722   2.630   0.640   3.281 -0.0273  0.4074  0.2653
 5436TIP3    H137723   2.682   0.559   3.287 -0.8721 -0.4014 -2.1369
 5436TIP3    H237724   2.545   0.611   3.247 -0.3701  2.3049 -0.5802
 5437TIP3   OH237725   1.838   3.503  12.157 -0.4837  0.2310 -0.3766
 5437TIP3    H137726   1.930   3.513  12.132  0.0365 -2.6236  0.1307
 5437TIP3    H237727   1.837   3.518  12.252 -0.1225 -1.6584 -0.0313
 5438TIP3   OH237728   5.508   3.249  16.704 -0.4003  0.2885  0.1341
 5438TIP3    H137729   5.498   3.334  16.661  0.9480  0.2572 -0.2754
 5438TIP3    H237730   5.472   3.187  16.640  0.3941  0.3732 -0.4103
 5439TIP3   OH237731   1.509   6.533  16.025  0.0017 -0.0589  0.0122
 5439TIP3    H137732   1.594   6.493  16.010 -0.6179 -0.9236 -1.5154
 5439TIP3    H237733   1.492   6.583  15.945 -0.5717  0.7698  0.6425
 5440TIP3   OH237734   3.967   3.179  15.823 -0.0402 -0.3079  0.0227
 5440TIP3    H137735   3.925   3.263  15.845 -0.1981 -0.5614  0.7206
 5440TIP3    H237736   3.949   3.167  15.730 -0.1314  0.3690 -0.0564
 5441TIP3   OH237737   5.683   2.468   5.287  0.2986  0.1446 -0.1476
 5441TIP3    H137738   5.762   2.426   5.251  0.5141  0.1796  0.2790
 5441TIP3    H237739   5.682   2.442   5.379 -0.5444 -0.3781 -0.2979
 5442TIP3   OH237740   0.701   3.650   6.364 -0.5824 -0.1559  0.0570
 5442TIP3    H137741   0.686   3.605   6.281 -0.7311 -1.0420  0.5456
 5442TIP3    H237742   0.626   3.708   6.374 -1.1509 -0.8749  0.0914
 5443TIP3   OH237743   2.117   1.620   3.486 -0.5880  0.3144  0.6443
 5443TIP3    H137744   2.119   1.711   3.458  0.6236  0.0223 -0.3030
 5443TIP3    H237745   2.069   1.621   3.569 -1.9373  1.5833 -0.1191
 5444TIP3   OH237746   2.356   4.084  15.089 -0.6472  0.3383  0.2774
 5444TIP3    H137747   2.265   4.059  15.074 -0.9854  2.1868 -1.1986
 5444TIP3    H237748   2.401   4.001  15.105 -2.6004 -0.6101  1.3577
 5445TIP3   OH237749   2.422   3.978   5.865  0.0603 -0.2601 -0.0837
 5445TIP3    H137750   2.483   4.035   5.818  1.0614 -1.1234  0.1231
 5445TIP3    H237751   2.389   4.032   5.937  2.2080 -0.3912  1.0637
 5446TIP3   OH237752   2.808   1.296  15.618 -0.0131 -0.3686 -0.0138
 5446TIP3    H137753   2.799   1.201  15.618  2.3432 -0.6753 -1.3282
 5446TIP3    H237754   2.867   1.314  15.692  0.5840 -0.1086 -0.5362
 5447TIP3   OH237755   4.293   2.397  16.905 -0.2391 -0.1151  0.6796
 5447TIP3    H137756   4.380   2.369  16.876 -0.7851 -1.1486 -0.0310
 5447TIP3    H237757   4.232   2.345  16.851 -1.3023  1.4964  0.2682
 5448TIP3   OH237758   0.168   3.064   0.063 -0.4396  0.6289  0.6123
 5448TIP3    H137759   0.254   3.038   0.098 -1.6061 -0.6225  2.7535
 5448TIP3    H237760   0.155   3.153   0.096  1.2111  2.0982 -2.2263
 5449TIP3   OH237761   6.267   6.033  15.848  0.3440 -0.0279  0.2384
 5449TIP3    H137762   6.256   6.128  15.851 -0.1218 -0.0535 -0.3968
 5449TIP3    H237763   6.226   6.001  15.928  0.3633  0.2913  0.3764
 5450TIP3   OH237764   5.604   6.715   0.765 -0.2879 -0.5517 -0.3000
 5450TIP3    H137765   5.671   6.767   0.721 -1.0973 -0.6208 -1.6682
 5450TIP3    H237766   5.597   6.755   0.852  0.8702  0.0310 -0.4468
 5451TIP3   OH237767   1.691   1.321   6.003 -0.1187  0.1738 -0.1357
 5451TIP3    H137768   1.774   1.275   6.013 -0.9605 -1.7655 -1.4400
 5451TIP3    H237769   1.686   1.341   5.910 -1.6900 -0.9874 -0.3412
 5452TIP3   OH237770   1.181   3.761   1.121 -0.5169  0.3705 -0.1935
 5452TIP3    H137771   1.173   3.733   1.213 -1.0630 -0.5787 -0.5125
 5452TIP3    H237772   1.091   3.762   1.089 -0.4481  1.8707 -0.4050
 5453TIP3   OH237773   4.427   2.486   4.589  0.1365 -0.3359  0.1391
 5453TIP3    H137774   4.455   2.407   4.634  3.4280  0.9670  0.6464
 5453TIP3    H237775   4.387   2.540   4.658  1.5951  0.0384  0.7393
 5454TIP3   OH237776   2.240   0.728  14.445  0.1964  0.2612 -0.5530
 5454TIP3    H137777   2.234   0.823  14.434  0.5109  0.2836 -0.5376
 5454TIP3    H237778   2.219   0.693  14.359 -1.7532  0.2745 -0.1131
 5455TIP3   OH237779   1.154   4.571  16.163 -0.5242  0.2517  0.7887
 5455TIP3    H137780   1.230   4.516  16.148 -1.0403 -0.8330  1.9440
 5455TIP3    H237781   1.096   4.553  16.089 -0.0027  0.4748  0.3224
 5456TIP3   OH237782   6.300   3.584  11.901 -0.6622  0.2951  0.1899
 5456TIP3    H137783   6.312   3.600  11.995  2.9689  0.4261 -0.1434
 5456TIP3    H237784   6.279   3.670  11.865  0.0608  0.6935  0.6744
 5457TIP3   OH237785   4.251   2.309   6.754  0.0188 -0.1915 -0.2609
 5457TIP3    H137786   4.308   2.235   6.774  0.6028 -0.3709 -2.4087
 5457TIP3    H237787   4.207   2.285   6.673 -1.5175  0.8775  0.2047
 5458TIP3   OH237788   5.333   0.681  12.741  0.6494  0.0775 -0.1748
 5458TIP3    H137789   5.249   0.637  12.752 -0.0605  1.2446 -0.7992
 5458TIP3    H237790   5.396   0.623  12.784 -0.2433 -1.5438 -0.9733
 5459TIP3   OH237791   4.670   3.954  14.758  0.2872 -0.2286  0.2392
 5459TIP3    H137792   4.738   3.905  14.713  0.4259 -0.5124  0.7557
 5459TIP3    H237793   4.609   3.979  14.689 -0.5681 -2.3937  0.1538
 5460TIP3   OH237794   3.102   6.149  14.216 -0.1326 -0.3057 -0.0855
 5460TIP3    H137795   3.044   6.153  14.292 -1.0196  0.6450 -0.7700
 5460TIP3    H237796   3.044   6.128  14.143  0.1405  1.7632 -0.9775
 5461TIP3   OH237797   1.029   5.674  14.729  0.2149  0.3652 -0.3744
 5461TIP3    H137798   1.042   5.677  14.823  1.7985 -0.2467 -0.5407
 5461TIP3    H237799   0.945   5.629  14.717  0.0994  0.2728  0.7301
 5462TIP3   OH237800   3.658   4.520  17.088  0.4298  0.3182 -0.4441
 5462TIP3    H137801   3.624   4.491  17.004  1.4837  0.5228 -0.9605
 5462TIP3    H237802   3.594   4.490  17.152  1.0295 -2.4389 -1.0159
 5463TIP3   OH237803   3.824   4.589  12.703  0.1359  0.0494 -0.1606
 5463TIP3    H137804   3.791   4.645  12.773  1.4681  2.4572 -1.2799
 5463TIP3    H237805   3.759   4.597  12.633  1.1502  1.8325 -0.9990
 5464TIP3   OH237806   1.594   3.079  11.790 -1.0283 -0.2029 -0.2319
 5464TIP3    H137807   1.628   3.158  11.832 -0.6109 -0.8787  0.7387
 5464TIP3    H237808   1.577   3.105  11.700 -0.8136  0.9694  0.0532
 5465TIP3   OH237809   3.482   0.150  13.947  0.0524  0.6612 -0.6560
 5465TIP3    H137810   3.409   0.107  13.990  0.2482  1.3175  0.3717
 5465TIP3    H237811   3.442   0.198  13.874 -0.1691 -1.1615 -1.7848
 5466TIP3   OH237812   5.497   6.043  14.915  0.0784  0.0638  0.4100
 5466TIP3    H137813   5.514   6.062  15.007 -0.2065 -0.9134  0.6755
 5466TIP3    H237814   5.582   6.017  14.880 -0.2175 -1.8660  0.9968
 5467TIP3   OH237815   0.640   3.022   1.596 -0.3385 -0.2417  0.1037
 5467TIP3    H137816   0.681   2.945   1.636 -0.4529 -0.8460 -0.8840
 5467TIP3    H237817   0.707   3.055   1.536 -0.2633  0.4820  0.5831
 5468TIP3   OH237818   5.423   4.832   4.132 -0.0609 -0.2863 -0.0792
 5468TIP3    H137819   5.388   4.743   4.138  0.1900 -0.4533 -0.9902
 5468TIP3    H237820   5.345   4.888   4.136 -0.2174 -0.5359  0.5210
 5469TIP3   OH237821   2.769   5.970   0.897 -0.7043 -0.9202 -0.1719
 5469TIP3    H137822   2.822   5.956   0.818 -0.4099  1.9957 -0.6055
 5469TIP3    H237823   2.745   6.063   0.893 -2.1635 -1.1129  2.2998
 5470TIP3   OH237824   2.794   4.850  10.841 -0.2975 -0.0614 -0.1014
 5470TIP3    H137825   2.739   4.862  10.763 -1.1234 -0.2437  0.4404
 5470TIP3    H237826   2.850   4.776  10.819 -1.0572 -0.6107 -0.2435
 5471TIP3   OH237827   2.131   1.867   4.492  0.3083 -0.3716 -0.3026
 5471TIP3    H137828   2.186   1.793   4.518 -0.1270 -0.9228 -0.9278
 5471TIP3    H237829   2.115   1.853   4.398  1.8004  1.5271 -0.9145
 5472TIP3   OH237830   4.412   0.556   2.827 -0.0365  0.2095 -0.2973
 5472TIP3    H137831   4.425   0.462   2.813 -0.3489  0.0637  0.3457
 5472TIP3    H237832   4.319   0.570   2.812  0.2062  0.6422 -1.5576
 5473TIP3   OH237833   3.556   3.088   2.819  0.4036 -0.0832  0.0159
 5473TIP3    H137834   3.484   3.040   2.779  0.9340 -1.9191  1.1148
 5473TIP3    H237835   3.557   3.173   2.774 -1.5210 -0.5306 -0.9866
 5474TIP3   OH237836   5.373   4.293   6.433 -0.1319  0.2158 -0.3661
 5474TIP3    H137837   5.431   4.218   6.420 -0.8799 -0.2367 -1.2225
 5474TIP3    H237838   5.313   4.266   6.502 -0.7252 -0.1945 -1.0247
 5475TIP3   OH237839   5.336   5.283  14.783 -0.4524 -0.0783  0.2416
 5475TIP3    H137840   5.397   5.236  14.839  2.0530 -0.3311 -2.4284
 5475TIP3    H237841   5.274   5.217  14.753 -0.9845 -0.2140  1.6068
 5476TIP3   OH237842   4.484   2.057   1.187 -0.5704  0.4001 -0.7992
 5476TIP3    H137843   4.573   2.046   1.153 -0.1470  1.3182 -0.0177
 5476TIP3    H237844   4.438   1.977   1.159  0.9984 -0.9775  0.3621
 5477TIP3   OH237845   3.303   4.654   5.426  0.7075  0.5526  0.1532
 5477TIP3    H137846   3.307   4.565   5.391 -1.5111 -0.0096  1.1618
 5477TIP3    H237847   3.355   4.649   5.507  3.0369  1.0080 -1.2042
 5478TIP3   OH237848   2.973   5.558  13.410  0.4758 -0.1898  0.2200
 5478TIP3    H137849   2.920   5.485  13.378  1.0210  0.1818 -1.6780
 5478TIP3    H237850   2.916   5.606  13.469 -0.9275 -0.4169 -0.9046
 5479TIP3   OH237851   0.042   3.109  13.328  0.2680  0.0825  0.3069
 5479TIP3    H137852  -0.052   3.127  13.333  0.3533  1.7689 -2.1653
 5479TIP3    H237853   0.054   3.028  13.377 -2.3685  0.1478  1.1929
 5480TIP3   OH237854   5.774   2.277  15.265  0.2638 -0.7186  0.3481
 5480TIP3    H137855   5.789   2.345  15.199  0.3293 -1.4495 -0.3941
 5480TIP3    H237856   5.753   2.198  15.215 -0.7246 -1.0355  1.2275
 5481TIP3   OH237857   3.109   2.670  13.488  0.4664 -0.3631 -0.1392
 5481TIP3    H137858   3.018   2.674  13.517  0.4163  2.4742 -0.4067
 5481TIP3    H237859   3.160   2.684  13.568  0.6365 -0.6222 -0.2013
 5482TIP3   OH237860   3.250   3.496  11.479  0.3577 -0.5336  0.3051
 5482TIP3    H137861   3.220   3.406  11.466  0.8162 -0.6498  0.0408
 5482TIP3    H237862   3.196   3.548  11.419 -0.7760 -0.4565  1.3464
 5483TIP3   OH237863   2.060   1.926   5.410 -0.2355  0.0576 -0.1782
 5483TIP3    H137864   2.055   1.863   5.337 -0.8414  0.0723 -0.1522
 5483TIP3    H237865   2.147   1.964   5.402  0.1432 -0.7786 -0.2044
 5484TIP3   OH237866   0.745   6.065   5.157 -0.8633  0.2403  0.2835
 5484TIP3    H137867   0.757   6.005   5.084 -0.6257  0.1577  0.3894
 5484TIP3    H237868   0.834   6.089   5.183 -0.8871 -1.0574  1.6418
 5485TIP3   OH237869   4.505   2.721  14.667 -0.5262 -0.3551 -0.4826
 5485TIP3    H137870   4.516   2.641  14.718  1.5655  0.4215  0.3879
 5485TIP3    H237871   4.464   2.692  14.586 -0.2343 -2.2410 -0.0094
 5486TIP3   OH237872   6.057   4.085   3.430 -0.6518 -0.3306 -0.1051
 5486TIP3    H137873   6.083   4.014   3.489  2.0585 -0.8943 -1.7821
 5486TIP3    H237874   6.012   4.040   3.358  1.0160 -0.4432 -1.1411
 5487TIP3   OH237875   0.876   1.139  16.764 -0.0972 -0.6381  0.6972
 5487TIP3    H137876   0.929   1.060  16.767 -1.4512 -1.5859  0.6863
 5487TIP3    H237877   0.915   1.193  16.695  0.6429 -1.4404  0.4834
 5488TIP3   OH237878   6.236   1.555   1.108 -0.3543  0.7457 -0.2870
 5488TIP3    H137879   6.275   1.487   1.164  2.5734  2.1347 -0.4414
 5488TIP3    H237880   6.240   1.635   1.161 -1.2604  1.3307 -1.0633
 5489TIP3   OH237881   3.657   2.980   0.508 -0.5885  0.3991 -0.5057
 5489TIP3    H137882   3.697   3.037   0.443 -1.7111 -0.4193 -1.9876
 5489TIP3    H237883   3.590   3.033   0.549  1.5247  1.5968  1.5836
 5490TIP3   OH237884   6.495   2.557  12.239  0.7500  0.3655  0.3429
 5490TIP3    H137885   6.552   2.504  12.295  0.2968 -0.3949  0.0990
 5490TIP3    H237886   6.421   2.499  12.218 -0.9455  1.8282  1.9465
 5491TIP3   OH237887   1.621   1.254   3.150 -1.0458 -0.5791 -0.8477
 5491TIP3    H137888   1.608   1.329   3.093 -0.9763  1.5026  1.6989
 5491TIP3    H237889   1.710   1.265   3.184 -2.2574  0.3819  2.3759
 5492TIP3   OH237890   4.103   4.778   5.277  0.3252 -0.0831 -0.5317
 5492TIP3    H137891   4.181   4.723   5.284 -0.6159 -1.2455  1.7698
 5492TIP3    H237892   4.076   4.794   5.367 -2.8890 -0.9098 -1.2130
 5493TIP3   OH237893   4.092   2.023  15.575  0.3302 -0.2467  0.9501
 5493TIP3    H137894   4.041   1.997  15.652  1.3870 -2.2594  1.0224
 5493TIP3    H237895   4.054   1.972  15.503  0.2386  0.5957  0.3856
 5494TIP3   OH237896   1.951   5.154   5.273  0.0256  0.6384  0.2207
 5494TIP3    H137897   1.986   5.215   5.207  0.9505  0.3771  0.4609
 5494TIP3    H237898   2.018   5.087   5.282 -0.4812  0.1977  0.7998
 5495TIP3   OH237899   3.095   2.922   5.465 -0.6140  0.3426  0.2221
 5495TIP3    H137900   3.043   2.901   5.387  0.2147 -0.6879 -0.0675
 5495TIP3    H237901   3.178   2.877   5.451  0.7022  2.6256  0.2931
 5496TIP3   OH237902   0.820   0.042   2.063 -0.3408  0.2857  0.2332
 5496TIP3    H137903   0.766   0.066   1.988 -0.4459  1.7781  0.7497
 5496TIP3    H237904   0.907   0.029   2.027 -0.7697 -0.8902 -0.4152
 5497TIP3   OH237905   2.772   5.414   4.117  0.0549 -0.4726 -0.0888
 5497TIP3    H137906   2.837   5.431   4.049 -1.3920 -0.3770 -1.5102
 5497TIP3    H237907   2.796   5.328   4.152  0.8208 -0.5308 -0.7232
 5498TIP3   OH237908   2.241   6.313  15.928  0.1896  0.3714  0.7068
 5498TIP3    H137909   2.272   6.326  15.839 -1.0485 -1.1680  0.0041
 5498TIP3    H237910   2.312   6.267  15.972 -0.5951 -2.3091 -0.6224
 5499TIP3   OH237911   3.089   4.501  12.468 -0.3676  0.3435 -0.4295
 5499TIP3    H137912   3.065   4.410  12.479 -0.8632  0.3703 -1.2139
 5499TIP3    H237913   3.049   4.527  12.385 -1.2532  1.6140  0.3559
 5500TIP3   OH237914   1.954   1.747  15.853 -0.7576  0.6752 -0.0875
 5500TIP3    H137915   1.960   1.653  15.874  1.3964  1.1819  1.9433
 5500TIP3    H237916   1.867   1.772  15.884 -0.4505 -0.2021  1.6571
 5501TIP3   OH237917   1.783   2.545  16.746  0.4399  0.0477  0.2232
 5501TIP3    H137918   1.729   2.502  16.811  0.2667 -1.5154 -0.9153
 5501TIP3    H237919   1.736   2.626  16.725 -0.0728  0.0066  1.1760
 5502TIP3   OH237920   3.602   4.703  16.095 -0.0524  0.1997  0.4283
 5502TIP3    H137921   3.574   4.675  16.008 -0.6863 -0.7923  0.9282
 5502TIP3    H237922   3.522   4.740  16.134  0.7346  2.7615 -0.1879
 5503TIP3   OH237923   3.743   2.639  10.752  0.0503 -0.2058 -0.3559
 5503TIP3    H137924   3.751   2.544  10.759 -0.5182 -0.3020 -1.0059
 5503TIP3    H237925   3.656   2.654  10.715  0.4808  0.5310 -1.1107
 5504TIP3   OH237926   6.550   0.492  13.378  0.5568  0.3877  0.4209
 5504TIP3    H137927   6.567   0.498  13.284 -0.6928 -0.4257  0.1178
 5504TIP3    H237928   6.506   0.574  13.399  3.3307  1.8758  0.9299
 5505TIP3   OH237929   2.337   3.694   5.000 -0.9503 -0.0556  0.0635
 5505TIP3    H137930   2.256   3.663   4.960 -0.5025  0.0527 -0.9625
 5505TIP3    H237931   2.400   3.695   4.928 -0.2335  0.5725  0.6878
 5506TIP3   OH237932   6.362   4.007   5.685 -0.0052  0.1880 -0.4027
 5506TIP3    H137933   6.308   3.931   5.663  0.2369  0.5395 -2.4468
 5506TIP3    H237934   6.304   4.066   5.732 -0.7641 -0.4286 -0.5516
 5507TIP3   OH237935   4.098   4.658   4.223  0.1973 -0.6970 -0.5144
 5507TIP3    H137936   4.034   4.613   4.168 -0.3301 -1.9717  1.0711
 5507TIP3    H237937   4.060   4.745   4.238  0.3357 -0.3373 -2.0869
 5508TIP3   OH237938   3.984   5.903  14.070 -0.0174  0.4530  0.5196
 5508TIP3    H137939   3.976   5.826  14.127 -0.3108  0.2801  0.2544
 5508TIP3    H237940   4.073   5.935  14.085  0.5231 -0.6131 -0.1917
 5509TIP3   OH237941   3.774   3.471  14.507  0.0327 -0.0411  0.0427
 5509TIP3    H137942   3.789   3.476  14.601  0.0701 -0.6369  0.0710
 5509TIP3    H237943   3.723   3.391  14.495 -1.6204  1.0072 -0.2428
 5510TIP3   OH237944   6.581   1.377   0.652  0.0061 -0.2485 -0.5314
 5510TIP3    H137945   6.624   1.374   0.567  0.7530  1.7247 -0.2899
 5510TIP3    H237946   6.651   1.361   0.715 -0.3618 -0.7705 -0.2453
 5511TIP3   OH237947   1.286   2.715   5.705 -0.3234  0.1476  0.1384
 5511TIP3    H137948   1.284   2.790   5.645 -1.0864 -0.5374 -0.7238
 5511TIP3    H237949   1.291   2.639   5.648  0.7057 -0.4648  1.0124
 5512TIP3   OH237950   0.752   3.363  12.101  0.0166  0.5384 -0.6107
 5512TIP3    H137951   0.712   3.447  12.123  0.1932  0.3926  0.3218
 5512TIP3    H237952   0.678   3.305  12.083 -0.2256  0.2728  1.0856
 5513TIP3   OH237953   4.507   2.225   3.398 -0.1463 -0.0098 -0.4828
 5513TIP3    H137954   4.425   2.175   3.392 -0.6695  0.6331  1.0448
 5513TIP3    H237955   4.480   2.314   3.420  1.0303 -0.1999  2.0191
 5514TIP3   OH237956   4.021   1.596  15.206  0.1883 -0.0667  0.0734
 5514TIP3    H137957   4.049   1.688  15.202 -1.1550  0.3548 -0.2166
 5514TIP3    H237958   3.948   1.596  15.268  0.7351 -1.1019  0.7345
 5515TIP3   OH237959   0.974   5.640   5.672 -0.4771 -0.6928  0.2646
 5515TIP3    H137960   1.050   5.699   5.663  0.7092 -1.9164  1.7214
 5515TIP3    H237961   0.958   5.609   5.582 -0.5847  1.1321 -0.3934
 5516TIP3   OH237962   0.377   4.060  14.947 -0.2961 -0.1212 -0.1958
 5516TIP3    H137963   0.397   4.151  14.924 -2.3740  0.6481  0.8221
 5516TIP3    H237964   0.445   4.036  15.009  0.6473  0.5073 -0.9534
 5517TIP3   OH237965   3.827   3.178  11.636 -0.5284  0.1563  0.3708
 5517TIP3    H137966   3.894   3.238  11.604  0.1967  0.5416  2.4787
 5517TIP3    H237967   3.867   3.091  11.631 -0.2788  0.2593  0.5867
 5518TIP3   OH237968   4.157   0.571   0.934 -0.3138 -0.3629  0.7925
 5518TIP3    H137969   4.085   0.628   0.963 -0.4549 -0.4443  0.6037
 5518TIP3    H237970   4.211   0.626   0.878  0.1621 -0.0975  1.4905
 5519TIP3   OH237971   3.765   5.025   0.213  0.5315 -0.3453  0.1730
 5519TIP3    H137972   3.700   5.092   0.234  0.7757 -0.0650  0.0310
 5519TIP3    H237973   3.846   5.073   0.197  0.7421 -0.6829  0.2018
 5520TIP3   OH237974   0.140   3.276   1.879  0.4934  0.2490 -0.8679
 5520TIP3    H137975   0.150   3.337   1.806  0.7271 -0.1513 -1.1716
 5520TIP3    H237976   0.048   3.285   1.904  0.2025 -0.1807 -1.7237
 5521TIP3   OH237977   5.343   3.980  13.393 -0.3852 -0.3736 -0.1366
 5521TIP3    H137978   5.247   3.979  13.385 -0.3966  0.2406 -0.0746
 5521TIP3    H237979   5.373   3.990  13.302 -0.4554  3.0056  0.1163
 5522TIP3   OH237980   0.382   5.492   6.660  0.4338  0.0317  0.1916
 5522TIP3    H137981   0.469   5.465   6.689  1.2857  0.5723 -1.6747
 5522TIP3    H237982   0.377   5.462   6.569 -1.2557  0.2136  0.1912
 5523TIP3   OH237983   3.495   4.147  12.936  0.2480  0.5736 -0.4762
 5523TIP3    H137984   3.441   4.135  13.014  1.8974 -3.3994  0.3011
 5523TIP3    H237985   3.558   4.214  12.961  0.1595  0.0439  1.3292
 5524TIP3   OH237986   5.745   6.571  12.488 -0.0782  0.7840  0.0941
 5524TIP3    H137987   5.828   6.528  12.464 -0.8269 -0.8733  0.3470
 5524TIP3    H237988   5.744   6.569  12.584 -0.5929  0.4152  0.0829
 5525TIP3   OH237989   3.915   5.723  14.769 -0.2737  0.2138  0.4261
 5525TIP3    H137990   3.932   5.791  14.835  1.4642 -0.8135  1.1083
 5525TIP3    H237991   3.822   5.703  14.778 -0.8535  2.4736  0.1996
 5526TIP3   OH237992   2.812   2.340  13.791  0.7498  0.0816  0.1337
 5526TIP3    H137993   2.759   2.272  13.751 -1.5065  0.5690  2.0648
 5526TIP3    H237994   2.883   2.356  13.729 -0.0619 -2.2453 -1.4904
 5527TIP3   OH237995   0.305   0.225  12.782  0.6940  0.3638 -0.3468
 5527TIP3    H137996   0.258   0.151  12.742 -1.3471  1.0151  0.6814
 5527TIP3    H237997   0.388   0.229  12.735  0.4573 -1.9521 -1.1022
 5528TIP3   OH237998   4.478   0.697   1.500  0.5475  0.1892  0.3694
 5528TIP3    H137999   4.550   0.697   1.436  0.5584 -2.3015  0.3111
 5528TIP3    H238000   4.414   0.636   1.464 -0.9869  1.2670  1.1502
 5529TIP3   OH238001   6.565   0.036   1.379 -0.1353 -0.5647  0.1358
 5529TIP3    H138002   6.637   0.010   1.321  0.1639 -0.2128  0.3373
 5529TIP3    H238003   6.535   0.120   1.343  0.4323 -0.0555  0.8007
 5530TIP3   OH238004   5.041   4.591   1.976 -0.3079  0.7077  0.7035
 5530TIP3    H138005   5.091   4.542   1.910 -0.7562  0.4265  0.5707
 5530TIP3    H238006   5.086   4.676   1.981  0.3926  0.3394  0.8356
 5531TIP3   OH238007   3.378   2.527   2.639  0.0477  0.4562 -0.6248
 5531TIP3    H138008   3.297   2.566   2.605 -1.2926 -1.2607  0.4043
 5531TIP3    H238009   3.379   2.551   2.732  1.6046  1.7823 -0.9351
 5532TIP3   OH238010   4.115   3.608  16.529  0.1554  0.5652  0.4865
 5532TIP3    H138011   4.071   3.548  16.470 -0.7693  0.2851  1.4199
 5532TIP3    H238012   4.115   3.692  16.483  0.3722  0.1342 -0.3157
 5533TIP3   OH238013   1.640   1.885  14.834  0.0672  0.0639 -0.0529
 5533TIP3    H138014   1.634   1.841  14.749 -1.0283 -1.5791  0.8182
 5533TIP3    H238015   1.550   1.885  14.867 -0.1767  3.7594 -0.3142
 5534TIP3   OH238016   6.692   3.834  14.529 -0.1686 -0.2295  0.2349
 5534TIP3    H138017   6.688   3.809  14.622 -0.8180  0.6351  0.4484
 5534TIP3    H238018   6.622   3.898  14.519  0.2806  0.1131 -0.7314
 5535TIP3   OH238019   0.890   4.004  17.132 -0.2010 -0.1251  0.3005
 5535TIP3    H138020   0.939   4.077  17.170  0.6350 -0.7296  0.4024
 5535TIP3    H238021   0.816   4.046  17.087 -0.7608  0.6572  1.8906
 5536TIP3   OH238022   2.780   6.296   3.155 -0.1957 -0.5960 -0.1995
 5536TIP3    H138023   2.761   6.389   3.139  0.4709  0.1566  2.7219
 5536TIP3    H238024   2.854   6.276   3.098 -0.5631  0.5510 -1.1203
 5537TIP3   OH238025   0.903   5.532  11.565  0.5041  0.1037 -0.9362
 5537TIP3    H138026   0.910   5.551  11.471  1.3629  0.8914 -0.7230
 5537TIP3    H238027   0.838   5.594  11.597 -1.0503 -1.2639 -1.2815
 5538TIP3   OH238028   3.404   0.923  13.369  0.4551 -0.7682 -0.1034
 5538TIP3    H138029   3.319   0.953  13.335 -1.1167 -1.9260  2.4987
 5538TIP3    H238030   3.460   1.000  13.364 -0.1206 -0.3943 -3.4582
 5539TIP3   OH238031   2.456   5.538  13.286 -0.7584 -0.5023 -0.2402
 5539TIP3    H138032   2.423   5.534  13.376 -1.8785  1.3276 -0.5250
 5539TIP3    H238033   2.378   5.530  13.232 -0.5104  1.3994 -0.9665
 5540TIP3   OH238034   6.103   4.665   6.025  0.1469  0.6465  0.2968
 5540TIP3    H138035   6.091   4.572   6.042  1.8596  0.5136  0.9160
 5540TIP3    H238036   6.150   4.669   5.942 -0.4744  0.9883 -0.0436
 5541TIP3   OH238037   0.538   4.407   0.966  0.0847 -0.0122  0.4680
 5541TIP3    H138038   0.487   4.359   0.901 -0.3000  0.3570  0.4927
 5541TIP3    H238039   0.550   4.494   0.928 -1.5780  0.7572  1.5926
 5542TIP3   OH238040   4.457   0.419  13.766 -0.1139  0.2341  0.4043
 5542TIP3    H138041   4.426   0.470  13.841 -2.1944  0.5854 -0.6230
 5542TIP3    H238042   4.542   0.457  13.745 -0.5579  1.7108  1.1172
 5543TIP3   OH238043   1.640   6.494  13.345  0.2527  0.4268  0.5320
 5543TIP3    H138044   1.695   6.560  13.387 -0.8782  0.5695  1.8570
 5543TIP3    H238045   1.550   6.522  13.362 -0.2599  0.0347 -1.3242
 5544TIP3   OH238046   1.252   5.085  15.716  0.4341 -0.0342  0.0700
 5544TIP3    H138047   1.208   5.079  15.800 -0.5929  1.8286 -0.2631
 5544TIP3    H238048   1.183   5.113  15.655  2.0350  3.2395 -0.4372
 5545TIP3   OH238049   1.154   6.049  12.404  0.1765 -0.2619 -0.4259
 5545TIP3    H138050   1.120   6.072  12.491  0.5676  1.7097 -0.7546
 5545TIP3    H238051   1.235   6.000  12.423 -0.2145 -0.6383  0.3103
 5546TIP3   OH238052   3.118   3.598   4.392 -0.4809  0.4975 -0.5657
 5546TIP3    H138053   3.117   3.656   4.316  0.1140 -0.1804 -1.1064
 5546TIP3    H238054   3.206   3.610   4.429 -0.0363 -0.6735 -1.1861
 5547TIP3   OH238055   4.306   0.805   4.237  0.1205 -0.0073 -0.1267
 5547TIP3    H138056   4.239   0.801   4.305 -0.3649  1.4579 -0.4916
 5547TIP3    H238057   4.330   0.897   4.232  0.7755 -0.2268 -1.3485
 5548TIP3   OH238058   3.945   4.460   3.415 -0.4951 -0.0683 -0.4840
 5548TIP3    H138059   3.946   4.466   3.320  1.1145 -0.9418 -0.5698
 5548TIP3    H238060   4.016   4.519   3.443 -0.4526 -0.3968  0.1173
 5549TIP3   OH238061   0.359   4.766   4.605  0.0871 -0.6447 -0.4390
 5549TIP3    H138062   0.416   4.704   4.650 -1.5374 -1.7062  0.2449
 5549TIP3    H238063   0.419   4.830   4.566  1.6849 -1.2213  0.9502
 5550TIP3   OH238064   5.678   5.265  15.211 -0.3266 -0.1517  0.6041
 5550TIP3    H138065   5.647   5.176  15.223  0.1806 -0.3540  0.4192
 5550TIP3    H238066   5.661   5.285  15.119 -0.3484 -0.0889  0.6209
 5551TIP3   OH238067   2.708   3.845  15.596  0.0604  0.6867 -0.1473
 5551TIP3    H138068   2.790   3.858  15.645  1.4696  1.1052 -2.4893
 5551TIP3    H238069   2.692   3.751  15.601  2.3423  0.1036 -2.0228
 5552TIP3   OH238070   2.434   0.801  14.936 -0.1281  0.1060  0.2065
 5552TIP3    H138071   2.426   0.895  14.956 -3.2076  0.1770 -0.8748
 5552TIP3    H238072   2.478   0.798  14.852 -1.1667  0.7007 -0.3810
 5553TIP3   OH238073   1.720   3.796  12.573 -0.0791  0.0743 -0.4548
 5553TIP3    H138074   1.768   3.878  12.562  1.5211 -0.9092 -1.1749
 5553TIP3    H238075   1.714   3.760  12.485  1.7460 -1.9147  0.1631
 5554TIP3   OH238076   5.805   2.639  13.260 -0.3407 -0.3596 -0.0710
 5554TIP3    H138077   5.805   2.734  13.250 -0.0195 -0.4314 -0.8500
 5554TIP3    H238078   5.734   2.609  13.204 -0.8685 -0.5360  0.6880
 5555TIP3   OH238079   6.305   4.619  15.825  0.1387 -0.2722  0.0734
 5555TIP3    H138080   6.333   4.532  15.854 -1.0662 -0.5989  0.2946
 5555TIP3    H238081   6.271   4.661  15.904 -1.1860 -0.3738 -0.4249
 5556TIP3   OH238082   5.382   5.070  16.429  0.5879 -0.3491 -0.0927
 5556TIP3    H138083   5.291   5.046  16.445  0.7138 -1.3221 -0.7124
 5556TIP3    H238084   5.381   5.117  16.346  0.9367 -2.8179 -1.6094
 5557TIP3   OH238085   5.859   4.259  15.081 -0.0868 -0.1685 -0.7332
 5557TIP3    H138086   5.888   4.169  15.068 -0.2353 -0.4820  0.8748
 5557TIP3    H238087   5.791   4.273  15.016 -0.0216 -1.2018 -1.0352
 5558TIP3   OH238088   5.686   3.062  14.047 -0.0921  0.0893  0.0346
 5558TIP3    H138089   5.752   3.013  13.999 -1.1982 -0.6592 -0.7676
 5558TIP3    H238090   5.642   3.116  13.981 -0.6724  0.1328  0.4473
 5559TIP3   OH238091   5.049   1.907   5.990 -0.5803 -0.4272  0.3983
 5559TIP3    H138092   4.982   1.840   6.006  1.4987 -2.7640 -0.1280
 5559TIP3    H238093   5.087   1.883   5.905  1.3846  0.3981  0.9887
 5560TIP3   OH238094   6.235   5.414   3.757 -0.0923 -0.2917  0.5098
 5560TIP3    H138095   6.221   5.508   3.769 -0.7382 -0.2135 -0.6329
 5560TIP3    H238096   6.329   5.405   3.744 -0.0087  0.1795  0.7621
 5561TIP3   OH238097   2.377   3.866  16.823  0.0398 -0.4012 -0.8292
 5561TIP3    H138098   2.313   3.809  16.781 -0.5795  1.0442 -1.9585
 5561TIP3    H238099   2.429   3.901  16.751  0.5657  0.2532 -0.1495
 5562TIP3   OH238100   4.137   6.181   4.460  0.5087 -0.2328 -0.3752
 5562TIP3    H138101   4.153   6.100   4.411  0.9874 -1.5747  1.8410
 5562TIP3    H238102   4.099   6.152   4.542 -0.4413  1.9319  0.0289
 5563TIP3   OH238103   3.273   5.316  12.395 -0.3715  0.1697 -0.1082
 5563TIP3    H138104   3.240   5.374  12.465 -0.3566 -0.5954  0.5448
 5563TIP3    H238105   3.253   5.363  12.314  2.0010  2.3545  0.4367
 5564TIP3   OH238106   2.534   4.119  10.788  0.2017 -0.6126 -0.4133
 5564TIP3    H138107   2.572   4.033  10.771 -1.6312 -1.6668  0.5402
 5564TIP3    H238108   2.467   4.130  10.721 -2.5971 -1.9546  1.9564
 5565TIP3   OH238109   0.501   6.034   1.656 -0.1513  0.0453  0.1463
 5565TIP3    H138110   0.477   6.083   1.735  3.1319  0.0184  1.3223
 5565TIP3    H238111   0.436   5.965   1.649 -2.4833  2.0458  0.8479
 5566TIP3   OH238112   5.391   6.767   1.473  0.1761 -0.2578  0.4379
 5566TIP3    H138113   5.297   6.750   1.464  0.5967 -2.8590  0.1154
 5566TIP3    H238114   5.396   6.846   1.527 -2.1867  1.4828 -1.6289
 5567TIP3   OH238115   2.703   4.879   2.696  0.3573 -0.0620 -0.0533
 5567TIP3    H138116   2.738   4.870   2.785  0.1621  0.8565  0.1343
 5567TIP3    H238117   2.651   4.960   2.699  0.9211  0.3637 -1.1770
 5568TIP3   OH238118   3.510   3.722   0.145 -0.1157  0.5855 -0.1337
 5568TIP3    H138119   3.464   3.647   0.107  0.2595 -0.5107  1.4678
 5568TIP3    H238120   3.544   3.689   0.229  2.8840  1.5796 -0.8403
 5569TIP3   OH238121   3.817   0.069  14.419  0.2383  0.4752  0.3785
 5569TIP3    H138122   3.881   0.098  14.354  1.7764  1.4640  2.2446
 5569TIP3    H238123   3.756   0.143  14.427  1.2397  1.2072  1.4983
 5570TIP3   OH238124   0.644   4.028  10.639  0.7683  0.2880 -0.5613
 5570TIP3    H138125   0.711   4.071  10.586  1.5543  1.4187  1.2765
 5570TIP3    H238126   0.689   4.003  10.720 -0.7551 -0.0116  0.2355
 5571TIP3   OH238127   2.062   2.481   0.960 -0.0170 -0.1720 -0.2315
 5571TIP3    H138128   2.034   2.572   0.955  0.7110  0.0973  0.3995
 5571TIP3    H238129   1.982   2.432   0.974 -0.7100  0.1345 -2.5823
 5572TIP3   OH238130   1.729   3.018   0.147  0.2929  0.6106  0.1974
 5572TIP3    H138131   1.820   3.006   0.121  0.5991  0.5634  1.2638
 5572TIP3    H238132   1.733   3.038   0.240 -0.6631  2.3228 -0.0839
 5573TIP3   OH238133   0.707   6.526  13.099  0.0356  0.1279 -1.0674
 5573TIP3    H138134   0.648   6.527  13.175 -1.4826  2.1337 -2.1762
 5573TIP3    H238135   0.736   6.435  13.093 -1.9349 -0.6756  0.3105
 5574TIP3   OH238136   2.451   4.166   1.246 -0.3472  0.1736 -0.1590
 5574TIP3    H138137   2.544   4.183   1.229 -0.0282 -1.6231 -0.4228
 5574TIP3    H238138   2.411   4.253   1.250  0.8319  0.9644 -2.8529
 5575TIP3   OH238139   6.442   4.931   3.923  0.1145  0.2427 -0.0281
 5575TIP3    H138140   6.373   4.968   3.978  0.1701  1.5149 -0.7653
 5575TIP3    H238141   6.523   4.968   3.958  0.2191  0.4554 -0.4845
 5576TIP3   OH238142   1.220   1.902  16.443 -0.0339 -0.3811 -0.3137
 5576TIP3    H138143   1.208   1.931  16.352 -0.7734 -0.2427 -0.1810
 5576TIP3    H238144   1.131   1.889  16.475  0.2341 -0.6453  0.3239
 5577TIP3   OH238145   3.905   2.719  12.788  0.6533  0.1159 -0.3734
 5577TIP3    H138146   3.852   2.645  12.758 -0.1805  0.5091  0.1027
 5577TIP3    H238147   3.850   2.764  12.852  0.8472  1.5701 -1.1752
 5578TIP3   OH238148   1.324   1.332  12.473  0.3387 -0.7308 -0.4890
 5578TIP3    H138149   1.311   1.266  12.405  0.8900  1.1067 -2.4933
 5578TIP3    H238150   1.257   1.398  12.455  0.6307 -0.0977  0.6310
 5579TIP3   OH238151   4.589   3.542  12.042 -0.5408  0.1492  0.3733
 5579TIP3    H138152   4.663   3.550  11.982 -0.6347  1.1334  0.3865
 5579TIP3    H238153   4.544   3.626  12.038 -0.7411  0.1246  1.5753
 5580TIP3   OH238154   2.195   4.155   3.606 -0.6114  0.0821  0.2549
 5580TIP3    H138155   2.284   4.162   3.571  0.7012 -0.3411  3.1659
 5580TIP3    H238156   2.154   4.238   3.583  1.0198  0.8779  0.0208
 5581TIP3   OH238157   3.443   6.082  11.765 -0.2937 -0.5417 -0.0843
 5581TIP3    H138158   3.497   6.042  11.697  1.7115  0.5793  0.7556
 5581TIP3    H238159   3.392   6.009  11.801  0.1146 -1.5181 -1.3944
 5582TIP3   OH238160   4.306   6.069  16.844 -0.2843 -0.0036  0.4993
 5582TIP3    H138161   4.314   6.058  16.749 -3.1190  1.1279  0.0359
 5582TIP3    H238162   4.220   6.034  16.865 -0.3599  1.1838  2.3969
 5583TIP3   OH238163   2.768   4.264   5.599  0.3047  0.4673 -0.0160
 5583TIP3    H138164   2.828   4.338   5.607  1.0862 -0.2349  0.8403
 5583TIP3    H238165   2.741   4.264   5.507  1.2389  1.0894 -0.2960
 5584TIP3   OH238166   6.542   3.911  11.980 -0.1314  0.2271  0.5849
 5584TIP3    H138167   6.527   3.848  11.910  0.0673  0.7255  0.0872
 5584TIP3    H238168   6.557   3.858  12.058 -0.3675 -0.3304  0.2514
 5585TIP3   OH238169   0.985   0.158   3.852 -0.2775 -0.4911 -0.8209
 5585TIP3    H138170   0.925   0.141   3.779 -0.8219 -0.0530 -0.4741
 5585TIP3    H238171   0.958   0.097   3.920 -0.3947 -0.2246 -0.6281
 5586TIP3   OH238172   5.711   6.600   3.613 -0.5508 -0.3549  0.0945
 5586TIP3    H138173   5.790   6.546   3.615 -0.0485  0.1289 -2.4327
 5586TIP3    H238174   5.640   6.538   3.595 -0.7519 -0.7572  2.1102
 5587TIP3   OH238175   3.826   5.958  11.155  0.3235  0.2052 -0.2802
 5587TIP3    H138176   3.847   5.895  11.086  1.2565 -0.3665  0.4919
 5587TIP3    H238177   3.781   5.906  11.222  2.5586 -0.0812  1.1182
 5588TIP3   OH238178   2.232   2.355  12.417  0.2404 -0.1108 -0.1775
 5588TIP3    H138179   2.249   2.305  12.337  1.0261 -1.1454  0.5962
 5588TIP3    H238180   2.309   2.338  12.472 -0.5846  0.0330  1.0564
 5589TIP3   OH238181   3.895   3.624   2.069  0.2408 -0.1288  0.2241
 5589TIP3    H138182   3.908   3.534   2.100 -1.1327 -0.1300  0.8428
 5589TIP3    H238183   3.982   3.652   2.040  1.1050 -0.9587  1.9083
 5590TIP3   OH238184   0.061   6.198   2.673  0.0483 -0.4495 -0.5709
 5590TIP3    H138185  -0.007   6.168   2.613 -0.3508 -0.5987 -0.0504
 5590TIP3    H238186   0.091   6.118   2.717  0.4406 -0.3611 -0.6706
 5591TIP3   OH238187   4.130   6.754  15.928  0.0441  0.4701 -0.7930
 5591TIP3    H138188   4.175   6.684  15.880 -0.3211 -0.0583 -0.3882
 5591TIP3    H238189   4.053   6.710  15.965 -0.2404  1.1165 -0.6142
 5592TIP3   OH238190   1.698   5.522  14.357 -0.8440 -0.5476 -0.2790
 5592TIP3    H138191   1.713   5.578  14.281 -1.2889 -0.6919 -0.4808
 5592TIP3    H238192   1.609   5.489  14.345 -1.1825 -0.0332  0.6531
 5593TIP3   OH238193   4.973   4.672  13.588  0.1252  0.5748  0.1815
 5593TIP3    H138194   4.982   4.723  13.668  3.8913 -1.9651  1.6516
 5593TIP3    H238195   5.057   4.682  13.543 -0.6711 -0.7113 -1.7603
 5594TIP3   OH238196   2.628   0.782   1.826 -0.2308 -0.2743  0.0142
 5594TIP3    H138197   2.681   0.731   1.888 -1.0879  0.3053  1.2712
 5594TIP3    H238198   2.605   0.862   1.874 -2.0332 -0.4004 -0.5502
 5595TIP3   OH238199   4.060   0.591  16.802  0.0145  0.5256 -0.4100
 5595TIP3    H138200   4.074   0.670  16.751  0.2004  0.3969 -0.5581
 5595TIP3    H238201   4.143   0.543  16.796  0.0105  0.4717 -0.0583
 5596TIP3   OH238202   4.822   2.962  15.418 -0.2721  0.0948  0.7358
 5596TIP3    H138203   4.750   2.920  15.371 -0.0466 -0.9765  1.3154
 5596TIP3    H238204   4.789   3.048  15.441 -0.6938  0.3279 -0.6346
 5597TIP3   OH238205   1.053   4.966   4.292 -0.0723  0.7733 -0.0053
 5597TIP3    H138206   1.145   4.959   4.319 -0.0308 -2.2635 -0.5807
 5597TIP3    H238207   1.054   4.949   4.198 -1.2222  0.7059 -0.0192
 5598TIP3   OH238208   5.037   1.528  14.858  0.3000  0.9380  0.2795
 5598TIP3    H138209   5.002   1.509  14.945  1.0172  1.6122  0.7322
 5598TIP3    H238210   4.964   1.569  14.811 -0.2749  0.0238  0.3542
 5599TIP3   OH238211   6.623   1.888  14.220  0.3769 -0.0833 -0.2443
 5599TIP3    H138212   6.565   1.964  14.212  0.7175  0.0278 -2.2063
 5599TIP3    H238213   6.660   1.895  14.307 -0.7186  1.1867  0.1522
 5600TIP3   OH238214   0.420   1.189   3.635 -0.4380 -0.0837  0.3116
 5600TIP3    H138215   0.434   1.138   3.714  0.7072  0.5132  0.5042
 5600TIP3    H238216   0.343   1.243   3.655 -0.3247 -0.1379  0.9137
 5601TIP3   OH238217   2.193   3.169  16.674  0.1469 -0.0340 -0.0445
 5601TIP3    H138218   2.124   3.156  16.740  1.1189 -0.2307  0.9723
 5601TIP3    H238219   2.166   3.246  16.625 -0.6776  0.0299  0.4947
 5602TIP3   OH238220   6.088   0.575   4.068 -0.0164  0.3565  0.8965
 5602TIP3    H138221   6.083   0.553   4.161 -2.1501  0.0744  0.7677
 5602TIP3    H238222   6.111   0.492   4.026 -1.0749 -0.0202  1.0253
 5603TIP3   OH238223   4.368   2.568  15.214 -0.0790  0.6061 -0.1066
 5603TIP3    H138224   4.366   2.500  15.281 -1.6309  1.4676  0.7836
 5603TIP3    H238225   4.440   2.625  15.240  0.3332  0.0667 -0.0632
 5604TIP3   OH238226   1.706   5.524  12.521 -0.1683  0.0322  0.0686
 5604TIP3    H138227   1.680   5.605  12.478  0.0291  0.5994  0.9787
 5604TIP3    H238228   1.643   5.513  12.593 -0.1038 -0.5383  0.0429
 5605TIP3   OH238229   5.085   6.186   5.717  0.0186 -0.0475 -0.0396
 5605TIP3    H138230   5.176   6.160   5.705 -0.2842 -1.1994  0.0595
 5605TIP3    H238231   5.064   6.239   5.640  0.9067  0.6557  0.1819
 5606TIP3   OH238232   2.392   1.031   2.031  0.1930 -0.2303 -0.0757
 5606TIP3    H138233   2.345   0.964   1.981  0.6410 -1.2938  0.8826
 5606TIP3    H238234   2.460   0.982   2.078 -1.6009  0.3053  3.4074
 5607TIP3   OH238235   3.106   1.510  16.424  0.4237 -0.1189 -0.3833
 5607TIP3    H138236   3.185   1.535  16.473  2.0128 -0.3153 -2.7078
 5607TIP3    H238237   3.139   1.475  16.342 -1.9481 -3.8324  0.0349
 5608TIP3   OH238238   4.575   6.064  16.892  0.1122 -0.5788 -0.2713
 5608TIP3    H138239   4.487   6.098  16.876 -0.2974 -0.7305  1.3795
 5608TIP3    H238240   4.567   5.970  16.877 -0.0613 -0.6109  0.0001
 5609TIP3   OH238241   4.061   3.945   4.596 -1.0409  0.2539  0.2101
 5609TIP3    H138242   4.122   3.966   4.526 -0.3323  0.7822  0.9679
 5609TIP3    H238243   3.997   4.016   4.593  0.0793  1.3653  1.3100
 5610TIP3   OH238244   4.006   0.141  12.730  0.6926 -0.6803 -0.5395
 5610TIP3    H138245   4.037   0.218  12.778 -0.2889 -0.1641 -0.7030
 5610TIP3    H238246   4.047   0.147  12.644 -1.8590  1.5222 -1.7707
 5611TIP3   OH238247   2.860   1.331   1.552  0.5157 -0.0521 -0.2643
 5611TIP3    H138248   2.773   1.294   1.567  0.9932 -0.9856  0.3443
 5611TIP3    H238249   2.855   1.372   1.466 -0.7182  0.5226  0.0617
 5612TIP3   OH238250   5.763   0.676  12.634  0.0129  0.2799 -0.3686
 5612TIP3    H138251   5.856   0.680  12.610  0.1931  1.0565  0.3680
 5612TIP3    H238252   5.716   0.707  12.557  0.3622 -0.2519 -0.7952
 5613TIP3   OH238253   5.783   1.766  11.797  0.6269  0.1749  0.5218
 5613TIP3    H138254   5.700   1.734  11.761  0.3940 -0.2001  1.3670
 5613TIP3    H238255   5.846   1.698  11.773  0.9398  0.9768 -1.0750
 5614TIP3   OH238256   3.385   6.245  11.330 -0.1667 -0.2141 -0.5449
 5614TIP3    H138257   3.357   6.165  11.374  1.2441 -0.2957  0.2334
 5614TIP3    H238258   3.303   6.291  11.310 -0.9600 -1.5149 -0.3941
 5615TIP3   OH238259   0.241   3.377  14.791 -0.8924  0.6273 -0.3009
 5615TIP3    H138260   0.146   3.371  14.805 -0.7112 -4.2896  0.3858
 5615TIP3    H238261   0.276   3.399  14.878 -1.2953 -1.5066  0.4590
 5616TIP3   OH238262   4.705   5.853   0.430  0.4572 -0.2500 -0.1086
 5616TIP3    H138263   4.717   5.758   0.430  0.4999 -0.2920 -1.9442
 5616TIP3    H238264   4.622   5.866   0.385  1.1450  0.5937 -1.2164
 5617TIP3   OH238265   3.341   1.415  11.842 -0.5744 -0.6447 -0.2385
 5617TIP3    H138266   3.430   1.448  11.851 -0.5861 -0.2076 -1.5392
 5617TIP3    H238267   3.352   1.324  11.816 -0.5429 -1.5305  2.5861
 5618TIP3   OH238268   6.600   1.642  13.565 -0.2052  0.0925 -0.1812
 5618TIP3    H138269   6.630   1.727  13.531  1.3763 -0.6046 -0.5812
 5618TIP3    H238270   6.535   1.665  13.632 -0.0194  1.6068 -0.4854
 5619TIP3   OH238271   1.482   2.117  11.137 -0.7877 -0.1222  0.5853
 5619TIP3    H138272   1.471   2.190  11.077  1.1941  1.3948  1.9209
 5619TIP3    H238273   1.399   2.069  11.133 -0.7395 -0.1480 -3.2918
 5620TIP3   OH238274   5.154   4.031   4.894 -0.0090  0.3840 -0.6514
 5620TIP3    H138275   5.176   3.942   4.868  1.5123  0.4730  0.2082
 5620TIP3    H238276   5.089   4.060   4.830  0.4310 -0.8791 -1.7083
 5621TIP3   OH238277   3.386   3.138  16.305 -0.1512 -0.4455 -0.0740
 5621TIP3    H138278   3.325   3.131  16.231  0.6807 -0.7279 -0.7372
 5621TIP3    H238279   3.472   3.121  16.267  0.3030 -0.4297  0.9355
 5622TIP3   OH238280   6.309   5.643   2.886 -0.1350 -0.4812 -0.2047
 5622TIP3    H138281   6.369   5.689   2.827 -2.6289  3.2043 -0.1575
 5622TIP3    H238282   6.263   5.582   2.828 -0.4357  0.9085 -1.5096
 5623TIP3   OH238283   1.752   5.895   0.139  0.5483 -0.3368 -0.1370
 5623TIP3    H138284   1.826   5.891   0.079  0.2064  1.4193 -0.7270
 5623TIP3    H238285   1.792   5.911   0.225  0.9361 -1.1934 -0.1465
 5624TIP3   OH238286   3.795   0.707   0.120 -0.4105 -0.4333 -0.1456
 5624TIP3    H138287   3.845   0.628   0.143  1.2993  0.3286 -1.0811
 5624TIP3    H238288   3.819   0.771   0.187 -0.5532 -0.2265 -0.2916
 5625TIP3   OH238289   1.880   2.434   6.129  0.3097  0.1933  0.1170
 5625TIP3    H138290   1.966   2.440   6.089 -0.2229  0.4915 -1.0150
 5625TIP3    H238291   1.834   2.513   6.100 -1.0363 -0.9342 -1.0025
 5626TIP3   OH238292   3.085   0.119   1.617 -0.2936 -0.4933  0.4818
 5626TIP3    H138293   3.094   0.199   1.669  0.3252  0.3161 -0.8133
 5626TIP3    H238294   3.041   0.148   1.538 -0.0237 -1.4290 -0.0172
 5627TIP3   OH238295   0.729   2.944  12.452 -0.2848 -0.6742  0.2040
 5627TIP3    H138296   0.710   2.851  12.464  1.4719 -1.0163  0.5559
 5627TIP3    H238297   0.726   2.957  12.357  0.8090 -1.4252  0.0455
 5628TIP3   OH238298   6.546   3.781   2.297 -0.4650 -0.6574  0.2362
 5628TIP3    H138299   6.486   3.718   2.336 -0.7006  0.1126  1.1491
 5628TIP3    H238300   6.528   3.863   2.343 -0.1529  0.0780 -0.9124
 5629TIP3   OH238301   5.101   4.790   0.546 -0.3627  0.5653 -0.2802
 5629TIP3    H138302   5.086   4.884   0.560  1.1472  0.4863  2.9478
 5629TIP3    H238303   5.083   4.751   0.631  2.8429 -1.4689 -0.3780
 5630TIP3   OH238304   0.531   1.484  11.477  0.1914 -0.1746  0.3173
 5630TIP3    H138305   0.490   1.570  11.483  1.7423  0.6697 -0.5684
 5630TIP3    H238306   0.517   1.444  11.563 -0.0476  1.1945  0.9329
 5631TIP3   OH238307   4.846   2.237   4.998  0.0113 -0.1580  0.3625
 5631TIP3    H138308   4.921   2.179   5.009  0.3990  0.4095  0.7196
 5631TIP3    H238309   4.877   2.323   5.024 -0.8698  0.0153  0.9007
 5632TIP3   OH238310   5.120   4.729   2.526 -0.2832 -0.1782 -0.1339
 5632TIP3    H138311   5.139   4.639   2.553 -1.0291 -0.1068  0.6589
 5632TIP3    H238312   5.185   4.782   2.573 -0.0674 -0.2733 -0.3262
 5633TIP3   OH238313   1.492   3.689   3.076 -0.0595  0.0467  0.4378
 5633TIP3    H138314   1.586   3.681   3.061 -0.2709 -0.2611 -0.8396
 5633TIP3    H238315   1.465   3.764   3.023 -0.8548 -1.0942 -0.8279
 5634TIP3   OH238316   6.682   4.059  16.020  0.0663  0.3163  0.4041
 5634TIP3    H138317   6.740   4.047  15.945 -0.5819 -1.1913  0.1085
 5634TIP3    H238318   6.715   4.137  16.064  0.7306  0.9649 -1.1932
 5635TIP3   OH238319   4.164   4.359  15.736  0.6555 -0.4833 -0.2217
 5635TIP3    H138320   4.215   4.343  15.815  1.6041 -0.4385 -0.8099
 5635TIP3    H238321   4.160   4.455  15.730  0.6051 -0.4869 -0.2431
 5636TIP3   OH238322   2.078   2.539  16.064  0.0570 -0.1477 -0.0242
 5636TIP3    H138323   1.997   2.532  16.014  0.0548  1.2549 -0.2630
 5636TIP3    H238324   2.120   2.453  16.054 -0.0073  0.0148 -2.3304
 5637TIP3   OH238325   0.902   5.314   1.983  0.0351  0.0856  0.1085
 5637TIP3    H138326   0.850   5.314   1.902  1.8918 -1.2946 -1.1707
 5637TIP3    H238327   0.895   5.225   2.016 -1.3941  0.8397  2.0184
 5638TIP3   OH238328   0.003   4.377  12.355  1.1371 -0.0947 -0.5260
 5638TIP3    H138329   0.051   4.294  12.356  1.5257  0.1293 -0.5419
 5638TIP3    H238330   0.071   4.444  12.350  0.8594  0.2529  0.2378
 5639TIP3   OH238331   1.337   0.407   4.097 -0.5654  0.4947  0.4308
 5639TIP3    H138332   1.428   0.421   4.074 -0.7522  0.4682 -0.3656
 5639TIP3    H238333   1.287   0.446   4.025 -1.1490 -1.0626 -0.0722
 5640TIP3   OH238334   5.485   3.814   2.605  0.0631  0.4980  0.0240
 5640TIP3    H138335   5.417   3.748   2.587  0.4904  0.4338 -1.4546
 5640TIP3    H238336   5.567   3.764   2.607  0.3497  0.9260 -0.7707
 5641TIP3   OH238337   2.898   3.172   4.347 -0.2037 -0.4084  0.0858
 5641TIP3    H138338   2.839   3.188   4.273  0.2053  0.7424  0.0007
 5641TIP3    H238339   2.918   3.078   4.340 -1.2766 -0.6218 -0.4282
 5642TIP3   OH238340   1.475   0.243  12.477 -0.4044 -0.2255 -0.2231
 5642TIP3    H138341   1.488   0.148  12.483  1.4062 -0.0417 -0.7200
 5642TIP3    H238342   1.513   0.277  12.557  0.9715  0.2290 -1.0371
 5643TIP3   OH238343   0.616   1.735  13.612  0.0797 -0.2881  0.1932
 5643TIP3    H138344   0.671   1.811  13.592  2.8067 -2.1106  0.1693
 5643TIP3    H238345   0.598   1.742  13.706  2.0854 -0.6126  0.6443
 5644TIP3   OH238346   1.915   2.979  13.591 -0.1045 -0.2036 -0.0293
 5644TIP3    H138347   1.994   3.015  13.632  0.5409 -2.0829  0.4883
 5644TIP3    H238348   1.889   2.908  13.650 -3.1377  1.3423  0.6678
 5645TIP3   OH238349   1.775   2.945  14.562 -0.1585 -0.7512  0.5169
 5645TIP3    H138350   1.788   2.979  14.650  1.4422  0.0228  0.0092
 5645TIP3    H238351   1.679   2.937  14.553 -0.4755  1.4833  1.4396
 5646TIP3   OH238352   3.138   1.519  10.750  0.1184  0.1751 -0.2709
 5646TIP3    H138353   3.113   1.427  10.749 -0.1188  0.2405 -0.5457
 5646TIP3    H238354   3.172   1.534  10.839  0.1097 -0.1612 -0.2094
 5647TIP3   OH238355   0.503   1.059   5.836 -0.1652 -0.3317 -0.4861
 5647TIP3    H138356   0.568   0.993   5.861 -0.8590 -0.5107  0.8951
 5647TIP3    H238357   0.552   1.142   5.838 -0.1096 -0.3666  1.2544
 5648TIP3   OH238358   2.033   1.985  12.456  0.0992 -0.2547 -0.3045
 5648TIP3    H138359   1.974   2.035  12.513 -0.2369 -0.4849 -0.4446
 5648TIP3    H238360   2.121   2.011  12.484 -0.0598  1.1094 -0.9851
 5649TIP3   OH238361   4.994   4.444  12.073 -0.0537 -0.7204 -0.5951
 5649TIP3    H138362   4.938   4.369  12.094  0.1003 -1.0141 -1.2090
 5649TIP3    H238363   5.073   4.405  12.033 -0.1054 -0.2202 -1.2078
 5650TIP3   OH238364   3.754   6.189   2.164  0.4226 -0.7072  0.3230
 5650TIP3    H138365   3.823   6.191   2.097 -0.3508 -1.9609 -0.5621
 5650TIP3    H238366   3.719   6.100   2.160  0.3573 -0.8294  2.4459
 5651TIP3   OH238367   4.814   3.355  15.702 -0.7612  0.1028 -0.3060
 5651TIP3    H138368   4.900   3.376  15.666 -0.7178  0.5538  0.0435
 5651TIP3    H238369   4.831   3.338  15.795 -0.8500 -1.1886 -0.5192
 5652TIP3   OH238370   3.079   1.798   2.617 -0.8682  0.0489 -0.2152
 5652TIP3    H138371   3.093   1.862   2.547  1.1272 -0.6730 -0.5198
 5652TIP3    H238372   3.082   1.849   2.697  1.6971  0.2744 -0.3913
 5653TIP3   OH238373   4.470   0.517  14.792  0.1703  0.2650  0.0127
 5653TIP3    H138374   4.402   0.507  14.859 -0.5091  1.1233 -0.5403
 5653TIP3    H238375   4.521   0.436  14.798 -1.5323 -0.8695 -0.2858
 5654TIP3   OH238376   5.415   4.785  12.933  0.1587 -0.1842  0.1345
 5654TIP3    H138377   5.364   4.766  12.854 -0.8847  2.4198  0.0856
 5654TIP3    H238378   5.351   4.784  13.004  0.3814  1.0895  0.3762
 5655TIP3   OH238379   2.410   4.462  15.465 -0.0644 -0.0349  0.4640
 5655TIP3    H138380   2.384   4.427  15.380  0.4604  1.0571 -0.1619
 5655TIP3    H238381   2.386   4.393  15.527 -0.8926 -0.6501 -0.5038
 5656TIP3   OH238382   4.994   0.615  14.496 -0.0950 -0.8518 -0.6892
 5656TIP3    H138383   5.085   0.630  14.521 -0.8254  0.6790  1.2770
 5656TIP3    H238384   4.959   0.560  14.566 -1.2493  0.4767 -0.1737
 5657TIP3   OH238385   1.330   3.351  14.370  0.2029 -0.4882  0.3743
 5657TIP3    H138386   1.364   3.394  14.292  0.2630  0.6055  0.9755
 5657TIP3    H238387   1.235   3.355  14.359  0.0771  2.1951  1.5785
 5658TIP3   OH238388   2.392   6.212   2.453  0.1412 -0.2373 -0.4979
 5658TIP3    H138389   2.438   6.145   2.503 -1.9370 -0.7125  0.9082
 5658TIP3    H238390   2.302   6.208   2.485 -0.7769  1.0152 -2.7143
 5659TIP3   OH238391   6.536   3.288   6.323  0.4664  0.3620 -0.0482
 5659TIP3    H138392   6.456   3.243   6.295  0.5206 -0.6067  1.2521
 5659TIP3    H238393   6.599   3.270   6.253  0.6040 -1.9742  0.5911
 5660TIP3   OH238394   5.268   0.602   3.091 -0.1578 -0.4639 -0.4860
 5660TIP3    H138395   5.277   0.634   3.001 -1.2288  0.2046 -0.3732
 5660TIP3    H238396   5.179   0.568   3.096 -1.2084  2.2018  1.1011
 5661TIP3   OH238397   3.356   4.135  14.753  0.5486  0.6401  0.0118
 5661TIP3    H138398   3.388   4.204  14.812 -0.3444  0.5798  0.5834
 5661TIP3    H238399   3.266   4.119  14.781  0.0038  0.8024 -1.5621
 5662TIP3   OH238400   6.451   2.127   1.219 -0.1080  0.2028  0.0315
 5662TIP3    H138401   6.360   2.116   1.245 -0.5100  0.4738 -1.2069
 5662TIP3    H238402   6.482   2.202   1.270 -1.1133  1.2250 -0.8214
 5663TIP3   OH238403   5.371   6.640   1.025  0.5410 -0.3227  0.0615
 5663TIP3    H138404   5.370   6.639   1.121 -1.0664 -1.5659  0.0993
 5663TIP3    H238405   5.421   6.717   1.001  2.0825 -0.6966  1.8933
 5664TIP3   OH238406   5.277   4.248   2.616 -0.2405  0.7766 -0.3097
 5664TIP3    H138407   5.352   4.220   2.563 -1.2482  0.6262 -1.6911
 5664TIP3    H238408   5.230   4.167   2.635  0.0072  0.8534  0.6885
 5665TIP3   OH238409   1.943   5.186   1.609  0.6068  0.6355 -0.0729
 5665TIP3    H138410   1.880   5.129   1.564  1.6083  0.5172 -1.3820
 5665TIP3    H238411   1.898   5.213   1.689 -1.4869  1.2920 -1.3858
 5666TIP3   OH238412   3.054   3.320   1.958  0.5105 -0.3319 -0.7861
 5666TIP3    H138413   3.004   3.241   1.978 -1.1053  0.5845 -1.0483
 5666TIP3    H238414   3.085   3.307   1.868 -0.2935 -0.4048 -1.0597
 5667TIP3   OH238415   0.900   3.843   2.004  0.0507 -0.0328 -0.0666
 5667TIP3    H138416   0.925   3.841   2.097  0.4948 -2.1204 -0.1761
 5667TIP3    H238417   0.897   3.936   1.982  2.0952  0.4700  1.4763
 5668TIP3   OH238418   1.793   4.780   0.398  0.3914 -0.4965  0.4730
 5668TIP3    H138419   1.835   4.696   0.419 -1.0103 -1.9975 -2.2029
 5668TIP3    H238420   1.704   4.770   0.431 -0.4638 -1.0549 -1.8643
 5669TIP3   OH238421   0.560   6.532  15.075  0.1370  0.0755  0.9582
 5669TIP3    H138422   0.625   6.578  15.126 -0.1277  1.4856  0.0728
 5669TIP3    H238423   0.608   6.461  15.032  1.4287  1.8964 -0.7545
 5670TIP3   OH238424   5.529   6.409  15.930 -0.4320  0.1619 -0.5027
 5670TIP3    H138425   5.613   6.386  15.969 -0.4972 -1.2690 -1.1463
 5670TIP3    H238426   5.545   6.493  15.887  0.4825  0.2204 -0.0804
 5671TIP3   OH238427   1.861   2.128  15.862  0.1654 -0.0709  0.3073
 5671TIP3    H138428   1.805   2.058  15.895 -1.7292  1.2569  0.0234
 5671TIP3    H238429   1.939   2.125  15.918 -1.1287 -0.5569  2.1623
 5672TIP3   OH238430   5.095   6.741   1.458 -0.2453  0.0026  0.2276
 5672TIP3    H138431   5.060   6.765   1.544  0.4377 -0.5897  0.6898
 5672TIP3    H238432   5.078   6.647   1.451  0.1900 -0.0580 -0.0529
 5673TIP3   OH238433   5.546   3.839  11.080 -0.1831  0.8231 -0.1475
 5673TIP3    H138434   5.569   3.811  11.168 -0.3577  2.0449  0.3039
 5673TIP3    H238435   5.531   3.757  11.032  1.6026  0.0932  0.4664
 5674TIP3   OH238436   1.487   4.732   1.027 -0.0359  0.1369  0.4514
 5674TIP3    H138437   1.567   4.747   1.077 -0.5387  0.0575  1.3069
 5674TIP3    H238438   1.498   4.785   0.948  1.6833 -1.3668 -0.3842
 5675TIP3   OH238439   0.760   6.640   6.324 -0.1179 -0.3913 -0.2447
 5675TIP3    H138440   0.739   6.604   6.410 -1.4589 -1.7593 -1.0884
 5675TIP3    H238441   0.842   6.597   6.299  0.4665  0.2787  0.4695
 5676TIP3   OH238442   4.101   2.318   3.649  0.0498 -0.9039  0.6434
 5676TIP3    H138443   4.171   2.259   3.676 -0.0202 -0.8342  0.9869
 5676TIP3    H238444   4.080   2.367   3.729  2.3017  1.8800 -0.2645
 5677TIP3   OH238445   4.859   2.249   1.999 -0.6572  0.2861  0.6156
 5677TIP3    H138446   4.826   2.168   1.961  1.4316 -1.0910  1.5543
 5677TIP3    H238447   4.782   2.290   2.039 -1.6862 -1.4646  0.5169
 5678TIP3   OH238448   3.633   2.593   5.616 -0.0523 -0.3806  0.6167
 5678TIP3    H138449   3.714   2.638   5.640  0.5084 -0.1416 -1.5276
 5678TIP3    H238450   3.656   2.543   5.538 -1.9851 -0.2321 -0.0964
 5679TIP3   OH238451   4.931   1.413   4.540 -0.2396 -0.1930  0.2121
 5679TIP3    H138452   5.011   1.465   4.550  0.6302 -1.2292 -0.9895
 5679TIP3    H238453   4.866   1.459   4.593  0.9853  1.0193  0.7399
 5680TIP3   OH238454   4.985   2.899  16.772 -0.2256  0.0830 -0.0180
 5680TIP3    H138455   5.024   2.877  16.857 -0.7132 -0.3809  0.0900
 5680TIP3    H238456   4.974   2.994  16.774  0.1370  0.1215  0.2732
 5681TIP3   OH238457   4.990   5.848  12.914 -0.0190 -0.1584  0.4692
 5681TIP3    H138458   5.084   5.848  12.934  0.1315 -0.5677 -0.2102
 5681TIP3    H238459   4.947   5.857  12.999  0.6167 -0.8134  0.8650
 5682TIP3   OH238460   0.346   0.322   2.374  0.1336  0.7947  0.8731
 5682TIP3    H138461   0.281   0.355   2.436 -1.3954 -1.1461  0.4181
 5682TIP3    H238462   0.380   0.243   2.415 -0.0451  0.1364 -0.2044
 5683TIP3   OH238463   5.170   2.730   3.151 -0.4205 -0.0048  0.3052
 5683TIP3    H138464   5.086   2.690   3.130 -0.9796  0.6212  1.2953
 5683TIP3    H238465   5.189   2.787   3.076 -0.9571 -0.0156  0.1553
 5684TIP3   OH238466   1.336   6.644   1.687 -0.1083  0.0595 -0.3188
 5684TIP3    H138467   1.361   6.736   1.680 -1.9959  0.7617  1.2853
 5684TIP3    H238468   1.354   6.622   1.779 -2.7366 -0.1225  0.2390
 5685TIP3   OH238469   1.799   1.667  15.430  0.2117  0.4045  0.2850
 5685TIP3    H138470   1.873   1.686  15.489  0.6605  0.5447 -0.3208
 5685TIP3    H238471   1.738   1.740  15.445  0.4708  0.6119  0.3362
 5686TIP3   OH238472   3.647   5.585   1.232 -0.2308  0.7174  0.1913
 5686TIP3    H138473   3.727   5.540   1.205  0.4648  2.0194 -0.0285
 5686TIP3    H238474   3.656   5.596   1.327 -0.1730  0.8027  0.1764
 5687TIP3   OH238475   3.540   0.526   0.419 -0.4481 -0.3859 -0.6757
 5687TIP3    H138476   3.621   0.503   0.465  1.2031  1.2243 -2.5546
 5687TIP3    H238477   3.494   0.586   0.479  1.5044  1.4498 -0.8876
 5688TIP3   OH238478   6.358   2.834   4.694 -0.2762 -0.4123 -0.0357
 5688TIP3    H138479   6.400   2.918   4.712 -0.3017 -0.4988  0.4489
 5688TIP3    H238480   6.406   2.799   4.619  1.0018 -0.8269  0.9300
 5689TIP3   OH238481   1.405   2.493  17.174  0.3228 -0.3575  0.7804
 5689TIP3    H138482   1.430   2.585  17.190  0.7186 -0.0480 -1.3426
 5689TIP3    H238483   1.345   2.497  17.100  2.1823 -1.9599 -0.9280
 5690TIP3   OH238484   2.326   0.474  13.731  0.5416 -0.3223  0.5640
 5690TIP3    H138485   2.372   0.558  13.734  0.7750 -0.4326  0.0679
 5690TIP3    H238486   2.330   0.447  13.639 -1.4248  0.1660  0.2944
 5691TIP3   OH238487   0.218   6.304   3.422  0.5538  0.2044  0.1424
 5691TIP3    H138488   0.218   6.242   3.495  1.5578 -2.1571 -1.7354
 5691TIP3    H238489   0.310   6.314   3.398  0.3893  2.1995  0.1370
 5692TIP3   OH238490   1.165   0.004   2.470 -0.0360 -0.3050 -0.2383
 5692TIP3    H138491   1.254   0.007   2.505 -0.8921  0.1572  2.1146
 5692TIP3    H238492   1.115  -0.043   2.537 -1.8198  0.6523 -0.8354
 5693TIP3   OH238493   5.036   0.346   0.609  0.9123 -0.0230  0.5413
 5693TIP3    H138494   4.968   0.413   0.618 -0.2839 -0.8235 -1.6414
 5693TIP3    H238495   5.091   0.378   0.538 -0.2597 -1.6913 -1.2400
 5694TIP3   OH238496   5.194   3.649   0.886 -0.1190 -0.3668  0.0228
 5694TIP3    H138497   5.149   3.700   0.954 -1.0320 -0.4770 -0.4840
 5694TIP3    H238498   5.280   3.689   0.879 -0.6129  0.7261  0.0588
 5695TIP3   OH238499   1.602   5.570   0.626 -0.0123  0.0497 -0.6781
 5695TIP3    H138500   1.590   5.478   0.648  3.1059 -0.1606  0.5557
 5695TIP3    H238501   1.596   5.616   0.710  0.6648  0.6877 -0.9678
 5696TIP3   OH238502   2.321   4.611   3.267 -0.9691 -0.0688  0.5632
 5696TIP3    H138503   2.231   4.633   3.292 -0.5432  0.8926  1.3134
 5696TIP3    H238504   2.312   4.571   3.180 -1.9995  1.2471  0.0204
 5697TIP3   OH238505   3.268   1.880  11.819  0.1890 -0.1160 -0.0853
 5697TIP3    H138506   3.258   1.803  11.764 -0.5315  0.1968 -0.4052
 5697TIP3    H238507   3.225   1.950  11.770  0.6324  0.4365  0.3056
 5698TIP3   OH238508   5.102   5.617   5.279  0.2391 -0.2536 -0.4226
 5698TIP3    H138509   5.193   5.644   5.273  0.1065  0.2127 -0.3507
 5698TIP3    H238510   5.099   5.559   5.355  0.6706 -1.0899 -1.0271
 5699TIP3   OH238511   5.399   4.872  12.056  0.2896  0.0087  0.0461
 5699TIP3    H138512   5.481   4.870  12.007  0.1492 -1.6313 -0.1741
 5699TIP3    H238513   5.345   4.937  12.010  1.4911  1.2289  0.2980
 5700TIP3   OH238514   2.090   4.741  12.181  0.0841  0.0567  0.4635
 5700TIP3    H138515   2.071   4.834  12.169  0.8526  0.3643  1.4705
 5700TIP3    H238516   2.066   4.700  12.098  0.8601  1.3339 -0.4125
 5701TIP3   OH238517   5.890   5.355  13.706  0.5504  0.3344 -0.2078
 5701TIP3    H138518   5.973   5.327  13.668  0.7692  1.1579 -0.3719
 5701TIP3    H238519   5.828   5.352  13.633 -0.2509 -2.8211  0.4654
 5702TIP3   OH238520   3.987   4.207  13.050  0.1430 -0.7317  0.3270
 5702TIP3    H138521   4.031   4.133  13.092 -0.4264 -0.3143  1.7129
 5702TIP3    H238522   3.896   4.179  13.041  0.2641 -0.8327 -0.7065
 5703TIP3   OH238523   2.874   2.921   0.005 -0.5824  0.0359  0.1826
 5703TIP3    H138524   2.838   2.833  -0.003 -0.6376  0.0232  0.5468
 5703TIP3    H238525   2.821   2.974  -0.054 -1.1635  0.0053  0.6669
 5704TIP3   OH238526   5.253   1.074  17.024  0.2875  0.0811  0.2807
 5704TIP3    H138527   5.296   1.038  17.101  2.7486  1.8522 -0.1594
 5704TIP3    H238528   5.273   1.012  16.954  1.8405  0.6815  0.1703
 5705TIP3   OH238529   4.961   6.394  16.903 -0.2350  0.2105 -0.4990
 5705TIP3    H138530   4.899   6.467  16.905 -0.6917 -0.1725  0.1527
 5705TIP3    H238531   4.980   6.377  16.996  1.4757  0.8290 -0.7077
 5706TIP3   OH238532   3.525   6.133   2.378 -0.1786 -0.6556  0.1849
 5706TIP3    H138533   3.578   6.201   2.337  0.6220 -1.8925 -0.8898
 5706TIP3    H238534   3.530   6.153   2.472  1.4885 -0.2146  0.0471
 5707TIP3   OH238535   6.242   2.902   2.824 -0.5816  0.1595  0.3336
 5707TIP3    H138536   6.278   2.879   2.909 -1.4481  0.2567  0.7357
 5707TIP3    H238537   6.211   2.992   2.834 -0.6016  0.2065 -0.1145
 5708TIP3   OH238538   0.594   6.100  15.135  0.0100 -0.5890 -0.1291
 5708TIP3    H138539   0.637   6.141  15.060  0.3203 -1.0536 -0.2073
 5708TIP3    H238540   0.632   6.143  15.211  0.1619 -0.5635 -0.2181
 5709TIP3   OH238541   5.667   4.551   0.118  0.1877 -0.1937 -0.2842
 5709TIP3    H138542   5.747   4.517   0.077  0.6841  0.8255 -0.1842
 5709TIP3    H238543   5.602   4.481   0.105  0.7162 -0.4694 -1.5633
 5710TIP3   OH238544   3.671   5.863  12.623 -0.3300 -0.1903  0.0353
 5710TIP3    H138545   3.681   5.824  12.710 -0.1145 -0.7365 -0.2310
 5710TIP3    H238546   3.694   5.955  12.636 -1.5755  0.0501  0.8288
 5711TIP3   OH238547   0.633   0.395   3.039  0.3767  0.2238  0.2805
 5711TIP3    H138548   0.636   0.462   2.971 -0.3927 -1.0171 -1.0324
 5711TIP3    H238549   0.645   0.312   2.992  0.9468 -0.6014  1.8033
 5712TIP3   OH238550   4.978   1.333  11.163 -0.1002 -0.2388 -0.2553
 5712TIP3    H138551   5.036   1.260  11.145 -1.5711 -1.4201 -0.4525
 5712TIP3    H238552   5.015   1.376  11.240  2.5640  0.8110 -1.9938
 5713TIP3   OH238553   2.585   3.937   6.154  0.3796  0.4058  0.8516
 5713TIP3    H138554   2.558   4.029   6.158 -0.2397  0.2003  1.6439
 5713TIP3    H238555   2.505   3.888   6.171  0.6315 -0.2982  0.0677
 5714TIP3   OH238556   0.525   1.380  12.041  0.3369  0.2435 -0.5484
 5714TIP3    H138557   0.479   1.453  11.999 -0.6453 -0.7463 -1.2466
 5714TIP3    H238558   0.460   1.310  12.046  1.3099 -0.6520 -0.0747
 5715TIP3   OH238559   5.093   3.720  12.908  0.0630  0.1869 -0.0722
 5715TIP3    H138560   5.067   3.744  12.819 -0.8987  0.4680  0.2713
 5715TIP3    H238561   5.178   3.761  12.920  0.4040 -0.2225 -1.0130
 5716TIP3   OH238562   6.306   0.761  13.674  0.4258 -0.0647 -0.3046
 5716TIP3    H138563   6.283   0.842  13.720  2.2071  1.5243 -2.0039
 5716TIP3    H238564   6.246   0.695  13.709 -1.5491  2.1212  0.6653
 5717TIP3   OH238565   2.772   0.480   4.825 -0.5466 -0.1422 -0.6553
 5717TIP3    H138566   2.856   0.483   4.870  0.5072 -0.8695 -2.4684
 5717TIP3    H238567   2.711   0.524   4.885  1.1553  0.6234  0.5997
 5718TIP3   OH238568   0.660   5.903  15.549  0.1100  0.6657 -0.4171
 5718TIP3    H138569   0.710   5.906  15.468 -1.4094  0.3771 -1.4137
 5718TIP3    H238570   0.571   5.927  15.523 -0.0782  2.2172  1.4688
 5719TIP3   OH238571   5.067   5.536   1.124 -0.0441  0.2537 -0.4251
 5719TIP3    H138572   5.101   5.538   1.034 -1.2627  0.1923 -0.9005
 5719TIP3    H238573   5.143   5.510   1.177  0.6883  0.2601 -1.4302
 5720TIP3   OH238574   1.793   5.548   1.729 -0.4454  0.1533  0.3257
 5720TIP3    H138575   1.818   5.575   1.641  0.6521 -1.4986  0.0975
 5720TIP3    H238576   1.697   5.551   1.728 -0.5359 -1.5087 -1.5018
 5721TIP3   OH238577   6.337   6.237  12.211 -0.0702 -0.1906  0.5814
 5721TIP3    H138578   6.408   6.261  12.270 -0.9104  0.8577  1.1819
 5721TIP3    H238579   6.316   6.146  12.235  0.8359 -0.4000  0.6136
 5722TIP3   OH238580   3.834   2.783   3.202 -0.1779  0.0916 -0.1871
 5722TIP3    H138581   3.862   2.861   3.250  1.0106 -1.0992  1.1497
 5722TIP3    H238582   3.807   2.721   3.270  1.1759 -1.5251 -1.0550
 5723TIP3   OH238583   1.722   2.959  13.180 -0.2168 -0.7953 -0.4228
 5723TIP3    H138584   1.798   2.947  13.123 -1.0920  1.3032 -2.1991
 5723TIP3    H238585   1.745   3.034  13.235 -1.0117 -0.0674 -1.0559
 5724TIP3   OH238586   3.643   1.346  17.071  0.3958  0.4057  0.2255
 5724TIP3    H138587   3.637   1.258  17.107 -0.5217 -0.1979 -1.3415
 5724TIP3    H238588   3.614   1.338  16.980 -1.6551  2.6410  0.5708
 5725TIP3   OH238589   2.932   2.732  16.131  1.1203 -0.1540  0.3994
 5725TIP3    H138590   2.848   2.777  16.132  1.2247  0.0514 -0.0778
 5725TIP3    H238591   2.941   2.698  16.042  1.3376 -0.5674  0.5726
 5726TIP3   OH238592   6.051   5.503   0.715  0.1887 -0.0271 -0.4802
 5726TIP3    H138593   5.960   5.473   0.721  0.3071 -0.5559 -1.1056
 5726TIP3    H238594   6.073   5.533   0.803 -0.3774 -0.5327 -0.1607
 5727TIP3   OH238595   4.116   3.573   3.139  0.6237  0.1830  0.0765
 5727TIP3    H138596   4.177   3.616   3.079 -0.2000  0.4609 -0.5820
 5727TIP3    H238597   4.045   3.635   3.150  0.9851  0.3312  1.7484
 5728TIP3   OH238598   4.494   3.490  13.090 -0.1482  0.1270  0.1633
 5728TIP3    H138599   4.539   3.410  13.064  1.1530  0.6490  0.7167
 5728TIP3    H238600   4.562   3.543  13.132 -1.3173  0.8763  1.1899
 5729TIP3   OH238601   4.167   5.422  10.453 -0.2393 -0.3822  0.2298
 5729TIP3    H138602   4.183   5.336  10.415  0.7283 -0.7450  1.3710
 5729TIP3    H238603   4.250   5.469  10.440 -0.6079  0.2141  0.0284
 5730TIP3   OH238604   4.461   5.473   1.934  0.2020 -0.5946  0.4642
 5730TIP3    H138605   4.485   5.565   1.930 -1.4635 -0.0827  1.2328
 5730TIP3    H238606   4.452   5.446   1.843  0.2634  0.1236  0.2388
 5731TIP3   OH238607   4.831   0.061  16.588 -0.0401 -0.1790 -0.3266
 5731TIP3    H138608   4.861   0.046  16.498  0.9847 -0.4576  0.0542
 5731TIP3    H238609   4.901   0.027  16.643  0.5599  2.3106  0.5888
 5732TIP3   OH238610   5.318   1.525   1.257  0.3594 -0.1061 -0.4366
 5732TIP3    H138611   5.244   1.470   1.229 -1.1140  1.2123  0.6812
 5732TIP3    H238612   5.305   1.607   1.210  0.6149  0.4427  0.4323
 5733TIP3   OH238613   4.165   3.011  14.387  0.9830  0.1162  0.1504
 5733TIP3    H138614   4.203   3.033  14.472  1.1547 -0.7033  0.3004
 5733TIP3    H238615   4.225   3.050  14.323  1.6175 -0.4271  0.3986
 5734TIP3   OH238616   5.527   3.689  13.850 -0.0113 -0.1714 -0.3422
 5734TIP3    H138617   5.567   3.766  13.891  3.9741 -0.8982 -2.3878
 5734TIP3    H238618   5.483   3.644  13.922 -1.6023  3.3375  1.1451
 5735TIP3   OH238619   6.363   0.424   3.879 -0.1136  0.3181  0.0139
 5735TIP3    H138620   6.273   0.396   3.894  0.6603 -1.8852  1.0736
 5735TIP3    H238621   6.407   0.408   3.963  1.5125  0.2563 -0.8045
 5736TIP3   OH238622   1.932   2.842   5.876 -0.1954 -0.3026 -0.5668
 5736TIP3    H138623   2.008   2.890   5.911 -0.3050  0.9681 -1.9561
 5736TIP3    H238624   1.880   2.820   5.953  1.0220 -0.2131  0.3153
 5737TIP3   OH238625   5.267   5.011  11.025  0.4798  0.1315  0.3984
 5737TIP3    H138626   5.268   4.916  11.034 -0.5813  0.0748  0.0577
 5737TIP3    H238627   5.294   5.044  11.111 -1.7978 -0.4626  1.4092
 5738TIP3   OH238628   6.119   2.404   4.188 -0.2177  0.3457 -0.2152
 5738TIP3    H138629   6.163   2.330   4.229  0.8710  1.8563  1.4730
 5738TIP3    H238630   6.054   2.432   4.252  1.8492  3.0630  0.8919
 5739TIP3   OH238631   1.540   5.658   6.466  0.0226 -0.0840  0.1741
 5739TIP3    H138632   1.567   5.571   6.495  0.2262 -0.0494  0.0885
 5739TIP3    H238633   1.455   5.644   6.424  0.5811 -0.4177 -0.8623
 5740TIP3   OH238634   1.064   5.424   2.471 -0.1358 -0.0748  0.2685
 5740TIP3    H138635   1.049   5.500   2.414 -2.4234 -1.4712 -1.1477
 5740TIP3    H238636   1.077   5.351   2.411  1.3253 -0.9741  1.5977
 5741TIP3   OH238637   0.575   4.646   0.836  0.0156  0.1509  0.0994
 5741TIP3    H138638   0.612   4.608   0.757 -1.0271 -0.1036 -0.2868
 5741TIP3    H238639   0.559   4.738   0.813  1.3403  0.5352  0.6109
 5742TIP3   OH238640   1.583   3.300  11.557 -0.2660 -0.0805  0.3757
 5742TIP3    H138641   1.599   3.342  11.642  3.1909  2.4977 -1.3137
 5742TIP3    H238642   1.515   3.353  11.517 -0.6504 -0.2297  0.8146
 5743TIP3   OH238643   2.858   1.490   0.869 -0.7063 -0.7472  0.4638
 5743TIP3    H138644   2.850   1.414   0.926 -1.7206 -0.3931  0.8169
 5743TIP3    H238645   2.946   1.483   0.832 -0.6834 -1.9344  0.7021
 5744TIP3   OH238646   1.266   4.071  11.575  0.6648 -0.2655  0.0207
 5744TIP3    H138647   1.172   4.056  11.572  0.4782  0.5189  1.1532
 5744TIP3    H238648   1.291   4.045  11.664  1.2571  0.8941  0.2024
 5745TIP3   OH238649   3.583   0.562  16.840  0.0638 -0.0198 -0.3680
 5745TIP3    H138650   3.597   0.655  16.819 -2.0393  0.3027 -0.5475
 5745TIP3    H238651   3.658   0.517  16.802  0.2495  1.4291 -1.8107
 5746TIP3   OH238652   1.387   4.924  16.553  0.3938 -0.1251 -0.0396
 5746TIP3    H138653   1.469   4.885  16.584 -0.0788  0.1364  1.6343
 5746TIP3    H238654   1.383   5.009  16.597 -0.7036 -0.0633 -0.2313
 5747TIP3   OH238655   1.020   6.282  12.216 -0.5268  0.3412 -0.0666
 5747TIP3    H138656   1.100   6.328  12.242 -1.4309  0.7085  2.3400
 5747TIP3    H238657   1.025   6.199  12.263 -1.0700 -0.0744 -0.7421
 5748TIP3   OH238658   4.117   3.171  14.830 -0.0952  0.0384 -0.0320
 5748TIP3    H138659   4.090   3.255  14.867  1.3625  1.5108 -2.0947
 5748TIP3    H238660   4.211   3.168  14.844 -0.2276 -1.7047  0.7429
 5749TIP3   OH238661   0.613   6.672   2.349 -0.8006  0.2083  0.1307
 5749TIP3    H138662   0.590   6.586   2.316 -0.2276  0.4193 -0.8479
 5749TIP3    H238663   0.677   6.655   2.418 -0.6371 -0.1495 -0.1085
 5750TIP3   OH238664   5.145   1.352   1.146 -0.0263 -0.3341 -0.4031
 5750TIP3    H138665   5.079   1.308   1.092  0.4241  1.1112 -2.2547
 5750TIP3    H238666   5.212   1.286   1.161 -1.0465 -1.3162  0.0161
 5751TIP3   OH238667   3.404   3.950   1.070 -0.5163  0.8219  0.2524
 5751TIP3    H138668   3.483   3.897   1.067 -0.6114  0.4247  2.7388
 5751TIP3    H238669   3.332   3.887   1.062 -0.7409  1.2997 -3.5360
 5752TIP3   OH238670   4.323   5.319   0.911 -0.6537  0.2673 -0.4778
 5752TIP3    H138671   4.230   5.338   0.926 -0.1501  1.9557  0.8363
 5752TIP3    H238672   4.369   5.387   0.961  1.2902 -0.2707 -1.4731
 5753TIP3   OH238673   2.750   5.734  13.915 -0.2889  0.6375  0.2639
 5753TIP3    H138674   2.676   5.793  13.928 -0.3741  0.4878  0.4543
 5753TIP3    H238675   2.740   5.668  13.983 -0.2631  0.3319 -0.0305
 5754TIP3   OH238676   2.765   0.783  16.345  0.4381 -0.4098  0.6640
 5754TIP3    H138677   2.686   0.789  16.399  0.9460  1.2865  1.3029
 5754TIP3    H238678   2.832   0.750  16.405  0.4699 -0.7631  0.4314
 5755TIP3   OH238679   2.599   3.281   5.454  0.2768 -0.0673  0.3014
 5755TIP3    H138680   2.692   3.288   5.431  0.4613 -1.9222  0.2942
 5755TIP3    H238681   2.597   3.214   5.523 -1.2813 -2.2029 -1.6755
 5756TIP3   OH238682   6.132   2.338   6.115  0.1066  0.4647 -0.5587
 5756TIP3    H138683   6.118   2.427   6.147  1.2875  0.5643 -0.2736
 5756TIP3    H238684   6.113   2.282   6.190 -1.3912  0.4001 -0.9508
 5757TIP3   OH238685   2.789   5.165   2.862  0.0458  0.7604  0.3951
 5757TIP3    H138686   2.861   5.109   2.834  0.4283  1.2745  0.3407
 5757TIP3    H238687   2.783   5.152   2.956  0.2034  0.7100  0.3969
 5758TIP3   OH238688   0.360   1.780   4.900 -0.4847  0.1518  0.2055
 5758TIP3    H138689   0.265   1.769   4.898 -0.4225 -0.4993 -1.8573
 5758TIP3    H238690   0.373   1.869   4.931 -1.7171 -0.0150  1.2883
 5759TIP3   OH238691   5.720   2.732  15.761  0.3159  0.0774  0.6109
 5759TIP3    H138692   5.630   2.766  15.759  0.3753  0.5742  3.1352
 5759TIP3    H238693   5.711   2.643  15.795  0.7402 -0.0637  0.3552
 5760TIP3   OH238694   4.396   4.393  12.471  0.6154  0.3517  0.1935
 5760TIP3    H138695   4.436   4.309  12.495  1.4228 -0.6940 -3.9629
 5760TIP3    H238696   4.306   4.371  12.448  0.2994  1.0190  0.7491
 5761TIP3   OH238697   3.939   1.665  17.000 -0.1826 -1.2698  0.3001
 5761TIP3    H138698   3.889   1.731  16.952  0.6301 -0.6608  0.2710
 5761TIP3    H238699   4.013   1.713  17.037 -0.5184 -1.8049  1.7681
 5762TIP3   OH238700   4.784   4.965  11.246  0.7124  0.1424 -0.2023
 5762TIP3    H138701   4.866   4.928  11.213  0.5101 -0.6744  0.1802
 5762TIP3    H238702   4.776   5.050  11.202  0.2195 -1.0695 -2.6506
 5763TIP3   OH238703   1.783   6.442   0.618 -0.0597 -0.6531 -0.4780
 5763TIP3    H138704   1.697   6.448   0.576 -1.1136  1.1465  1.7184
 5763TIP3    H238705   1.768   6.384   0.693  0.8128 -0.8108 -0.4213
 5764TIP3   OH238706   2.355   0.881  15.911  0.2941  0.1786 -0.0577
 5764TIP3    H138707   2.444   0.913  15.898 -0.0095  1.1143  0.0653
 5764TIP3    H238708   2.309   0.955  15.952 -0.8323  0.1353 -1.1864
 5765TIP3   OH238709   3.455   4.010  15.388  0.4085  0.1418  0.7829
 5765TIP3    H138710   3.491   4.051  15.309  0.7680  0.8785  1.3161
 5765TIP3    H238711   3.387   4.070  15.417  0.3992 -0.0344  1.1325
 5766TIP3   OH238712   5.783   2.333   1.268  0.6360 -0.3332 -0.2815
 5766TIP3    H138713   5.852   2.295   1.322  2.0383  2.2941 -0.0507
 5766TIP3    H238714   5.712   2.351   1.329  0.3574 -1.6018 -0.2165
 5767TIP3   OH238715   3.494   1.258  14.660 -0.1529  0.2164 -0.2050
 5767TIP3    H138716   3.424   1.309  14.617  0.0487  0.6343 -0.0376
 5767TIP3    H238717   3.448   1.203  14.723 -0.4979 -0.6671 -1.1822
 5768TIP3   OH238718   4.872   2.242  14.982 -0.0830  0.5539 -0.0308
 5768TIP3    H138719   4.863   2.199  14.896 -0.9911  0.9719 -0.1566
 5768TIP3    H238720   4.965   2.261  14.989  0.2122 -0.6628 -0.3495
 5769TIP3   OH238721   2.699   6.451  16.966 -0.3744  0.0046  0.1616
 5769TIP3    H138722   2.779   6.465  17.018 -0.6717  1.0317  0.3599
 5769TIP3    H238723   2.670   6.363  16.990  0.5391 -0.2660  0.3051
 5770TIP3   OH238724   2.678   2.254   0.564 -0.2385 -0.4523 -0.0011
 5770TIP3    H138725   2.698   2.321   0.499  1.0204 -0.1246  0.6982
 5770TIP3    H238726   2.738   2.182   0.545 -0.0345 -0.4573  0.6413
 5771TIP3   OH238727   0.890   2.806   5.520 -0.6920 -0.1962  0.2398
 5771TIP3    H138728   0.970   2.758   5.539  0.6694  1.7222 -0.3091
 5771TIP3    H238729   0.919   2.882   5.469 -3.0755 -0.3084 -1.4549
 5772TIP3   OH238730   6.137   1.454   0.483  0.2322  0.3583 -0.4603
 5772TIP3    H138731   6.167   1.422   0.398  2.2716  0.6511  0.0852
 5772TIP3    H238732   6.188   1.533   0.498 -1.2270  1.1801  0.3679
 5773TIP3   OH238733   0.215   5.332  11.296 -0.2416 -0.1925  0.2536
 5773TIP3    H138734   0.158   5.262  11.263  1.8752 -1.2235 -1.5143
 5773TIP3    H238735   0.216   5.396  11.225  0.7694 -0.2105  0.2360
 5774TIP3   OH238736   5.818   2.061   1.670 -0.6019  0.0970  0.7179
 5774TIP3    H138737   5.910   2.060   1.699 -0.2925 -0.0456 -0.2196
 5774TIP3    H238738   5.790   1.969   1.677 -0.2676 -0.0921 -0.1603
 5775TIP3   OH238739   1.917   3.511  15.446  0.4293  0.7315 -0.0023
 5775TIP3    H138740   1.919   3.421  15.414  4.0822  0.6035  0.1307
 5775TIP3    H238741   1.826   3.539  15.434 -0.4632 -2.3745 -1.6252
 5776TIP3   OH238742   5.898   5.505   5.217  0.3216  0.4094  0.5021
 5776TIP3    H138743   5.879   5.598   5.204 -1.1919  0.3111  1.7011
 5776TIP3    H238744   5.961   5.502   5.289  1.4960  0.5355 -0.4841
 5777TIP3   OH238745   2.174   3.897   3.070  0.0891  0.1231  0.2655
 5777TIP3    H138746   2.160   3.808   3.039  0.8107  0.0357  0.1693
 5777TIP3    H238747   2.269   3.909   3.067 -0.0237  1.0283 -0.0912
 5778TIP3   OH238748   4.487   2.273  12.992 -0.2256  0.3784 -0.0955
 5778TIP3    H138749   4.479   2.204  12.926 -1.3835  0.9229 -0.5527
 5778TIP3    H238750   4.575   2.261  13.029 -0.9063 -2.3087  0.9275
 5779TIP3   OH238751   0.904   2.746   4.962  0.0837 -0.6594  0.0880
 5779TIP3    H138752   0.894   2.787   4.876 -0.2728 -1.2746 -0.1690
 5779TIP3    H238753   0.954   2.666   4.944  1.0081 -0.2143  0.6221
 5780TIP3   OH238754   2.760   2.087   5.459  0.0236 -0.1736  0.0880
 5780TIP3    H138755   2.836   2.143   5.470  1.2488 -1.5140 -1.1545
 5780TIP3    H238756   2.688   2.148   5.441  1.1609  1.0465 -0.5254
 5781TIP3   OH238757   3.847   2.176   6.411 -0.0138 -0.0522 -0.1732
 5781TIP3    H138758   3.790   2.108   6.376  0.1360  0.0431 -0.6083
 5781TIP3    H238759   3.864   2.234   6.337  2.3194 -1.1814 -0.6004
 5782TIP3   OH238760   0.821   5.344   5.551  0.3947  0.3553  0.4877
 5782TIP3    H138761   0.840   5.429   5.509  1.6081 -0.2315 -0.2101
 5782TIP3    H238762   0.870   5.281   5.499  1.9877 -0.4293  2.8000
 5783TIP3   OH238763   2.832   4.460  17.178  0.1235  0.1931  0.1098
 5783TIP3    H138764   2.922   4.489  17.192  0.6114 -0.6177 -1.1598
 5783TIP3    H238765   2.832   4.367  17.204  0.5110 -0.7307 -2.8117
 5784TIP3   OH238766   4.961   4.890  11.776 -0.3370  0.1933 -0.3007
 5784TIP3    H138767   4.949   4.814  11.834 -1.1552  0.8083  0.3677
 5784TIP3    H238768   4.953   4.855  11.688 -1.3690 -0.3990  0.0170
 5785TIP3   OH238769   0.264   4.623   0.755  0.2625 -0.4280 -0.2733
 5785TIP3    H138770   0.261   4.609   0.661 -0.3797  2.3937 -0.7660
 5785TIP3    H238771   0.335   4.686   0.767 -0.5709  0.3220  0.9323
 5786TIP3   OH238772   0.256   5.651   0.395  0.1428  0.2897 -0.2675
 5786TIP3    H138773   0.262   5.557   0.383 -0.0096  0.3449 -0.8110
 5786TIP3    H238774   0.347   5.680   0.405  0.2992  0.2355 -1.3687
 5787TIP3   OH238775   6.569   2.578   3.586 -0.4437  0.3775  1.0029
 5787TIP3    H138776   6.551   2.582   3.492 -0.5903 -0.0588  1.0078
 5787TIP3    H238777   6.485   2.596   3.628 -0.6166 -0.4558  1.0360
 5788TIP3   OH238778   5.085   1.524   0.379  0.3150 -0.5376 -0.3838
 5788TIP3    H138779   5.166   1.486   0.346  0.4674 -0.0913 -0.5354
 5788TIP3    H238780   5.083   1.500   0.472 -0.3266 -2.1582 -0.7942
 5789TIP3   OH238781   3.573   4.815  14.508  0.0643  0.5284  0.3025
 5789TIP3    H138782   3.646   4.786  14.454  0.5796 -1.8913  2.0809
 5789TIP3    H238783   3.611   4.824  14.596 -1.4589  0.6867  0.9807
 5790TIP3   OH238784   6.431   1.127   5.276  0.1370  0.7564 -0.4780
 5790TIP3    H138785   6.518   1.086   5.278 -0.5616 -0.9037  2.6755
 5790TIP3    H238786   6.438   1.201   5.336 -1.0523 -0.5749  1.3939
 5791TIP3   OH238787   0.901   6.568   2.218  0.1731  0.1745 -0.0596
 5791TIP3    H138788   0.835   6.508   2.250  0.1188  0.6388  0.7376
 5791TIP3    H238789   0.858   6.654   2.216  0.2972  0.2311 -1.0081
 5792TIP3   OH238790   4.326   5.399  11.704 -0.1452  0.2846 -0.5658
 5792TIP3    H138791   4.330   5.464  11.775  0.8278 -0.0552 -0.2892
 5792TIP3    H238792   4.393   5.335  11.727  0.3215  0.2693 -1.8912
 5793TIP3   OH238793   2.504   6.301  14.608 -0.5924 -0.2042 -0.0385
 5793TIP3    H138794   2.411   6.307  14.588 -0.3231  3.0172 -0.9580
 5793TIP3    H238795   2.531   6.216  14.572 -2.5843  0.0978 -2.5392
 5794TIP3   OH238796   3.027   0.447  16.248 -0.0275 -0.0262 -0.3312
 5794TIP3    H138797   3.006   0.432  16.340 -0.2271 -2.2166 -0.6858
 5794TIP3    H238798   3.084   0.524  16.248  1.3069 -0.9366  1.8021
 5795TIP3   OH238799   1.154   3.573  16.461  0.4443 -0.0341  0.2287
 5795TIP3    H138800   1.134   3.488  16.421 -3.1520  0.3812  0.7743
 5795TIP3    H238801   1.195   3.623  16.391 -0.4606 -1.1739 -1.1955
 5796TIP3   OH238802   5.175   4.033   2.266  0.1076 -0.1757 -0.0007
 5796TIP3    H138803   5.145   4.050   2.176 -0.9715  1.4104  0.6117
 5796TIP3    H238804   5.108   4.072   2.321  2.3163  1.8373  1.4832
 5797TIP3   OH238805   4.151   0.940  11.568 -0.5928  0.1812 -0.0341
 5797TIP3    H138806   4.083   0.899  11.620  0.0314  0.1668  0.7911
 5797TIP3    H238807   4.221   0.874  11.563 -0.0183  0.7472  0.4121
 5798TIP3   OH238808   2.670   5.034   1.472  0.3342 -0.3275 -0.1624
 5798TIP3    H138809   2.628   5.107   1.518  0.5684 -1.3644  1.7927
 5798TIP3    H238810   2.750   5.072   1.435  0.3806  0.4550  0.7018
 5799TIP3   OH238811   6.341   0.028   4.180 -0.0208 -0.1561 -0.3945
 5799TIP3    H138812   6.271  -0.001   4.121 -0.2087 -2.1542  0.7329
 5799TIP3    H238813   6.417   0.042   4.123 -0.8687  0.4540 -1.4120
 5800TIP3   OH238814   0.275   0.110  17.010 -0.0540 -0.4397  0.5231
 5800TIP3    H138815   0.365   0.128  17.039  0.8636 -1.6627 -1.4108
 5800TIP3    H238816   0.245   0.194  16.976  0.5069 -0.1233  0.7800
 5801TIP3   OH238817   2.170   0.044  16.325  0.2956 -0.3530 -0.1223
 5801TIP3    H138818   2.174   0.137  16.348 -1.5016 -0.0300 -0.9996
 5801TIP3    H238819   2.257   0.010  16.348  0.6967  1.3390  1.0070
 5802TIP3   OH238820   3.993   2.902  12.330 -0.3820 -0.0640  0.3620
 5802TIP3    H138821   3.988   2.843  12.406 -1.3714  1.0565  1.1909
 5802TIP3    H238822   3.902   2.921  12.308 -0.0835  0.2667 -0.6179
 5803TIP3   OH238823   2.122   5.684   5.499  0.4681  0.0805  0.4219
 5803TIP3    H138824   2.217   5.678   5.497  0.5764  1.2917  0.7749
 5803TIP3    H238825   2.092   5.595   5.515  1.6647  0.0814  3.3491
 5804TIP3   OH238826   2.959   3.785   3.561 -0.0546 -0.0950 -0.6820
 5804TIP3    H138827   2.966   3.692   3.538  0.1360  0.0841 -1.3893
 5804TIP3    H238828   2.880   3.791   3.615 -0.3138 -0.5996 -0.9947
 5805TIP3   OH238829   3.551   1.702  12.192  0.1395  0.2922 -0.8450
 5805TIP3    H138830   3.471   1.732  12.149 -0.3421 -0.0025 -0.1769
 5805TIP3    H238831   3.543   1.607  12.194 -0.4145  0.3277  0.9024
 5806TIP3   OH238832   0.120   4.435   4.897  0.1991  0.5162  0.7572
 5806TIP3    H138833   0.117   4.368   4.828  0.1097  0.2901  0.9802
 5806TIP3    H238834   0.212   4.463   4.899  0.3013  0.1760  0.8762
 5807TIP3   OH238835   3.827   5.411  11.056 -0.0269 -0.1854  0.5078
 5807TIP3    H138836   3.885   5.363  10.997  0.6641  0.8843  0.2748
 5807TIP3    H238837   3.805   5.491  11.007 -1.2700 -0.3248  0.8120
 5808TIP3   OH238838   3.368   2.826  14.824 -0.4287 -0.3508  0.6762
 5808TIP3    H138839   3.442   2.811  14.882  0.0068  2.3731  0.9643
 5808TIP3    H238840   3.292   2.829  14.882 -0.2645  0.3461  0.8670
 5809TIP3   OH238841   3.075   3.555  16.033 -0.0526 -0.4762  0.2300
 5809TIP3    H138842   2.993   3.504  16.032 -0.1206 -0.3904  0.8442
 5809TIP3    H238843   3.127   3.515  16.104  0.2056 -0.1752  0.2099
 5810TIP3   OH238844   3.093   0.018   1.212  0.0392 -0.4449 -0.0172
 5810TIP3    H138845   3.137   0.091   1.168 -1.1733  0.7888  0.7497
 5810TIP3    H238846   3.074  -0.044   1.142  3.0182 -1.0970 -0.3832
 5811TIP3   OH238847   1.609   4.942   3.357  0.1591  0.1007 -0.4033
 5811TIP3    H138848   1.644   4.950   3.446 -1.5809  1.3779  0.2127
 5811TIP3    H238849   1.578   4.851   3.352 -0.1595  0.1519  0.4789
 5812TIP3   OH238850   0.399   2.808   3.299 -0.2914 -0.2186  0.4443
 5812TIP3    H138851   0.436   2.777   3.216 -0.9865 -1.6666  0.6458
 5812TIP3    H238852   0.407   2.903   3.295  1.8151 -0.3689 -0.2811
 5813TIP3   OH238853   1.399   6.452   6.048 -0.5424  0.7037 -0.2341
 5813TIP3    H138854   1.310   6.469   6.078  0.1694  3.1930  0.7566
 5813TIP3    H238855   1.412   6.513   5.975  0.0244 -0.3668 -1.0473
 5814TIP3   OH238856   4.068   2.381  17.163 -0.3275  0.2194  0.0462
 5814TIP3    H138857   4.057   2.458  17.107  0.1962  1.4670  1.5813
 5814TIP3    H238858   4.161   2.361  17.159 -0.1968  0.6275  0.8292
 5815TIP3   OH238859   4.950   3.128   0.660 -0.4133  0.5703  0.2120
 5815TIP3    H138860   4.919   3.115   0.570  0.0241  0.4516  0.0753
 5815TIP3    H238861   4.933   3.046   0.704 -1.2859  0.8642  0.4375
 5816TIP3   OH238862   4.727   1.654   0.270  0.0705 -0.2807 -0.1308
 5816TIP3    H138863   4.753   1.681   0.358 -1.1913 -0.0597  0.2035
 5816TIP3    H238864   4.809   1.640   0.224  0.7629 -0.2505  1.0362
 5817TIP3   OH238865   6.084   5.073  16.395 -0.0310  0.2003 -0.6433
 5817TIP3    H138866   6.030   5.058  16.317 -2.3049  1.9523  0.4775
 5817TIP3    H238867   6.074   4.993  16.447 -2.0864  0.6595 -0.2297
 5818TIP3   OH238868   1.467   4.664  11.648 -0.5609 -0.5281  0.4582
 5818TIP3    H138869   1.397   4.620  11.695  0.2544 -0.8442  1.4058
 5818TIP3    H238870   1.445   4.757  11.652  0.3269 -0.3464  2.9773
 5819TIP3   OH238871   0.666   1.722  15.219 -0.4866  0.2800 -0.4463
 5819TIP3    H138872   0.727   1.793  15.198  0.0593  0.1745  0.7322
 5819TIP3    H238873   0.712   1.668  15.283 -1.2636 -0.6247 -0.6213
 5820TIP3   OH238874   2.031   1.461   2.297  0.3019 -0.2401 -0.4007
 5820TIP3    H138875   2.012   1.555   2.300  0.2673 -0.2673  0.5765
 5820TIP3    H238876   2.084   1.444   2.375  0.3817 -1.0178 -0.6118
 5821TIP3   OH238877   3.954   2.789  13.657 -0.5176 -0.1781  0.1327
 5821TIP3    H138878   4.043   2.778  13.623 -1.2395 -0.0108 -1.9450
 5821TIP3    H238879   3.927   2.700  13.681  0.4762 -0.1178  1.5948
 5822TIP3   OH238880   5.817   5.063  14.727 -0.2932 -0.2566 -0.2608
 5822TIP3    H138881   5.846   4.977  14.758  0.1054 -0.3733 -0.9332
 5822TIP3    H238882   5.898   5.107  14.701 -0.4365  0.5502  0.6238
 5823TIP3   OH238883   0.538   3.973   0.790  0.1037  0.2707 -0.0415
 5823TIP3    H138884   0.584   4.047   0.748 -1.3754 -0.1231 -2.5785
 5823TIP3    H238885   0.602   3.902   0.789  0.1804  0.3190 -1.6193
 5824TIP3   OH238886   4.142   0.224   5.414 -0.0543 -0.7027 -0.0513
 5824TIP3    H138887   4.087   0.298   5.389  0.2650  0.2681  1.9378
 5824TIP3    H238888   4.225   0.264   5.439  0.7172 -1.9185 -0.5637
 5825TIP3   OH238889   5.884   0.104   6.422  0.0883 -0.1630  0.2373
 5825TIP3    H138890   5.899   0.033   6.486  1.7633 -0.5530 -0.5349
 5825TIP3    H238891   5.916   0.183   6.467  1.7656 -0.5164 -0.2445
 5826TIP3   OH238892   1.554   4.264  13.050 -0.2231  0.3925 -0.9643
 5826TIP3    H138893   1.638   4.310  13.050 -0.8267  1.5969 -2.4867
 5826TIP3    H238894   1.489   4.333  13.044 -1.5432 -0.3410  2.4819
 5827TIP3   OH238895   4.063   0.088   1.837  0.1098  0.7599 -0.1758
 5827TIP3    H138896   4.139   0.033   1.820 -0.5366 -0.2226 -0.0045
 5827TIP3    H238897   4.057   0.145   1.760 -0.4484 -0.9075 -1.4495
 5828TIP3   OH238898   3.842   2.754  14.564 -0.6574  0.4789  0.0282
 5828TIP3    H138899   3.826   2.685  14.629  0.2609  0.5147  0.3065
 5828TIP3    H238900   3.842   2.835  14.615  3.0050  0.3101  0.6016
 5829TIP3   OH238901   0.084   3.000  14.846  0.2149 -0.3249 -0.2280
 5829TIP3    H138902   0.116   2.960  14.765 -2.4401 -1.6966 -0.7084
 5829TIP3    H238903   0.015   3.060  14.818  0.6612  0.7454  0.8933
 5830TIP3   OH238904   5.764   4.687  14.515  0.2389 -0.1123  0.5228
 5830TIP3    H138905   5.745   4.733  14.597 -1.2145  0.4263 -0.0909
 5830TIP3    H238906   5.815   4.750  14.464  0.1386 -0.0099  0.5485
 5831TIP3   OH238907   2.579   3.514  14.916 -0.2186 -0.1426 -0.1696
 5831TIP3    H138908   2.589   3.474  15.002  2.3745  1.7492  0.5071
 5831TIP3    H238909   2.559   3.440  14.858 -1.7854 -1.4829  1.9384
 5832TIP3   OH238910   0.057   3.000   2.843  0.4273  0.8924  0.3817
 5832TIP3    H138911   0.096   2.933   2.899 -2.1587  0.3330  1.6374
 5832TIP3    H238912   0.035   2.953   2.762 -0.2500  0.5020  0.7855
 5833TIP3   OH238913   0.214   3.779  13.897 -0.1508 -0.6917 -0.0335
 5833TIP3    H138914   0.121   3.769  13.875 -0.5225 -3.1466  2.2000
 5833TIP3    H238915   0.243   3.691  13.921  2.3141  0.3034  0.9550
 5834TIP3   OH238916   0.390   2.626   4.774  0.5795  0.0358 -0.3566
 5834TIP3    H138917   0.462   2.563   4.768 -0.2298 -1.0584  0.8344
 5834TIP3    H238918   0.432   2.708   4.800  1.2915 -0.9342  1.8141
 5835TIP3   OH238919   6.780   1.993  14.003 -0.7386 -0.0082  0.0954
 5835TIP3    H138920   6.841   1.956  14.067 -1.6819 -1.8666  0.0060
 5835TIP3    H238921   6.751   1.917  13.952 -1.8543  1.0730 -0.9504
 5836TIP3   OH238922   4.331   5.829  15.650  0.1055 -0.6077  0.2406
 5836TIP3    H138923   4.333   5.740  15.685  0.6087 -0.3266  0.9534
 5836TIP3    H238924   4.288   5.821  15.565 -2.4369 -1.1202  1.4793
 5837TIP3   OH238925   6.740   2.235  10.609 -0.4588 -0.1300 -0.5656
 5837TIP3    H138926   6.808   2.170  10.597  1.2631  1.7430 -1.5175
 5837TIP3    H238927   6.722   2.268  10.520 -1.0462  0.9242 -0.0751
 5838TIP3   OH238928   5.166   2.739   0.846  0.3292 -0.3785  0.2722
 5838TIP3    H138929   5.261   2.729   0.849  0.4684  0.5361 -0.8403
 5838TIP3    H238930   5.137   2.668   0.788  0.5735  0.7273 -1.2536
 5839TIP3   OH238931   0.912   1.517   0.793 -0.0982 -0.3732  0.7165
 5839TIP3    H138932   0.849   1.453   0.823  0.0389 -1.3716 -1.0239
 5839TIP3    H238933   0.981   1.516   0.860 -1.5592  0.2721  2.2996
 5840TIP3   OH238934   5.448   6.061   3.875  0.0479 -0.2868 -1.0005
 5840TIP3    H138935   5.538   6.040   3.850 -0.4008 -1.6048 -1.5684
 5840TIP3    H238936   5.457   6.100   3.962  1.2896  1.0091 -1.6740
 5841TIP3   OH238937   1.442   2.147  15.766 -0.2372  0.6506  0.4097
 5841TIP3    H138938   1.453   2.222  15.823 -2.0098  0.9147  0.4771
 5841TIP3    H238939   1.444   2.071  15.824  0.3004  0.7440  0.5096
 5842TIP3   OH238940   5.021   1.050  11.212 -0.4736  0.0346  0.7911
 5842TIP3    H138941   4.962   1.005  11.152  0.4991 -0.0710 -0.1270
 5842TIP3    H238942   4.984   1.035  11.299 -2.7727  1.4766  0.1512
 5843TIP3   OH238943   3.562   1.174  15.360  0.5105 -0.1093  0.3178
 5843TIP3    H138944   3.540   1.264  15.337 -0.7780 -0.3240  0.6563
 5843TIP3    H238945   3.506   1.154  15.435  1.1626 -1.0230  0.5755
 5844TIP3   OH238946   6.411   3.750   4.489 -0.5361  0.5264  0.3693
 5844TIP3    H138947   6.497   3.773   4.456 -0.8682  2.5431  0.8229
 5844TIP3    H238948   6.384   3.675   4.435 -0.0180  2.1173 -2.2546
 5845TIP3   OH238949   4.955   2.979  11.342 -0.8715 -0.0763  0.4578
 5845TIP3    H138950   4.924   2.916  11.277 -0.3510 -1.3401  1.3904
 5845TIP3    H238951   4.931   2.941  11.426 -3.4576  2.5384  1.0655
 5846TIP3   OH238952   0.344   4.002  14.229  0.2072  0.7178  0.0431
 5846TIP3    H138953   0.414   3.937  14.242  0.9245  1.2723 -0.9136
 5846TIP3    H238954   0.263   3.951  14.236  0.7075 -0.0302  0.6738
 5847TIP3   OH238955   0.908   2.316  16.445 -0.2028  0.5377 -0.1506
 5847TIP3    H138956   0.892   2.370  16.369  0.9495 -1.1929 -1.7165
 5847TIP3    H238957   0.821   2.297  16.481 -0.7611  1.3401 -1.0514
 5848TIP3   OH238958   3.717   1.139  14.541  0.1590 -0.2222  0.3738
 5848TIP3    H138959   3.665   1.073  14.586 -0.7624  0.1675 -0.0853
 5848TIP3    H238960   3.660   1.217  14.538  0.9231  0.3453  0.2178
 5849TIP3   OH238961   1.115   2.881  16.856 -0.1356 -0.6413 -0.1797
 5849TIP3    H138962   1.169   2.840  16.923 -0.0045  0.1682  0.2228
 5849TIP3    H238963   1.158   2.965  16.839  0.6219 -1.4002 -2.2764
 5850TIP3   OH238964   6.600   0.268  14.392  0.3641  0.3327 -0.4170
 5850TIP3    H138965   6.619   0.303  14.305  1.4827  0.0809 -0.2907
 5850TIP3    H238966   6.667   0.200  14.406 -0.3038 -0.1949  0.3059
 5851TIP3   OH238967   1.054   6.127   4.560  0.0442  0.5767  0.1563
 5851TIP3    H138968   1.150   6.125   4.560  0.0318 -0.2115  0.6516
 5851TIP3    H238969   1.033   6.219   4.544  0.8808  0.7939  0.2274
 5852TIP3   OH238970   5.601   5.622  14.688  0.3716 -0.0337  0.0563
 5852TIP3    H138971   5.585   5.710  14.655  0.9803 -0.5946 -1.8523
 5852TIP3    H238972   5.565   5.564  14.621 -2.0078 -1.3070  2.2740
 5853TIP3   OH238973   1.460   6.146   5.041  0.3425 -0.2091 -0.6005
 5853TIP3    H138974   1.372   6.137   5.077  0.6062 -0.3165  0.0132
 5853TIP3    H238975   1.511   6.078   5.084  0.7180 -0.1860 -0.9998
 5854TIP3   OH238976   0.926   5.775   4.786 -0.3872 -0.2021  0.0031
 5854TIP3    H138977   0.865   5.744   4.718 -0.0312  0.5682 -0.6925
 5854TIP3    H238978   0.939   5.699   4.843  1.1782 -1.6754 -2.1448
 5855TIP3   OH238979   2.244   1.387  16.937  0.5289 -0.5858  0.7402
 5855TIP3    H138980   2.326   1.347  16.967 -0.1219 -1.5198  1.3110
 5855TIP3    H238981   2.186   1.382  17.013 -0.8549 -2.1281 -0.3748
 5856TIP3   OH238982   1.113   6.793  15.854 -0.2642  0.0866 -0.3585
 5856TIP3    H138983   1.093   6.886  15.850 -0.6948  0.0298  0.3522
 5856TIP3    H238984   1.060   6.754  15.784 -1.0311  0.2197  0.1371
 5857TIP3   OH238985   2.246   1.352  15.731 -0.3004  0.3893  0.6034
 5857TIP3    H138986   2.299   1.426  15.761 -0.0166  0.5543 -0.2896
 5857TIP3    H238987   2.208   1.316  15.811  0.6840  0.6357  1.2040
 5858TIP3   OH238988   0.983   4.298  11.029 -0.4897 -0.5825  0.4218
 5858TIP3    H138989   1.001   4.208  11.058 -1.1367 -0.9408 -0.2509
 5858TIP3    H238990   1.016   4.301  10.939  2.0865  0.7045  1.2978
 5859TIP3   OH238991   0.213   5.734   5.749 -0.2529  0.7416 -0.5840
 5859TIP3    H138992   0.249   5.739   5.661  0.5532  0.3048 -0.2824
 5859TIP3    H238993   0.278   5.776   5.805  0.8084 -1.7950  0.2380
 5860TIP3   OH238994   5.341   0.317   5.629  0.1623  0.2602  0.1379
 5860TIP3    H138995   5.324   0.225   5.611  1.8553 -0.1427  0.4060
 5860TIP3    H238996   5.280   0.365   5.572  0.4383 -1.0147 -1.2923
 5861TIP3   OH238997   2.190   1.949  13.194 -0.5681 -0.8856  0.2545
 5861TIP3    H138998   2.112   1.963  13.139 -0.9284 -0.0392  0.9611
 5861TIP3    H238999   2.260   1.931  13.131 -0.6686  1.3940 -0.6287
 5862TIP3   OH239000   2.995   2.764   5.805 -0.2092  0.3521 -0.5870
 5862TIP3    H139001   3.064   2.830   5.800 -1.3585  1.9146  2.0713
 5862TIP3    H239002   3.039   2.686   5.837  0.4866  1.0628  0.2391
 5863TIP3   OH239003   4.145   4.400  14.780  0.2719 -0.1432  0.0449
 5863TIP3    H139004   4.079   4.435  14.840 -1.2418 -2.8046  0.1042
 5863TIP3    H239005   4.229   4.416  14.823 -0.6779 -0.8455  2.3275
 5864TIP3   OH239006   4.520   6.085   4.254  0.1001  0.6733  0.1025
 5864TIP3    H139007   4.508   6.172   4.293 -0.2893  0.7481 -0.1864
 5864TIP3    H239008   4.453   6.079   4.187  1.3394  0.9276 -1.2251
 5865TIP3   OH239009   2.922   5.933  13.315  0.1470 -0.0692 -0.0496
 5865TIP3    H139010   3.002   5.920  13.265  0.5751  1.1953  0.2797
 5865TIP3    H239011   2.854   5.888  13.264  1.1298 -1.6293 -0.0502
 5866TIP3   OH239012   4.686   0.800   1.964  0.4798  0.5808 -0.8219
 5866TIP3    H139013   4.595   0.826   1.979  0.2495 -1.9830  4.0292
 5866TIP3    H239014   4.682   0.744   1.887 -2.1323  0.3018 -0.5829
 5867TIP3   OH239015   5.075   2.501   1.823 -0.2641  0.6311 -0.4323
 5867TIP3    H139016   5.117   2.422   1.789  0.2755  0.5228  0.4763
 5867TIP3    H239017   5.126   2.525   1.900 -2.0007  0.3720  0.8391
 5868TIP3   OH239018   2.673   1.900   2.245 -0.6275  0.1324  0.3102
 5868TIP3    H139019   2.694   1.987   2.210  1.6047 -0.1524  0.7598
 5868TIP3    H239020   2.714   1.840   2.183 -3.1097 -0.7181 -0.6216
 5869TIP3   OH239021   4.957   3.009  14.242  0.1402  0.3458  0.1258
 5869TIP3    H139022   4.936   3.014  14.335  1.8443 -1.3602  0.6629
 5869TIP3    H239023   4.901   2.939  14.209 -0.8093  1.2690 -0.2717
 5870TIP3   OH239024   0.158   2.475  11.601  0.5855 -0.2022  0.1769
 5870TIP3    H139025   0.068   2.503  11.620  0.6903  1.4507 -1.5806
 5870TIP3    H239026   0.213   2.547  11.631  1.1755 -0.3183 -0.6038
 5871TIP3   OH239027   2.146   1.250   5.779  0.0974 -0.5994 -0.0750
 5871TIP3    H139028   2.170   1.175   5.724 -0.4467 -3.1410  2.8377
 5871TIP3    H239029   2.218   1.257   5.842 -0.3813  0.6438  0.3559
 5872TIP3   OH239030   2.910   0.568  12.508  0.2755 -0.2504 -0.0663
 5872TIP3    H139031   2.854   0.491  12.509  4.0948 -3.3198 -0.4301
 5872TIP3    H239032   2.902   0.603  12.420 -0.5559 -0.9713 -0.2929
 5873TIP3   OH239033   3.894   6.759   4.055  0.0325  0.1502 -0.4788
 5873TIP3    H139034   3.975   6.786   4.012  0.3713  0.4485  0.3221
 5873TIP3    H239035   3.910   6.668   4.080  0.1737  0.2470 -0.2097
 5874TIP3   OH239036   6.328   0.665   6.594  0.3061  0.3369  0.0329
 5874TIP3    H139037   6.303   0.676   6.686 -0.0841  1.7781 -0.2176
 5874TIP3    H239038   6.297   0.577   6.571 -0.0908  0.1782  1.1142
 5875TIP3   OH239039   2.184   2.867  11.701  0.0780  0.1395 -0.1686
 5875TIP3    H139040   2.137   2.945  11.728 -1.7818 -0.6393 -0.9645
 5875TIP3    H239041   2.237   2.895  11.626  0.4783  0.9172  0.3944
 5876TIP3   OH239042   3.210   1.663  16.615 -0.3099 -0.0886 -0.4262
 5876TIP3    H139043   3.149   1.730  16.582 -1.5507 -0.3662  1.1737
 5876TIP3    H239044   3.295   1.706  16.615 -0.9248  1.1907 -0.3131
 5877TIP3   OH239045   3.676   0.600   4.697  0.1802 -0.7281 -0.5161
 5877TIP3    H139046   3.742   0.613   4.629 -0.2077 -0.3536 -0.8272
 5877TIP3    H239047   3.662   0.505   4.699 -0.4087 -0.6747 -1.5516
 5878TIP3   OH239048   3.627   3.123  10.743  0.1508 -0.1897  0.4104
 5878TIP3    H139049   3.665   3.039  10.715 -1.5724 -0.8544 -0.0781
 5878TIP3    H239050   3.642   3.125  10.838  3.3985  0.6897 -0.0366
 5879TIP3   OH239051   6.086   0.030  11.701  0.3846  0.1785 -0.3937
 5879TIP3    H139052   6.124  -0.041  11.752  0.2778 -0.9011 -1.7790
 5879TIP3    H239053   6.068  -0.008  11.615 -2.4636  1.0133 -0.2783
 5880TIP3   OH239054   2.111   3.133  12.475 -0.2913 -0.2048  0.0658
 5880TIP3    H139055   2.088   3.058  12.420 -0.1837 -0.0490 -0.1958
 5880TIP3    H239056   2.128   3.204  12.413 -0.2908  0.0092  0.3054
 5881TIP3   OH239057   4.655   2.393  15.321  0.0286 -0.1199  0.6122
 5881TIP3    H139058   4.704   2.325  15.368 -0.8823 -0.9598  0.3722
 5881TIP3    H239059   4.616   2.447  15.390 -1.8534 -1.7415  0.8995
 5882TIP3   OH239060   5.335   2.848  12.529  0.0090 -0.0744  0.7275
 5882TIP3    H139061   5.279   2.909  12.577 -0.2880  1.6184 -1.6165
 5882TIP3    H239062   5.417   2.895  12.516  0.9346 -1.3895  1.5120
 5883TIP3   OH239063   2.319   3.116   4.625  0.2207 -0.6592 -0.3473
 5883TIP3    H139064   2.316   3.135   4.719 -0.5558 -1.5214 -0.1777
 5883TIP3    H239065   2.317   3.202   4.583  2.9092 -0.1331  0.4123
 5884TIP3   OH239066   3.506   0.872   5.655  0.7290  0.1062 -0.1880
 5884TIP3    H139067   3.467   0.917   5.730  0.5471  0.2885 -0.3913
 5884TIP3    H239068   3.443   0.803   5.634  0.9678 -0.1923  0.0719
 5885TIP3   OH239069   3.358   5.483   2.438 -0.7654 -0.0651  0.1660
 5885TIP3    H139070   3.446   5.494   2.401 -1.2255  0.4584 -0.8295
 5885TIP3    H239071   3.312   5.429   2.374 -0.9879 -0.8739  0.9976
 5886TIP3   OH239072   4.729   3.797   4.445 -0.1582  0.3895 -0.4802
 5886TIP3    H139073   4.796   3.865   4.456  0.9015 -0.3063 -2.3787
 5886TIP3    H239074   4.652   3.834   4.489  1.3934  1.2346  1.7175
 5887TIP3   OH239075   5.591   4.024   2.052 -0.1000 -0.0677 -0.2975
 5887TIP3    H139076   5.676   4.068   2.051  0.7523 -1.6161 -0.1934
 5887TIP3    H239077   5.541   4.067   2.121  0.1144  1.6811 -1.1703
 5888TIP3   OH239078   2.112   5.733  14.477  0.5042  0.1706  0.0535
 5888TIP3    H139079   2.025   5.755  14.509  0.6591  0.6807  0.1251
 5888TIP3    H239080   2.105   5.740  14.382  0.2845 -0.4685  0.0169
 5889TIP3   OH239081   1.532   4.063  11.787 -0.0288  0.6752 -0.2218
 5889TIP3    H139082   1.438   4.073  11.802  0.0546  3.6828 -0.9658
 5889TIP3    H239083   1.572   4.135  11.836  2.0228 -0.9925  0.7215
 5890TIP3   OH239084   0.159   5.463  12.729  0.2917  0.0524 -0.0090
 5890TIP3    H139085   0.244   5.423  12.741 -0.2195 -0.8119  0.8272
 5890TIP3    H239086   0.130   5.487  12.817 -0.4225  0.1437 -0.2583
 5891TIP3   OH239087   5.338   6.090   5.682 -0.3775  0.4234  0.2022
 5891TIP3    H139088   5.433   6.081   5.673  0.0241  1.4774  2.6451
 5891TIP3    H239089   5.311   6.016   5.736 -1.0658 -0.1173 -0.8295
 5892TIP3   OH239090   3.700   5.986   3.709  0.3510  0.1997  0.2372
 5892TIP3    H139091   3.752   6.031   3.775  1.6970 -2.7253  1.3822
 5892TIP3    H239092   3.650   5.921   3.759 -1.8157  0.6015 -1.2396
 5893TIP3   OH239093   1.088   4.894  13.103 -0.4344  0.2001 -0.2942
 5893TIP3    H139094   1.066   4.978  13.144 -0.9494 -0.8443  1.7462
 5893TIP3    H239095   1.164   4.863  13.153 -0.4849 -0.7183 -0.7785
 5894TIP3   OH239096   3.598   0.584  14.238 -0.0457 -0.2837  0.5233
 5894TIP3    H139097   3.642   0.589  14.323 -1.1407 -0.2210  1.0965
 5894TIP3    H239098   3.628   0.500  14.201  4.7158  1.9111 -1.5187
 5895TIP3   OH239099   2.075   3.889  16.394  0.1165 -0.9437  0.7751
 5895TIP3    H139100   2.004   3.849  16.343  1.6796 -0.3245 -2.1654
 5895TIP3    H239101   2.130   3.815  16.421 -0.3374 -1.2355  0.9071
 5896TIP3   OH239102   1.847   2.985   1.473  0.2440  0.2994 -0.1812
 5896TIP3    H139103   1.865   2.898   1.438 -1.2673 -1.2313  2.5195
 5896TIP3    H239104   1.765   2.975   1.521 -0.7243  3.5939 -0.9015
 5897TIP3   OH239105   1.429   0.733   5.306  0.1265 -0.6121 -0.1671
 5897TIP3    H139106   1.457   0.713   5.217  0.1319 -0.2078 -0.2601
 5897TIP3    H239107   1.367   0.664   5.329 -0.4474 -0.3044 -0.7597
 5898TIP3   OH239108   1.902   6.531   3.789 -0.1731  0.5113  0.1935
 5898TIP3    H139109   1.943   6.600   3.737  1.7894 -0.9607 -0.3366
 5898TIP3    H239110   1.830   6.500   3.735  1.1781 -0.2639 -1.2453
 5899TIP3   OH239111   0.462   4.856   4.910 -0.4170 -0.3611  0.4825
 5899TIP3    H139112   0.468   4.853   4.815 -0.4490 -0.0284  0.4700
 5899TIP3    H239113   0.532   4.799   4.940  0.3914  0.5066  0.2765
 5900TIP3   OH239114   2.941   2.328  13.340  0.1509 -0.0262 -0.3712
 5900TIP3    H139115   3.035   2.337  13.324  0.4039 -1.4563  0.1412
 5900TIP3    H239116   2.900   2.338  13.254  0.7409  0.7927 -0.5694
 5901TIP3   OH239117   6.261   4.889  14.331  0.5103 -0.0479  0.0964
 5901TIP3    H139118   6.355   4.887  14.349  0.6558 -1.4737 -0.7057
 5901TIP3    H239119   6.223   4.829  14.395  0.1773  0.2089  0.1459
 5902TIP3   OH239120   2.774   1.819   5.596  0.3590 -0.3935 -0.0376
 5902TIP3    H139121   2.712   1.822   5.668 -2.8420  0.2701 -2.5659
 5902TIP3    H239122   2.764   1.904   5.553  0.9611 -1.3071 -2.0908
 5903TIP3   OH239123   1.614   3.604  14.377  0.8442 -0.5617  0.2614
 5903TIP3    H139124   1.708   3.594  14.391  0.7169 -1.0814  0.7634
 5903TIP3    H239125   1.574   3.538  14.433  0.1071  0.7585  1.3427
 5904TIP3   OH239126   5.034   6.482  10.777 -0.0939 -0.3500  0.1521
 5904TIP3    H139127   5.108   6.535  10.807 -0.5392 -0.2110  1.0342
 5904TIP3    H239128   5.067   6.437  10.699  0.2643  1.3077 -0.7164
 5905TIP3   OH239129   1.208   3.553   3.381 -0.0119 -1.0313  0.1012
 5905TIP3    H139130   1.182   3.555   3.289  0.7998  3.3238 -0.2493
 5905TIP3    H239131   1.299   3.523   3.379 -0.8142 -3.6911 -0.0871
 5906TIP3   OH239132   0.435   1.157  15.633 -0.3753 -0.1732  0.3129
 5906TIP3    H139133   0.341   1.140  15.623 -0.1056 -1.3286 -0.3946
 5906TIP3    H239134   0.453   1.137  15.725 -0.6062 -1.1130  0.1651
 5907TIP3   OH239135   4.072   1.943  11.882  0.0706 -0.1678  0.4035
 5907TIP3    H139136   4.023   1.861  11.868 -1.3707  0.7047  0.1149
 5907TIP3    H239137   4.007   2.003  11.919  0.7965  1.1999 -0.4683
 5908TIP3   OH239138   2.962   6.288   2.545  0.0965  0.4244  0.0453
 5908TIP3    H139139   2.886   6.287   2.487  0.0397  1.0681  0.1017
 5908TIP3    H239140   3.038   6.287   2.486  0.0438  0.3529 -0.0212
 5909TIP3   OH239141   6.296   1.217   3.274  0.3437 -0.0563 -0.1135
 5909TIP3    H139142   6.382   1.223   3.233  0.3118  0.0210 -0.1688
 5909TIP3    H239143   6.270   1.126   3.262  0.0571  0.1190 -0.8188
 5910TIP3   OH239144   0.509   2.772   3.568  0.1872  0.5677 -0.0758
 5910TIP3    H139145   0.442   2.765   3.500  0.0858  0.5875  0.0207
 5910TIP3    H239146   0.460   2.765   3.650  0.3251  0.4130 -0.0078
 5911TIP3   OH239147   5.411   1.410   0.585  0.2292  0.0739 -0.2457
 5911TIP3    H139148   5.379   1.412   0.495  1.4183  0.4822 -0.6726
 5911TIP3    H239149   5.493   1.459   0.583 -0.4090  1.2901  1.3422
 5912TIP3   OH239150   0.104   4.071  13.080 -0.6030 -0.2352 -0.4766
 5912TIP3    H139151   0.180   4.015  13.097 -0.2427  0.2676 -0.4211
 5912TIP3    H239152   0.055   4.071  13.162  0.0241  0.4893 -0.0970
 5913TIP3   OH239153   1.162   2.913   1.966 -0.4520  0.2847 -0.3605
 5913TIP3    H139154   1.088   2.891   1.910 -0.4930  0.6219 -0.4402
 5913TIP3    H239155   1.238   2.907   1.908 -0.5745  1.3953 -0.6547
 5914TIP3   OH239156   3.699   4.431   5.767 -0.5320  0.5757  0.1367
 5914TIP3    H139157   3.780   4.380   5.768 -0.2105  1.0811  0.8249
 5914TIP3    H239158   3.657   4.411   5.850 -1.8922 -0.8659 -0.8461
 5915TIP3   OH239159   2.676   1.358   5.764  0.2227  0.2976 -0.2005
 5915TIP3    H139160   2.614   1.413   5.716 -0.1039  2.4750  2.4734
 5915TIP3    H239161   2.621   1.306   5.822  0.7440 -0.0239  0.0080
 5916TIP3   OH239162   2.097   3.240   4.115 -0.0008  0.2321 -0.1058
 5916TIP3    H139163   2.102   3.168   4.052  0.0392 -0.9364  1.1960
 5916TIP3    H239164   2.061   3.313   4.064  0.3160 -0.5778 -1.5544
 5917TIP3   OH239165   3.654   6.555   0.405 -0.5756 -0.1731 -0.1557
 5917TIP3    H139166   3.575   6.599   0.437 -1.2617 -0.5699 -1.2633
 5917TIP3    H239167   3.632   6.529   0.316  1.6512  1.9110 -1.4414
 5918TIP3   OH239168   3.890   0.356   4.300  0.0993 -0.2998 -0.6565
 5918TIP3    H139169   3.972   0.376   4.254  0.3625 -0.2864 -0.1867
 5918TIP3    H239170   3.918   0.321   4.384 -0.3514  2.1691  0.6115
 5919TIP3   OH239171   5.667   6.458   5.212  0.0072 -0.0854 -0.3886
 5919TIP3    H139172   5.601   6.459   5.142 -0.9709 -1.2622  0.4776
 5919TIP3    H239173   5.734   6.398   5.179 -1.1188 -1.7421  0.2182
 5920TIP3   OH239174   0.461   3.152  14.080 -0.4114  0.6059 -0.3651
 5920TIP3    H139175   0.395   3.101  14.033  0.0099  0.8658 -1.2495
 5920TIP3    H239176   0.445   3.132  14.173  0.3954 -1.9408 -0.7087
 5921TIP3   OH239177   1.234   4.255  10.403  0.1677 -0.5417  0.1636
 5921TIP3    H139178   1.227   4.165  10.436 -1.9134 -0.0897  1.1394
 5921TIP3    H239179   1.152   4.297  10.430  0.3796  1.2058 -1.6671
 5922TIP3   OH239180   4.581   0.981  13.295 -0.6039  0.5011  0.0099
 5922TIP3    H139181   4.548   1.024  13.373 -1.5612  0.7392 -0.5043
 5922TIP3    H239182   4.649   1.039  13.262 -1.4058  1.2873 -0.2963
 5923TIP3   OH239183   1.439   3.686  16.315 -0.9559  0.5505  0.0136
 5923TIP3    H139184   1.470   3.598  16.296  1.8921  1.5503 -0.4876
 5923TIP3    H239185   1.360   3.696  16.262  0.8726 -0.3875 -3.1541
 5924TIP3   OH239186   0.602   5.663   5.192 -0.0897 -0.5424 -0.4228
 5924TIP3    H139187   0.524   5.623   5.229 -2.0021 -0.2238 -3.7473
 5924TIP3    H239188   0.633   5.601   5.126  0.9491  0.4642 -0.9211
 5925TIP3   OH239189   6.582   5.543  13.457 -0.1243  0.4054  0.1413
 5925TIP3    H139190   6.583   5.621  13.403  1.1045  0.5203  0.3037
 5925TIP3    H239191   6.622   5.570  13.540 -2.0790  0.2676  1.1978
 5926TIP3   OH239192   6.323   0.983   2.307  0.0020 -0.2515  0.4078
 5926TIP3    H139193   6.405   1.032   2.308 -0.3308  0.3725 -0.6819
 5926TIP3    H239194   6.260   1.044   2.268 -1.4811  0.0272  3.0607
 5927TIP3   OH239195   1.388   4.651   2.938 -0.3584 -0.0690 -0.6611
 5927TIP3    H139196   1.307   4.607   2.910 -0.7103  0.1804 -0.0483
 5927TIP3    H239197   1.437   4.583   2.985 -0.1603 -0.2497 -1.1234
 5928TIP3   OH239198   6.354   3.129  13.809 -0.5637  0.9022  0.7289
 5928TIP3    H139199   6.384   3.079  13.733  0.1650  0.7764  1.0897
 5928TIP3    H239200   6.427   3.127  13.870 -1.3766  0.4403  1.7194
 5929TIP3   OH239201   1.771   0.983  15.117 -0.1083 -0.6486 -0.3406
 5929TIP3    H139202   1.851   0.938  15.143  0.2071  1.3511  2.6071
 5929TIP3    H239203   1.765   1.059  15.176 -2.1486  1.4958 -3.0181
 5930TIP3   OH239204   6.195   4.845  13.422  0.7500  0.0550  0.0950
 5930TIP3    H139205   6.173   4.917  13.481  2.5591 -0.6336  1.6937
 5930TIP3    H239206   6.240   4.887  13.348  2.3396  0.5654  1.3035
 5931TIP3   OH239207   2.056   6.216   2.284  0.0957  1.0239 -0.4822
 5931TIP3    H139208   2.003   6.187   2.359  0.4047  0.8558 -0.3282
 5931TIP3    H239209   2.004   6.193   2.207  0.2640  0.1916 -0.3616
 5932TIP3   OH239210   4.326   1.980   2.374 -0.0562 -0.7101  0.1710
 5932TIP3    H139211   4.406   1.929   2.387 -0.6302 -1.8351 -0.5451
 5932TIP3    H239212   4.257   1.928   2.415 -0.7289 -0.7573 -0.9697
 5933TIP3   OH239213   3.031   2.925   5.024 -0.2703 -0.5352  0.2119
 5933TIP3    H139214   2.994   2.988   5.086  0.8480  0.4948 -0.1184
 5933TIP3    H239215   3.041   2.975   4.943  0.6861 -1.1146 -0.0478
 5934TIP3   OH239216   5.918   6.051  15.612 -0.2621 -0.4103  0.0659
 5934TIP3    H139217   5.912   6.003  15.529  0.4986 -1.7693  0.7551
 5934TIP3    H239218   5.947   5.985  15.675  3.2380  1.4309  0.6198
 5935TIP3   OH239219   3.907   4.461  14.060  0.0453 -0.3216  0.0251
 5935TIP3    H139220   3.948   4.498  13.983 -1.7395  1.2046 -0.2442
 5935TIP3    H239221   3.981   4.439  14.118  1.2815  1.5740 -0.7352
 5936TIP3   OH239222   4.086   0.379   3.541  0.3974  0.0110  1.1591
 5936TIP3    H139223   4.013   0.321   3.560 -0.6234  0.7427 -0.3202
 5936TIP3    H239224   4.107   0.361   3.449  0.2829  1.7234  0.7701
 5937TIP3   OH239225   5.215   6.021   6.079  0.4378 -0.2619  0.0751
 5937TIP3    H139226   5.257   6.105   6.097  1.3133 -0.0073 -2.7513
 5937TIP3    H239227   5.281   5.956   6.106  0.8319  0.0210 -0.1907
 5938TIP3   OH239228   5.464   0.184  16.771  0.1547  0.2445  0.1564
 5938TIP3    H139229   5.515   0.215  16.846  0.0785  0.3645  0.1588
 5938TIP3    H239230   5.373   0.204  16.793 -0.2241 -2.3750  1.3699
 5939TIP3   OH239231   4.575   3.380   4.151  0.0207  0.3296  0.2479
 5939TIP3    H139232   4.617   3.451   4.102 -0.2021  0.7963  0.7210
 5939TIP3    H239233   4.641   3.351   4.214  0.4516 -0.5470 -0.5793
 5940TIP3   OH239234   0.936   6.584  13.633  0.6764  0.5428 -0.4063
 5940TIP3    H139235   0.917   6.662  13.581  2.5692  0.8981 -0.6523
 5940TIP3    H239236   0.923   6.511  13.573  1.7706  0.8854 -1.0963
 5941TIP3   OH239237   4.547   3.004   2.414  0.7458 -0.5430 -0.4943
 5941TIP3    H139238   4.642   2.998   2.421  0.6915  0.1040  1.2820
 5941TIP3    H239239   4.517   2.913   2.420  1.2458 -0.7844 -1.4300
 5942TIP3   OH239240   1.776   4.319   6.283 -0.2621  0.2816  0.4075
 5942TIP3    H139241   1.830   4.243   6.307 -0.3711 -0.4161 -1.4200
 5942TIP3    H239242   1.722   4.335   6.361  0.3426 -0.9924  1.1245
 5943TIP3   OH239243   3.713   4.393   4.546  0.1084 -0.0448 -0.4906
 5943TIP3    H139244   3.645   4.328   4.529 -0.9635  1.1448 -0.9032
 5943TIP3    H239245   3.722   4.439   4.463 -0.5684  1.6129  0.3110
 5944TIP3   OH239246   0.449   5.443   3.867  0.4210  0.4778  0.5288
 5944TIP3    H139247   0.529   5.473   3.824  1.7831 -0.6278  2.1601
 5944TIP3    H239248   0.416   5.521   3.912 -0.9891  1.6323 -2.2675
 5945TIP3   OH239249   1.642   5.421  14.932  0.2463  0.0051  0.1482
 5945TIP3    H139250   1.563   5.387  14.975  0.0038  0.1079 -0.2124
 5945TIP3    H239251   1.702   5.347  14.929 -0.0151 -0.2016 -0.0003
 5946TIP3   OH239252   1.289   2.624  12.127  0.1253 -0.7477 -0.3311
 5946TIP3    H139253   1.258   2.699  12.178 -0.2966 -0.1260 -1.4631
 5946TIP3    H239254   1.225   2.556  12.142 -0.2420 -0.4153 -0.3817
 5947TIP3   OH239255   3.749   1.868  11.467  0.0727 -0.0192 -0.2839
 5947TIP3    H139256   3.726   1.851  11.559 -0.1297 -0.5298 -0.4257
 5947TIP3    H239257   3.665   1.881  11.424  0.1021 -0.8226 -0.5971
 5948TIP3   OH239258   1.066   4.794   3.587 -0.2074 -0.0886 -0.5053
 5948TIP3    H139259   1.117   4.733   3.640  0.3124  0.1260 -0.7535
 5948TIP3    H239260   0.985   4.807   3.637 -0.0480 -0.4766 -0.1398
 5949TIP3   OH239261   1.491   1.175  15.452  0.0001  0.7034 -0.0371
 5949TIP3    H139262   1.410   1.148  15.497  0.2610 -2.3719 -1.1284
 5949TIP3    H239263   1.561   1.147  15.511  0.2909 -1.4153 -1.2769
 5950TIP3   OH239264   4.336   2.328  16.490  0.5311 -0.0355 -0.4369
 5950TIP3    H139265   4.281   2.303  16.564  0.7754  1.0514  0.1312
 5950TIP3    H239266   4.402   2.259  16.486 -1.4837 -1.9890 -1.8598
 5951TIP3   OH239267   5.963   3.821  10.502 -0.4250  0.1949  0.2410
 5951TIP3    H139268   5.959   3.873  10.582 -1.1959  0.2162  0.1983
 5951TIP3    H239269   6.047   3.776  10.507 -0.2757  0.5236  0.8542
 5952TIP3   OH239270   5.553   1.733   4.349  0.4957 -0.5686 -0.3332
 5952TIP3    H139271   5.629   1.756   4.403 -0.6288  1.0662  0.6255
 5952TIP3    H239272   5.541   1.808   4.290  0.7778 -1.6705 -1.8602
 5953TIP3   OH239273   1.533   4.721  12.508  0.2590  0.1457  0.0164
 5953TIP3    H139274   1.547   4.630  12.534  0.9065  0.5327  1.0935
 5953TIP3    H239275   1.449   4.745  12.547 -0.2127 -0.1634 -0.7877
 5954TIP3   OH239276   5.531   5.167  14.349  0.2605 -0.2364  0.2689
 5954TIP3    H139277   5.479   5.190  14.426 -1.3897  0.5247 -1.0195
 5954TIP3    H239278   5.485   5.207  14.276  1.4550 -1.4308 -1.2034
 5955TIP3   OH239279   3.504   3.386   2.721 -0.1578 -0.3188  0.2637
 5955TIP3    H139280   3.452   3.464   2.705  0.2266 -0.1245 -0.0550
 5955TIP3    H239281   3.519   3.348   2.634 -2.0218 -1.8645  0.5408
 5956TIP3   OH239282   4.558   1.007   1.724  0.3501 -0.0616  0.2242
 5956TIP3    H139283   4.515   1.013   1.639  0.2482  0.4383  0.3049
 5956TIP3    H239284   4.489   0.977   1.784  0.1465  0.5711  0.3201
 5957TIP3   OH239285   5.544   1.503   4.230 -0.1206  0.3038 -0.1565
 5957TIP3    H139286   5.570   1.522   4.140  0.6727 -1.1741 -0.2689
 5957TIP3    H239287   5.542   1.589   4.273 -1.5247  1.1521 -1.8066
 5958TIP3   OH239288   0.432   2.011  14.476  0.5143 -0.2944  0.4899
 5958TIP3    H139289   0.413   1.934  14.529  0.0981 -0.3095  0.3190
 5958TIP3    H239290   0.519   1.995  14.441  0.5325 -0.5710  0.6599
 5959TIP3   OH239291   4.962   0.067  17.023  0.0994  0.6098 -0.7927
 5959TIP3    H139292   4.951   0.076  17.117 -0.1992 -2.2307 -0.4494
 5959TIP3    H239293   4.872   0.067  16.989  0.1941  1.3624 -1.0458
 5960TIP3   OH239294   3.852   3.331   3.304  0.6430 -0.3241 -0.1203
 5960TIP3    H139295   3.854   3.375   3.389  2.1974  0.3766 -0.4826
 5960TIP3    H239296   3.766   3.290   3.301 -0.4081  1.6417  0.7782
 5961TIP3   OH239297   1.174   1.740  15.993  0.0647  0.0930  0.1406
 5961TIP3    H139298   1.230   1.693  15.931  0.7532  0.4366  0.4860
 5961TIP3    H239299   1.085   1.727  15.960  0.3732 -0.1896 -0.6088
 5962TIP3   OH239300   0.646   5.347  15.240 -0.0592 -0.6043  0.4784
 5962TIP3    H139301   0.655   5.304  15.326 -0.4245 -1.6795 -0.0039
 5962TIP3    H239302   0.730   5.333  15.197  0.5082  0.8767  1.0582
 5963TIP3   OH239303   1.540   4.157  13.763  0.4138 -0.0925  0.0449
 5963TIP3    H139304   1.478   4.175  13.693 -1.4321  1.1581  1.8748
 5963TIP3    H239305   1.490   4.107  13.828  1.1274  1.2962  1.7677
 5964TIP3   OH239306   1.483   0.379  11.872 -0.3125 -0.0023 -0.2876
 5964TIP3    H139307   1.475   0.292  11.835 -1.8023  0.0501 -0.1461
 5964TIP3    H239308   1.446   0.372  11.960  0.1793  0.6209 -0.0148
 5965TIP3   OH239309   2.030   4.538  13.066  0.1154  0.3343 -0.0687
 5965TIP3    H139310   2.018   4.632  13.079  0.7395  0.4674 -0.3960
 5965TIP3    H239311   2.093   4.532  12.994 -1.6130 -0.3597 -1.5957
 5966TIP3   OH239312   6.003   0.801  17.065 -0.6690  0.2360 -0.0879
 5966TIP3    H139313   5.969   0.720  17.027  1.3706  0.4738 -2.6913
 5966TIP3    H239314   6.052   0.843  16.994  0.5212  2.4873  1.9017
 5967TIP3   OH239315   1.370   5.257   1.345  0.5933 -0.1742  0.4341
 5967TIP3    H139316   1.300   5.300   1.296  0.1076  1.3454  2.3686
 5967TIP3    H239317   1.371   5.167   1.311 -0.4342  0.5077 -1.5435
 5968TIP3   OH239318   6.732   2.009  14.438 -0.5337 -0.1053 -0.4862
 5968TIP3    H139319   6.793   2.067  14.393  0.1996 -0.9996 -0.6515
 5968TIP3    H239320   6.787   1.950  14.488 -1.2713 -0.8149 -0.4930
 5969TIP3   OH239321   4.065   5.465  12.651  1.0391  0.4092  0.0936
 5969TIP3    H139322   4.013   5.531  12.697  1.1529 -0.2463  1.1878
 5969TIP3    H239323   4.150   5.507  12.637  0.4426  1.2657 -1.1698
 5970TIP3   OH239324   3.263   3.485   4.678 -0.1413  0.1341  0.4902
 5970TIP3    H139325   3.255   3.456   4.769  0.8764 -2.7489 -0.2437
 5970TIP3    H239326   3.178   3.463   4.638 -0.3330  0.7284  0.5655
 5971TIP3   OH239327   1.231   1.692   3.146  0.1567  0.1067  0.3083
 5971TIP3    H139328   1.256   1.696   3.053  1.2352  0.4226  0.5998
 5971TIP3    H239329   1.136   1.703   3.146 -0.1434 -1.8654 -0.9148
 5972TIP3   OH239330   5.738   3.669   5.063  0.2849  0.5742  0.3949
 5972TIP3    H139331   5.721   3.638   5.152  0.4526  1.4712  0.7538
 5972TIP3    H239332   5.661   3.644   5.012  0.0511  0.3356  0.8676
 5973TIP3   OH239333   3.134   3.641  15.049  0.6326 -0.1095  0.0252
 5973TIP3    H139334   3.132   3.654  14.954 -2.3575 -0.0454  0.0173
 5973TIP3    H239335   3.070   3.572  15.066  0.4055  0.5343  2.0717
 5974TIP3   OH239336   1.021   3.464  14.259 -0.5754  0.3410  0.0025
 5974TIP3    H139337   1.078   3.504  14.193 -1.7156  0.3218 -1.0259
 5974TIP3    H239338   0.977   3.538  14.300 -0.0115  0.3393  0.6430
 5975TIP3   OH239339   0.438   2.974   1.788  0.2128  0.1635  0.0831
 5975TIP3    H139340   0.463   3.014   1.872 -0.3189 -0.3118  0.4801
 5975TIP3    H239341   0.506   3.002   1.727  1.7417 -1.1332  1.1116
 5976TIP3   OH239342   4.359   3.825  10.568  0.5830 -0.1776 -0.7203
 5976TIP3    H139343   4.448   3.789  10.569  0.3936 -0.6577 -0.1230
 5976TIP3    H239344   4.370   3.915  10.597  0.7883 -0.4918  0.2408
 5977TIP3   OH239345   2.823   3.513   2.708 -0.3996 -0.4041  0.2788
 5977TIP3    H139346   2.751   3.544   2.653 -1.2973 -1.4810  0.7861
 5977TIP3    H239347   2.893   3.493   2.647  0.1563  2.3231 -0.0846
 5978TIP3   OH239348   0.716   6.376  15.994 -0.1657  0.6636 -0.6122
 5978TIP3    H139349   0.694   6.431  16.069  0.6287 -0.6553  0.6187
 5978TIP3    H239350   0.793   6.418  15.955  0.3441  0.5385  0.2313
 5979TIP3   OH239351   2.193   3.188  13.316  0.2351 -0.0006  0.1700
 5979TIP3    H139352   2.245   3.236  13.251 -0.3380  0.4315  0.0247
 5979TIP3    H239353   2.184   3.249  13.389 -0.0628 -0.0750  0.1959
 5980TIP3   OH239354   4.300   3.941   5.014  0.3472  0.1010 -0.2488
 5980TIP3    H139355   4.262   3.857   5.040 -1.1002  0.4618 -1.1024
 5980TIP3    H239356   4.294   3.995   5.092  1.3365 -0.5750  0.3258
 5981TIP3   OH239357   0.392   4.365  11.335  0.0307  0.0755  0.1711
 5981TIP3    H139358   0.377   4.407  11.420 -0.3543 -0.0334  0.1609
 5981TIP3    H239359   0.306   4.368  11.292 -0.3004 -1.6434  0.5860
 5982TIP3   OH239360   5.831   4.598  16.958  0.0445  0.3939  0.1065
 5982TIP3    H139361   5.908   4.557  16.999 -1.3236 -0.9729  1.4220
 5982TIP3    H239362   5.827   4.685  16.998  0.3417  0.1077  0.7852
 5983TIP3   OH239363   6.272   3.574  16.551 -0.4931  0.6169 -0.0591
 5983TIP3    H139364   6.187   3.603  16.584 -0.9502  0.3240 -0.9760
 5983TIP3    H239365   6.254   3.535  16.466  0.4481 -0.2024  0.0935
 5984TIP3   OH239366   6.634   6.133  16.750 -0.4248  0.1438  0.2168
 5984TIP3    H139367   6.719   6.100  16.719 -0.3078  0.6178  0.0365
 5984TIP3    H239368   6.608   6.198  16.686 -1.6120 -1.0057 -0.5081
 5985TIP3   OH239369   6.148   5.721  17.048 -0.4945  0.1232 -0.1924
 5985TIP3    H139370   6.187   5.804  17.077 -0.7464 -0.1069  0.8275
 5985TIP3    H239371   6.107   5.742  16.964 -1.5821  1.3301  0.6141
 5986TIP3   OH239372   3.540   5.450   0.119  0.1906  0.4007  0.1174
 5986TIP3    H139373   3.491   5.507   0.178  0.5954  1.6211 -0.6900
 5986TIP3    H239374   3.531   5.491   0.033  2.6405  0.6914 -0.0642
 5987TIP3   OH239375   1.779   2.472  17.181 -0.6167 -0.4751  0.2216
 5987TIP3    H139376   1.866   2.446  17.212  0.1418  1.1742 -0.4189
 5987TIP3    H239377   1.756   2.548  17.233 -1.7561 -0.9579  0.4648
 5988TIP3   OH239378   6.041   0.247  15.634  0.4437  0.3603  0.6534
 5988TIP3    H139379   6.076   0.301  15.705  0.5103  1.1714  0.0095
 5988TIP3    H239380   5.974   0.301  15.593  1.3967  0.4921 -0.8133
 5989TIP3   OH239381   4.994   0.299  14.593 -0.6249 -0.6463 -0.2613
 5989TIP3    H139382   4.945   0.360  14.649 -0.8428  0.4897 -1.6378
 5989TIP3    H239383   4.937   0.223  14.584 -1.6379  0.1805 -0.9030
 5990TIP3   OH239384   1.680   5.816  12.577  0.7621 -0.3256  0.2873
 5990TIP3    H139385   1.691   5.908  12.601 -1.2272 -0.3484  1.5896
 5990TIP3    H239386   1.756   5.772  12.614  2.3605  0.8973 -1.3588
 5991TIP3   OH239387   1.531   6.221   1.201 -0.1314  0.2457 -0.7468
 5991TIP3    H139388   1.608   6.254   1.246 -0.4637  0.8514 -0.6135
 5991TIP3    H239389   1.565   6.179   1.122  0.7843 -3.3668  1.3151
 5992TIP3   OH239390   2.709   1.842  12.327 -0.1715 -0.0113 -0.8560
 5992TIP3    H139391   2.629   1.893  12.340 -1.2498 -1.7357 -0.3515
 5992TIP3    H239392   2.745   1.873  12.244 -1.4183  0.7244 -1.1447
 5993TIP3   OH239393   2.336   6.549   5.682  0.4890  0.6599 -0.1671
 5993TIP3    H139394   2.253   6.533   5.726  0.6018  1.6511  0.4445
 5993TIP3    H239395   2.342   6.645   5.676  1.2242  0.5796 -0.9054
 5994TIP3   OH239396   1.497   3.431   6.465 -0.1646 -0.1003 -0.8155
 5994TIP3    H139397   1.471   3.479   6.386 -1.4380  1.2759  0.3906
 5994TIP3    H239398   1.428   3.450   6.528  0.5864 -1.5722  0.4940
 5995TIP3   OH239399   4.252   0.332  15.365  0.2901 -0.1059  0.0119
 5995TIP3    H139400   4.171   0.281  15.358 -0.0900  0.0136  2.5564
 5995TIP3    H239401   4.226   0.411  15.413  1.7648  0.3580  0.0802
 5996TIP3   OH239402   6.778   3.402   1.375  0.5046  0.0237 -0.3590
 5996TIP3    H139403   6.837   3.407   1.300  1.6342 -0.3518  0.4784
 5996TIP3    H239404   6.740   3.490   1.381 -0.2317 -0.1695 -1.8462
 5997TIP3   OH239405   5.821   3.195  15.332 -0.1985 -0.3761 -0.7368
 5997TIP3    H139406   5.832   3.145  15.251 -0.8743  0.0706 -1.1140
 5997TIP3    H239407   5.765   3.139  15.386  1.6824 -1.4859  0.1619
 5998TIP3   OH239408   1.659   0.590  15.908 -0.1618  0.5771 -0.0406
 5998TIP3    H139409   1.636   0.676  15.873 -0.0518  0.1869 -1.0861
 5998TIP3    H239410   1.655   0.532  15.833  0.2918 -0.2399  0.5610
 5999TIP3   OH239411   6.223   1.260   2.998 -0.0055 -0.0166 -0.0032
 5999TIP3    H139412   6.241   1.179   2.949  0.7649  0.3357 -0.3225
 5999TIP3    H239413   6.288   1.259   3.069 -0.1715  0.1942  0.1506
 6000TIP3   OH239414   2.849   5.519  12.419 -0.5983  0.0660  0.0414
 6000TIP3    H139415   2.914   5.478  12.476 -0.5154 -0.0684 -0.1464
 6000TIP3    H239416   2.790   5.447  12.395  0.3715 -0.2783 -1.4518
 6001TIP3   OH239417   3.879   4.756   5.716  0.5203 -0.2343  0.3243
 6001TIP3    H139418   3.852   4.837   5.759  0.4293 -0.7681  1.3074
 6001TIP3    H239419   3.929   4.784   5.640  0.6732  0.7399  0.7735
 6002TIP3   OH239420   3.749   2.865   3.638 -0.5971 -0.2512 -0.0683
 6002TIP3    H139421   3.695   2.912   3.702 -0.5649  0.6113 -0.6635
 6002TIP3    H239422   3.830   2.914   3.633  0.5630 -1.9008  1.2970
 6003TIP3   OH239423   4.766   1.933   3.803 -0.4863 -0.1838 -0.1347
 6003TIP3    H139424   4.707   1.984   3.747 -0.4513 -0.8276 -0.7680
 6003TIP3    H239425   4.851   1.977   3.793 -0.9021  0.9443  1.0368
 6004TIP3   OH239426   0.506   1.974  14.949  0.4221  0.3265  0.0673
 6004TIP3    H139427   0.483   1.890  14.910 -1.0096  0.3004  0.9186
 6004TIP3    H239428   0.502   1.960  15.044 -0.3840  1.4769  0.2320
 6005TIP3   OH239429   5.379   6.415   6.605  0.1605  0.2184  0.1275
 6005TIP3    H139430   5.449   6.378   6.659  0.4665 -0.3828 -0.6687
 6005TIP3    H239431   5.419   6.427   6.519 -0.7482 -0.2235 -0.3635
 6006TIP3   OH239432   4.281   1.207   1.617 -0.3632 -0.8447  0.2905
 6006TIP3    H139433   4.200   1.199   1.666  0.1986 -0.2886  1.3465
 6006TIP3    H239434   4.268   1.284   1.561 -0.2301 -0.1617  1.1703
 6007TIP3   OH239435   1.760   6.199   4.458  0.1854  0.0318  0.1432
 6007TIP3    H139436   1.710   6.122   4.432 -0.5218  1.0680 -1.7694
 6007TIP3    H239437   1.712   6.235   4.533 -0.3917 -0.4901  0.0301
 6008TIP3   OH239438   3.820   2.493   1.991  0.5652  0.4415  0.0519
 6008TIP3    H139439   3.909   2.506   2.023  0.8018 -1.3180  0.2291
 6008TIP3    H239440   3.829   2.428   1.921 -0.4075  1.3733 -0.9623
 6009TIP3   OH239441   3.600   5.745  13.131 -0.3324  0.3247  0.1982
 6009TIP3    H139442   3.552   5.679  13.180 -0.8270  1.5901  1.4801
 6009TIP3    H239443   3.683   5.754  13.177  0.7426 -1.0262 -1.3416
 6010TIP3   OH239444   0.357   4.588   2.602 -0.1594  0.3321  0.2951
 6010TIP3    H139445   0.411   4.581   2.523  1.2672 -0.0941  1.2545
 6010TIP3    H239446   0.302   4.510   2.600  1.4063 -0.8383  0.7702
 6011TIP3   OH239447   1.977   6.383   4.005 -0.3130 -0.3332 -0.0392
 6011TIP3    H139448   1.913   6.339   4.062  0.4233  0.8359  1.8011
 6011TIP3    H239449   1.924   6.435   3.945 -1.1406 -0.2187  0.7579
 6012TIP3   OH239450   2.215   3.809   5.767 -0.2247  0.0444 -0.3382
 6012TIP3    H139451   2.291   3.855   5.804  0.0802  1.9118 -3.0067
 6012TIP3    H239452   2.178   3.761   5.841  1.1863  2.2666  1.9850
 6013TIP3   OH239453   0.015   5.397   5.453 -0.1995 -0.0219  0.4251
 6013TIP3    H139454   0.101   5.370   5.486  0.0398  0.9831  0.6877
 6013TIP3    H239455  -0.040   5.402   5.531 -0.1486  0.5243  0.4335
 6014TIP3   OH239456   6.071   1.134   2.525  0.0106 -0.0456 -0.4734
 6014TIP3    H139457   6.000   1.168   2.471  0.7208  2.1973 -0.1090
 6014TIP3    H239458   6.145   1.194   2.507  1.5965 -1.8582 -0.3035
 6015TIP3   OH239459   0.751   0.820   3.200 -0.1204 -0.5631 -0.3808
 6015TIP3    H139460   0.672   0.795   3.247  0.2677 -1.4017 -0.1466
 6015TIP3    H239461   0.728   0.901   3.154 -2.2153 -2.5444 -3.1190
 6016TIP3   OH239462   0.092   1.616   2.332 -0.0641 -0.0455  0.3565
 6016TIP3    H139463   0.106   1.666   2.252  0.1263 -1.7077 -0.7011
 6016TIP3    H239464   0.017   1.657   2.374 -0.2706  0.7518 -0.7706
 6017TIP3   OH239465   3.899   1.409  17.116  0.1326  0.3470 -0.0060
 6017TIP3    H139466   3.807   1.397  17.095 -0.3688  2.5168  0.6296
 6017TIP3    H239467   3.926   1.484  17.063  1.5504 -0.2658 -0.1963
 6018TIP3   OH239468   4.884   2.248   2.314  0.1900  0.6209  0.0892
 6018TIP3    H139469   4.822   2.282   2.249 -1.2051 -0.1760  0.9678
 6018TIP3    H239470   4.903   2.323   2.370 -1.1375  0.5330  0.6832
 6019TIP3   OH239471   1.714   0.440   0.073  0.6184  0.0280  0.3183
 6019TIP3    H139472   1.626   0.466   0.102  0.2044 -0.8385 -0.1267
 6019TIP3    H239473   1.699   0.381  -0.000  1.4983 -1.7484  1.4853
 6020TIP3   OH239474   6.196   1.454  14.035 -0.1101 -0.1234 -0.2193
 6020TIP3    H139475   6.193   1.380  14.096  1.5151  0.4543  0.6215
 6020TIP3    H239476   6.145   1.522  14.077 -0.0203 -0.1365 -0.0897
 6021TIP3   OH239477   6.548   3.972   1.181 -0.0512 -0.0964 -0.3222
 6021TIP3    H139478   6.573   4.005   1.267 -0.7740 -1.4456  0.4200
 6021TIP3    H239479   6.459   4.005   1.167  0.4505  1.0409 -1.0712
 6022TIP3   OH239480   5.708   2.125  14.032 -0.5158 -0.2832  0.4064
 6022TIP3    H139481   5.631   2.092  14.079  0.4270  0.6576  2.7417
 6022TIP3    H239482   5.673   2.196  13.977 -1.5929 -1.1444 -0.0524
 6023TIP3   OH239483   0.447   0.841   3.876 -0.0530 -0.8659 -0.1439
 6023TIP3    H139484   0.418   0.812   3.962  1.2536 -2.0409 -0.0667
 6023TIP3    H239485   0.429   0.935   3.874  1.2993 -0.5072  2.0027
 6024TIP3   OH239486   3.003   5.081  14.501  0.0834 -0.0333  0.5447
 6024TIP3    H139487   2.926   5.092  14.557 -0.3996  0.1034 -0.1314
 6024TIP3    H239488   3.006   5.161  14.449  0.9368  0.1486  0.8531
 6025TIP3   OH239489   3.077   5.026   4.672 -0.5415  0.5528 -0.3701
 6025TIP3    H139490   3.096   4.958   4.737 -0.0564 -0.2928 -1.3855
 6025TIP3    H239491   3.131   5.101   4.700 -1.0043  0.5041  0.6950
 6026TIP3   OH239492   5.903   5.632  17.177  0.1535  0.4641  0.1080
 6026TIP3    H139493   5.931   5.630  17.268  0.0589  0.3777  0.1356
 6026TIP3    H239494   5.980   5.660  17.128 -0.2106  1.9951  0.3738
 6027TIP3   OH239495   0.945   4.837  16.846  0.2623 -0.5397 -0.0285
 6027TIP3    H139496   1.010   4.859  16.913 -0.6290 -0.4683  0.8443
 6027TIP3    H239497   0.975   4.884  16.768  1.3267 -0.6307  0.3032
 6028TIP3   OH239498   2.474   4.452   2.824 -0.1185 -0.8711 -0.0910
 6028TIP3    H139499   2.508   4.372   2.785  1.3020  0.3829 -1.5568
 6028TIP3    H239500   2.396   4.472   2.772 -0.9606 -1.6820  0.8020
 6029TIP3   OH239501   0.845   3.044   4.437 -0.0154 -0.4278  0.4634
 6029TIP3    H139502   0.935   3.034   4.467 -0.6638  0.2393  2.8157
 6029TIP3    H239503   0.822   3.134   4.459 -0.2595  0.5350 -3.1500
 6030TIP3   OH239504   0.424   3.939   3.074 -0.1866 -0.3987  0.1116
 6030TIP3    H139505   0.388   3.921   3.160 -1.9109 -1.7366 -0.8260
 6030TIP3    H239506   0.360   3.903   3.013  1.5013 -0.4863 -1.7254
 6031TIP3   OH239507   5.475   2.875  15.820 -0.1510  0.5216 -0.6032
 6031TIP3    H139508   5.391   2.891  15.778 -1.0630 -1.1999  0.4398
 6031TIP3    H239509   5.457   2.807  15.885  2.5646 -2.0052 -2.2300
 6032TIP3   OH239510   1.163   0.582  15.143 -0.4570 -0.6553  0.8572
 6032TIP3    H139511   1.188   0.490  15.131 -0.2224 -0.6419  1.1981
 6032TIP3    H239512   1.094   0.579  15.210  0.0189 -0.5364  1.3664
 6033TIP3   OH239513   0.643   4.130  16.520  0.4087  0.0355 -0.1235
 6033TIP3    H139514   0.635   4.183  16.440  1.4987  1.1440  0.4602
 6033TIP3    H239515   0.622   4.191  16.591 -0.0582 -0.8070  0.4818
 6034TIP3   OH239516   3.300   3.027   1.522  0.2662  0.6319  0.3995
 6034TIP3    H139517   3.348   2.945   1.507  0.1021  0.4318  0.9391
 6034TIP3    H239518   3.221   3.018   1.468 -0.4282 -0.1740  1.5117
 6035TIP3   OH239519   1.177   0.046  15.437  0.5629  0.1354 -0.0218
 6035TIP3    H139520   1.227   0.037  15.518  1.5369  0.2685 -0.5972
 6035TIP3    H239521   1.122   0.124  15.451  1.5353  0.8075  0.0972
 6036TIP3   OH239522   2.197   2.691   3.487 -0.1978 -0.3209 -0.1810
 6036TIP3    H139523   2.145   2.633   3.543  1.6070 -2.5708 -0.6540
 6036TIP3    H239524   2.246   2.631   3.431  3.2593  1.5747  0.5532
 6037TIP3   OH239525   0.743   4.136  15.495 -0.6712  0.1801 -0.3759
 6037TIP3    H139526   0.768   4.072  15.429 -0.5440 -0.9979  0.7680
 6037TIP3    H239527   0.659   4.105  15.527  0.3105 -0.6090  1.6032
 6038TIP3   OH239528   1.878   3.772  10.543  0.5911 -0.4038  0.0244
 6038TIP3    H139529   1.908   3.817  10.464  0.6233 -0.6641 -0.1142
 6038TIP3    H239530   1.784   3.759  10.528  0.7677 -1.3058 -0.4052
 6039TIP3   OH239531   4.019   1.546  12.921 -0.3355  0.2800 -0.2158
 6039TIP3    H139532   3.987   1.596  12.846  1.4637 -1.0867 -2.0017
 6039TIP3    H239533   4.011   1.454  12.895 -1.3254 -0.3401  2.0106
 6040TIP3   OH239534   6.465   0.353  11.658  0.1002 -0.3680  0.4085
 6040TIP3    H139535   6.530   0.327  11.593  0.0021  0.8679 -0.1970
 6040TIP3    H239536   6.504   0.326  11.742  0.4010 -1.6096 -0.1102
 6041TIP3   OH239537   4.863   6.521  15.294  0.3097  0.3857  0.2658
 6041TIP3    H139538   4.859   6.594  15.356  1.4638  0.2445  0.5264
 6041TIP3    H239539   4.837   6.445  15.346  0.2286  0.4324  0.2944
 6042TIP3   OH239540   0.500   2.990   0.155  0.0328  0.1955 -0.2785
 6042TIP3    H139541   0.489   2.896   0.137  3.6972 -0.1785 -1.1966
 6042TIP3    H239542   0.502   2.995   0.251  1.9516 -1.0413 -0.2090
 6043TIP3   OH239543   3.484   5.389  10.798  0.3732 -0.3111 -0.8444
 6043TIP3    H139544   3.554   5.334  10.766  0.3005 -1.6464  1.0910
 6043TIP3    H239545   3.529   5.463  10.840  0.5632 -0.4136 -0.8676
 6044TIP3   OH239546   0.851   5.304   2.639 -0.3819  0.5653  0.1592
 6044TIP3    H139547   0.889   5.252   2.568 -0.4368  2.0554 -1.0133
 6044TIP3    H239548   0.925   5.351   2.677 -0.5626  0.8994  0.1025
 6045TIP3   OH239549   2.802   6.264   5.870  0.1082 -0.2117 -0.0052
 6045TIP3    H139550   2.737   6.237   5.936 -1.1064  1.5691 -0.4105
 6045TIP3    H239551   2.788   6.358   5.859  1.7987 -0.0522 -1.1985
 6046TIP3   OH239552   1.151   6.520  12.509  0.4481  0.2308  0.3699
 6046TIP3    H139553   1.173   6.429  12.530 -1.0156  0.2355  2.2043
 6046TIP3    H239554   1.203   6.572  12.570 -1.0102  0.4249  1.5333
 6047TIP3   OH239555   1.301   2.418   5.268  1.1058  0.6855 -0.3170
 6047TIP3    H139556   1.389   2.429   5.233  0.5380  1.2517 -1.6322
 6047TIP3    H239557   1.279   2.327   5.252  0.8571  0.9377 -1.4603
 6048TIP3   OH239558   6.648   5.226  11.874 -0.2903  0.4603  0.0575
 6048TIP3    H139559   6.707   5.300  11.860  1.3743 -0.8394 -0.2116
 6048TIP3    H239560   6.562   5.265  11.884  0.2602  2.3362 -1.7548
 6049TIP3   OH239561   5.854   6.794  15.695  0.2459 -0.5295  0.6242
 6049TIP3    H139562   5.923   6.860  15.686  0.0402 -0.4560 -0.6009
 6049TIP3    H239563   5.897   6.720  15.739  0.7086  0.0686  1.1942
 6050TIP3   OH239564   6.009   5.947  10.454 -0.1775 -0.3970 -0.3019
 6050TIP3    H139565   6.005   5.855  10.480 -0.6325 -0.4696 -0.6151
 6050TIP3    H239566   5.918   5.972  10.439 -0.0917  0.2248  0.1855
 6051TIP3   OH239567   4.449   5.364  15.586 -0.1864  0.1651  0.2869
 6051TIP3    H139568   4.436   5.271  15.565 -1.2081  0.6942 -1.6765
 6051TIP3    H239569   4.507   5.396  15.517 -1.4939  1.4081 -0.2989
 6052TIP3   OH239570   1.375   3.933   1.420  0.3339 -0.7495  0.5555
 6052TIP3    H139571   1.461   3.904   1.451  0.2763 -2.1445 -0.5034
 6052TIP3    H239572   1.322   3.854   1.416 -0.4256 -0.2167 -0.6495
 6053TIP3   OH239573   1.665   2.560  13.499 -0.2420  0.5901  0.8151
 6053TIP3    H139574   1.666   2.653  13.522  1.6717  1.0520 -0.8407
 6053TIP3    H239575   1.614   2.556  13.418 -0.5067  0.1741  1.0039
 6054TIP3   OH239576   0.651   0.975   4.130  0.1364  0.2107 -0.6054
 6054TIP3    H139577   0.649   1.070   4.141  1.0408  0.0260  1.6647
 6054TIP3    H239578   0.565   0.945   4.161  0.2316  0.2124 -0.3386
 6055TIP3   OH239579   1.603   4.549  11.129 -0.3251  0.2843 -0.2228
 6055TIP3    H139580   1.674   4.608  11.105 -0.1259 -0.2955 -1.1042
 6055TIP3    H239581   1.644   4.482  11.183 -0.2507  0.1107 -0.4910
 6056TIP3   OH239582   4.588   6.390   5.585 -0.1001  0.4398 -0.0111
 6056TIP3    H139583   4.609   6.444   5.662  2.5021  1.8187 -1.5143
 6056TIP3    H239584   4.561   6.453   5.519  0.2150 -0.4032 -0.9698
 6057TIP3   OH239585   5.231   3.602  17.157 -0.5306 -0.2571 -0.2604
 6057TIP3    H139586   5.280   3.589  17.238 -3.0369 -1.9073  1.1414
 6057TIP3    H239587   5.251   3.524  17.104 -0.9182 -0.4960 -0.0623
 6058TIP3   OH239588   2.079   6.333  15.703 -0.5628 -0.1720 -0.4206
 6058TIP3    H139589   2.169   6.312  15.679 -0.6820 -2.5339  0.9550
 6058TIP3    H239590   2.083   6.352  15.797 -1.5135 -0.4201 -0.3166
 6059TIP3   OH239591   1.347   3.675  16.617 -0.2200 -0.0408  0.0713
 6059TIP3    H139592   1.396   3.739  16.567 -1.5465 -0.0590 -1.3429
 6059TIP3    H239593   1.292   3.631  16.552 -0.2752 -1.7355  1.1947
 6060TIP3   OH239594   3.011   6.159  13.615 -0.1061 -0.5073  0.2819
 6060TIP3    H139595   2.956   6.236  13.599  0.4947 -0.4239 -1.5865
 6060TIP3    H239596   2.960   6.086  13.582  0.5669 -0.5258 -0.7387
 6061TIP3   OH239597   2.488   3.685   0.288  0.8074  0.3016  0.3054
 6061TIP3    H139598   2.521   3.637   0.211  1.6329  1.4523 -0.0855
 6061TIP3    H239599   2.505   3.777   0.268 -0.2712  0.7318  1.2656
 6062TIP3   OH239600   6.296   2.845   3.095  0.2342 -0.4843 -0.4333
 6062TIP3    H139601   6.262   2.817   3.180 -1.5570  2.8003  0.1000
 6062TIP3    H239602   6.375   2.895   3.116 -0.2337  0.3675 -0.6611
 6063TIP3   OH239603   5.728   4.139  15.494 -0.1751 -0.0896 -0.6436
 6063TIP3    H139604   5.783   4.085  15.550  2.1841  0.0048 -2.7005
 6063TIP3    H239605   5.653   4.083  15.474 -0.0449 -0.8621  0.8952
 6064TIP3   OH239606   3.830   0.420  13.344 -0.1874  0.4585 -0.0043
 6064TIP3    H139607   3.925   0.430  13.335 -0.1870 -0.1724 -0.7985
 6064TIP3    H239608   3.795   0.508  13.331  0.2355  0.5424 -0.5969
 6065TIP3   OH239609   3.953   2.262  14.932 -0.4217 -0.9804  0.1565
 6065TIP3    H139610   3.941   2.357  14.941 -0.6191 -0.9571 -0.3339
 6065TIP3    H239611   4.033   2.254  14.880  0.3499 -1.1055  1.3261
 6066TIP3   OH239612   2.125   2.413  13.165  0.0739  0.6283 -0.8007
 6066TIP3    H139613   2.217   2.409  13.191 -0.3240  1.2250  0.7854
 6066TIP3    H239614   2.128   2.417  13.069  1.6869  0.6169 -0.7828
 6067TIP3   OH239615   6.431   2.273   5.703 -0.5586 -0.2610  0.2422
 6067TIP3    H139616   6.399   2.241   5.788  0.0731 -0.8119  0.2823
 6067TIP3    H239617   6.374   2.231   5.639  0.6113 -1.9822  0.2595
 6068TIP3   OH239618   4.856   4.873   1.898  0.1050 -0.2773  0.0558
 6068TIP3    H139619   4.864   4.778   1.885  1.8460 -0.0325 -0.9317
 6068TIP3    H239620   4.777   4.897   1.849 -1.0228 -1.3589  1.2764
 6069TIP3   OH239621   0.054   1.140   3.725  0.1588  0.3300  0.3283
 6069TIP3    H139622  -0.040   1.145   3.709  0.0439 -1.1167  0.4046
 6069TIP3    H239623   0.072   1.046   3.733  1.2692  0.6560  2.3334
 6070TIP3   OH239624   3.133   0.478  11.098 -0.1321  0.3132  0.0265
 6070TIP3    H139625   3.115   0.392  11.061 -0.2742  0.5340 -0.4279
 6070TIP3    H239626   3.122   0.539  11.025  0.3305  0.6819  0.2526
 6071TIP3   OH239627   0.715   0.609  12.857 -0.4507  0.4472 -0.2678
 6071TIP3    H139628   0.649   0.675  12.879  0.8572  1.9406 -0.6024
 6071TIP3    H239629   0.786   0.659  12.816  0.5094 -1.2149 -0.7384
 6072TIP3   OH239630   0.039   3.362  11.551 -0.1345  0.3297 -0.8033
 6072TIP3    H139631   0.113   3.368  11.491  1.5037  0.1889  1.0934
 6072TIP3    H239632  -0.029   3.317  11.501  0.8440  0.9451 -2.7873
 6073TIP3   OH239633   2.229   1.034   6.276 -0.7863 -0.2925 -0.0890
 6073TIP3    H139634   2.238   1.025   6.371 -0.9336 -1.9037 -0.2081
 6073TIP3    H239635   2.289   0.968   6.240 -0.9469  0.1062 -1.1174
 6074TIP3   OH239636   6.289   3.028   4.096 -0.2790 -0.2957  0.2817
 6074TIP3    H139637   6.354   3.097   4.086  0.6841 -1.3996 -1.5402
 6074TIP3    H239638   6.210   3.074   4.124  0.0122  1.7409 -1.8678
 6075TIP3   OH239639   1.936   5.916  12.093  0.4865 -0.1706 -0.4802
 6075TIP3    H139640   1.874   5.893  12.163  2.7214  0.8783  2.0589
 6075TIP3    H239641   1.979   5.833  12.072 -3.1510 -1.4482 -4.0429
 6076TIP3   OH239642   3.466   4.994  12.349 -0.2445 -0.4299  0.1226
 6076TIP3    H139643   3.433   5.009  12.260 -1.8575  1.5984  0.9721
 6076TIP3    H239644   3.399   4.939  12.391 -0.9633  0.9472  0.8650
 6077TIP3   OH239645   0.705   6.054   5.834 -0.0508 -0.3452 -0.1656
 6077TIP3    H139646   0.709   5.968   5.875  1.7479  0.5571  1.7119
 6077TIP3    H239647   0.628   6.095   5.873 -1.5120 -1.4008 -1.8184
 6078TIP3   OH239648   2.664   3.650  13.172  0.2787 -0.4392 -0.4625
 6078TIP3    H139649   2.693   3.562  13.197 -1.9109 -1.8165 -2.3029
 6078TIP3    H239650   2.704   3.665  13.087 -0.0444 -0.0410 -0.5466
 6079TIP3   OH239651   0.677   1.857  12.829 -0.0192  0.3108  1.0536
 6079TIP3    H139652   0.608   1.918  12.856 -1.0028 -0.0700 -0.4655
 6079TIP3    H239653   0.630   1.778  12.801  0.9179  0.4072 -0.9925
 6080TIP3   OH239654   6.016   4.994  10.821  0.4297  0.2505 -0.0641
 6080TIP3    H139655   5.985   4.960  10.905 -0.6143 -0.8504 -0.8760
 6080TIP3    H239656   5.944   5.048  10.789 -0.2685 -1.4553 -1.4644
 6081TIP3   OH239657   4.879   1.952  15.568 -0.4787  0.0255 -0.4242
 6081TIP3    H139658   4.882   1.945  15.472 -0.8444  0.4523 -0.4728
 6081TIP3    H239659   4.786   1.950  15.589 -0.3576 -1.4106  0.0429
 6082TIP3   OH239660   2.880   0.026   2.982 -0.0777 -0.4933  0.1590
 6082TIP3    H139661   2.957   0.030   3.039  0.2752  0.5131 -0.3560
 6082TIP3    H239662   2.911  -0.016   2.901  0.2911  1.0603 -0.5449
 6083TIP3   OH239663   0.558   5.890  15.998  0.3184 -0.3316 -0.1249
 6083TIP3    H139664   0.478   5.933  15.967  1.0847  0.2364 -1.3908
 6083TIP3    H239665   0.543   5.797  15.979 -0.8684 -0.5257  1.5629
 6084TIP3   OH239666   5.127   6.744  16.043 -0.3677 -0.7012  0.0473
 6084TIP3    H139667   5.062   6.679  16.070 -0.6752 -0.7496 -0.8038
 6084TIP3    H239668   5.210   6.696  16.041 -0.2269 -0.5655  1.4481
 6085TIP3   OH239669   2.205   1.041   5.611 -0.0095  0.0285 -0.2998
 6085TIP3    H139670   2.187   0.947   5.618 -0.7458  0.2816  1.7354
 6085TIP3    H239671   2.132   1.076   5.560 -0.6473 -0.2625  0.4024
 6086TIP3   OH239672   3.040   2.353   4.444 -0.5385 -0.4550  0.3360
 6086TIP3    H139673   3.073   2.321   4.528  2.2304  1.0155 -0.0791
 6086TIP3    H239674   3.003   2.276   4.402 -0.7782 -1.4956  2.3293
 6087TIP3   OH239675   1.728   0.989  10.579 -0.0121 -0.4791  0.5839
 6087TIP3    H139676   1.767   0.909  10.545 -2.8066 -0.8508 -2.1801
 6087TIP3    H239677   1.769   1.060  10.529  1.2286 -0.2854  1.8259
 6088TIP3   OH239678   6.564   0.618   4.784  0.2924 -0.4516  0.1281
 6088TIP3    H139679   6.613   0.694   4.815 -0.7597  0.5418 -0.5697
 6088TIP3    H239680   6.630   0.562   4.743  1.1167 -0.0390  0.8620
 6089TIP3   OH239681   2.634   1.624   2.430  0.2806  0.2432 -0.2841
 6089TIP3    H139682   2.671   1.590   2.511 -2.3827 -1.5862  0.3041
 6089TIP3    H239683   2.624   1.718   2.446 -1.4009 -0.2635  2.1203
 6090TIP3   OH239684   1.053   3.770  17.074 -0.1859 -0.5852 -0.1533
 6090TIP3    H139685   1.037   3.861  17.096  0.9178 -0.3443 -0.2822
 6090TIP3    H239686   1.111   3.738  17.143 -0.8412 -1.2871  0.0769
 6091TIP3   OH239687   0.021   4.736  15.774  0.2500 -0.0901  0.3563
 6091TIP3    H139688  -0.026   4.805  15.727  1.7673 -0.8180 -2.4045
 6091TIP3    H239689  -0.031   4.723  15.854 -1.8947  1.9392 -0.5650
 6092TIP3   OH239690   6.462   5.189  12.563 -0.3961  0.2498 -0.2974
 6092TIP3    H139691   6.426   5.154  12.482  1.7654 -0.6453 -0.9636
 6092TIP3    H239692   6.496   5.275  12.539  1.6975 -0.6540 -0.8619
 6093TIP3   OH239693   3.288   5.561   3.386 -0.1432  0.4286  0.2415
 6093TIP3    H139694   3.199   5.592   3.369  0.4606  1.9973 -0.3392
 6093TIP3    H239695   3.325   5.547   3.299 -0.5088 -2.4799  0.4848
 6094TIP3   OH239696   4.408   1.329   5.699 -0.5711  0.3650 -0.1361
 6094TIP3    H139697   4.498   1.306   5.725 -0.3763 -0.2123 -1.2377
 6094TIP3    H239698   4.390   1.272   5.624 -1.9081  0.3972  0.1397
 6095TIP3   OH239699   2.331   6.144   5.748  0.4573 -0.4794  0.3186
 6095TIP3    H139700   2.268   6.143   5.820  1.7744 -1.7593  1.5368
 6095TIP3    H239701   2.411   6.181   5.787  1.2634 -1.4138 -0.3789
 6096TIP3   OH239702   0.877   1.846   3.563 -0.1177  0.0454  0.1677
 6096TIP3    H139703   0.898   1.904   3.490  0.4550 -0.0934  0.2173
 6096TIP3    H239704   0.806   1.890   3.610  0.7846  1.0690  0.6171
 6097TIP3   OH239705   3.521   5.529   4.623  0.3379  0.3928 -0.1576
 6097TIP3    H139706   3.431   5.556   4.639 -0.0073 -1.0711  0.6126
 6097TIP3    H239707   3.540   5.467   4.694  1.2707 -0.8278 -1.4089
 6098TIP3   OH239708   4.874   0.834  14.617 -0.3226  0.1029 -0.6072
 6098TIP3    H139709   4.898   0.757  14.565  0.4090 -0.0600 -0.0327
 6098TIP3    H239710   4.935   0.834  14.691 -0.3511  1.1980 -0.5643
 6099TIP3   OH239711   5.147   5.440   3.759 -0.0622 -0.1268  0.0857
 6099TIP3    H139712   5.137   5.360   3.708  1.4459  0.4140 -1.1517
 6099TIP3    H239713   5.063   5.451   3.804 -0.2336 -2.5005  0.4878
 6100TIP3   OH239714   4.527   1.833  13.698 -0.4507 -0.0115 -0.6745
 6100TIP3    H139715   4.602   1.788  13.659 -1.0362 -0.8854 -0.7902
 6100TIP3    H239716   4.450   1.795  13.657 -1.1777 -1.7672  2.0187
 6101TIP3   OH239717   1.962   0.572  12.426  0.4068 -0.6028 -0.1481
 6101TIP3    H139718   1.937   0.618  12.346  0.5127  0.7198  0.5547
 6101TIP3    H239719   1.945   0.480  12.406 -1.3210 -0.1421 -1.0670
 6102TIP3   OH239720   5.663   2.921   3.874  0.4316  0.3325  0.1350
 6102TIP3    H139721   5.627   2.979   3.941  1.9231 -0.9999  2.1967
 6102TIP3    H239722   5.723   2.978   3.824  0.5343  0.9834  0.9770
 6103TIP3   OH239723   0.273   0.279  14.241  0.2279 -0.2677  0.2513
 6103TIP3    H139724   0.261   0.245  14.330 -0.2438 -1.8787 -0.3762
 6103TIP3    H239725   0.331   0.354  14.251  0.4844 -0.6467  1.8747
 6104TIP3   OH239726   1.244   1.755   1.267 -0.3642  0.4114  0.0701
 6104TIP3    H139727   1.151   1.763   1.291 -0.0294  3.0101  0.7526
 6104TIP3    H239728   1.262   1.661   1.278 -2.5816  0.0195  1.1748
 6105TIP3   OH239729   4.992   1.875  15.284  0.0299 -0.3760  0.4036
 6105TIP3    H139730   5.083   1.875  15.254 -0.2584  0.8308 -0.5997
 6105TIP3    H239731   4.941   1.879  15.203 -0.9420 -1.4251  0.9399
 6106TIP3   OH239732   5.200   3.594   5.063 -0.5264 -0.1091 -0.3573
 6106TIP3    H139733   5.235   3.529   5.124  0.4008  2.1085  1.6403
 6106TIP3    H239734   5.234   3.567   4.978 -0.6642 -2.5167  0.2645
 6107TIP3   OH239735   1.153   1.968  12.041 -0.1121  0.1373  0.0634
 6107TIP3    H139736   1.155   2.063  12.047 -1.4013  0.2020 -0.3704
 6107TIP3    H239737   1.197   1.949  11.958  0.6588  0.3034  0.4202
 6108TIP3   OH239738   5.868   3.348   2.882  0.0090  0.0796 -0.0013
 6108TIP3    H139739   5.814   3.280   2.922  1.1817  0.2474  1.9738
 6108TIP3    H239740   5.843   3.429   2.927  1.9406  0.1405  1.0623
 6109TIP3   OH239741   1.951   2.277  16.442  0.1681  0.1302 -0.0721
 6109TIP3    H139742   1.920   2.192  16.475  0.7031 -0.5032 -1.1384
 6109TIP3    H239743   2.045   2.264  16.428  0.1312  0.6868 -0.8656
 6110TIP3   OH239744   2.910   6.193  17.042 -0.1187  0.4112 -0.1186
 6110TIP3    H139745   2.912   6.200  16.946  3.9928 -0.2446 -0.2476
 6110TIP3    H239746   2.932   6.281  17.073 -3.0485  1.0711  0.4524
 6111TIP3   OH239747   1.834   2.682  11.179 -0.0221 -0.0355  0.1047
 6111TIP3    H139748   1.810   2.761  11.131 -1.9579 -0.2990  0.5431
 6111TIP3    H239749   1.877   2.714  11.258 -0.6260  0.5961  0.1927
 6112TIP3   OH239750   5.430   5.576   3.837 -0.2502  0.2572  0.4467
 6112TIP3    H139751   5.413   5.485   3.859  2.0665 -0.3725 -0.0833
 6112TIP3    H239752   5.458   5.617   3.919 -0.8009  0.3734  0.5798
 6113TIP3   OH239753   0.080   1.909  16.979 -0.2871 -0.1511  0.0939
 6113TIP3    H139754   0.121   1.881  17.061 -0.0042 -0.5466 -0.1792
 6113TIP3    H239755   0.134   1.981  16.948  0.8980 -1.3964 -0.8415
 6114TIP3   OH239756   6.187   3.029  15.695  0.0504 -0.2454 -0.5860
 6114TIP3    H139757   6.151   3.078  15.621 -1.1666 -1.2710 -0.6931
 6114TIP3    H239758   6.222   2.949  15.656  2.7658  0.8198 -0.5195
 6115TIP3   OH239759   5.066   6.534  11.105  0.5158 -0.1613 -0.2087
 6115TIP3    H139760   5.157   6.522  11.132  1.4499  1.2719 -2.4190
 6115TIP3    H239761   5.071   6.587  11.025 -2.3012  0.6480  0.0172
 6116TIP3   OH239762   1.032   5.963  16.206 -0.0028 -0.4241 -0.1262
 6116TIP3    H139763   1.040   5.887  16.148  0.9071 -1.2091  0.9857
 6116TIP3    H239764   1.062   6.037  16.153  0.6647 -1.0925 -0.7119
 6117TIP3   OH239765   1.898   1.118  14.143 -0.1385 -0.5740  0.0636
 6117TIP3    H139766   1.831   1.053  14.166 -0.0893 -0.5552  0.2652
 6117TIP3    H239767   1.930   1.149  14.228  0.6499 -1.1251 -0.0279
 6118TIP3   OH239768   2.255   4.029  14.248  0.5263 -0.1589  0.0260
 6118TIP3    H139769   2.301   3.995  14.325  1.1840  0.1410 -0.2285
 6118TIP3    H239770   2.275   3.967  14.178  1.5049  0.5763 -0.3702
 6119TIP3   OH239771   2.934   1.627  13.500 -0.1191 -0.6940 -0.3061
 6119TIP3    H139772   2.981   1.548  13.529 -0.1876 -1.0485 -1.1231
 6119TIP3    H239773   2.843   1.611  13.525  0.0287 -0.4198  0.4359
 6120TIP3   OH239774   3.929   4.509   2.849 -0.0313  0.3396  0.0788
 6120TIP3    H139775   3.867   4.546   2.911  0.5223 -1.2194  1.6629
 6120TIP3    H239776   3.990   4.580   2.831  0.1190  0.7129  1.8103
 6121TIP3   OH239777   1.162   2.389  12.572 -0.1400 -0.0783 -0.3294
 6121TIP3    H139778   1.209   2.472  12.578 -0.2201  0.1258 -2.1844
 6121TIP3    H239779   1.226   2.324  12.602  0.1896  0.5365  0.3569
 6122TIP3   OH239780   6.127   3.621   3.830 -0.1856  0.2058  0.1694
 6122TIP3    H139781   6.222   3.614   3.836 -0.2824 -0.3150  1.3457
 6122TIP3    H239782   6.112   3.702   3.780  0.8729  0.5673  0.4098
 6123TIP3   OH239783   3.344   3.974   3.881  0.1826 -0.2548 -0.3120
 6123TIP3    H139784   3.291   3.896   3.864 -3.4686  1.1045  3.3194
 6123TIP3    H239785   3.318   4.036   3.813 -1.1101 -0.4164  0.0232
 6124TIP3   OH239786   5.491   5.720  15.313  0.2455  0.0891  0.3573
 6124TIP3    H139787   5.489   5.762  15.399 -3.9930 -0.5898  0.7923
 6124TIP3    H239788   5.504   5.627  15.331  1.0277  0.1446  0.1028
 6125TIP3   OH239789   2.896   3.050   1.571 -0.0791  0.3966 -0.1943
 6125TIP3    H139790   2.945   3.123   1.610  0.0819  0.3500 -0.3079
 6125TIP3    H239791   2.952   3.019   1.500 -0.3625  0.4734 -0.4571
 6126TIP3   OH239792   0.935   6.233   4.910 -0.1227  0.9723 -0.2049
 6126TIP3    H139793   0.939   6.282   4.992  0.2159  1.0562 -0.2703
 6126TIP3    H239794   0.979   6.151   4.929  0.0255  1.0232 -0.3217
 6127TIP3   OH239795   3.476   2.583   0.264  0.4107  0.1333  0.0705
 6127TIP3    H139796   3.546   2.634   0.305  0.8487 -0.0989 -0.3852
 6127TIP3    H239797   3.430   2.646   0.208 -0.0220  0.3888  0.6992
 6128TIP3   OH239798   4.119   4.952   4.553 -0.1903  0.5800 -0.0010
 6128TIP3    H139799   4.159   4.905   4.626 -0.7379 -0.0587 -0.1024
 6128TIP3    H239800   4.030   4.918   4.548 -0.9440  2.3326  0.5543
 6129TIP3   OH239801   4.140   5.102   2.731  0.3370  0.1392  0.1286
 6129TIP3    H139802   4.158   5.024   2.784  0.0657 -0.7331 -1.0324
 6129TIP3    H239803   4.070   5.075   2.672  0.8142  1.0075 -0.8605
 6130TIP3   OH239804   1.452   3.155   0.195 -0.1438  0.6637 -0.1769
 6130TIP3    H139805   1.530   3.099   0.199 -0.9344 -0.3930  1.2141
 6130TIP3    H239806   1.471   3.227   0.256 -0.1600  0.5477 -0.0359
 6131TIP3   OH239807   3.180   6.685  14.738 -0.1394  0.5634 -0.4491
 6131TIP3    H139808   3.167   6.780  14.731 -0.3477  0.6673  1.0527
 6131TIP3    H239809   3.130   6.660  14.816  0.1699 -0.7396 -0.6523
 6132TIP3   OH239810   3.960   1.319   3.568  0.0910 -0.4147  0.0119
 6132TIP3    H139811   3.993   1.364   3.491 -0.4957 -0.1726 -0.1072
 6132TIP3    H239812   3.941   1.388   3.631 -3.7605 -0.0562 -1.2617
 6133TIP3   OH239813   4.325   3.429   2.004  0.2140  0.0265  0.2075
 6133TIP3    H139814   4.377   3.357   1.966  1.0777  0.0622  1.2762
 6133TIP3    H239815   4.322   3.410   2.097 -1.6037  0.1263  0.2002
 6134TIP3   OH239816   2.830   3.904  12.638 -0.4004  0.2210 -0.3502
 6134TIP3    H139817   2.881   3.961  12.580 -1.5499  1.2060 -0.4419
 6134TIP3    H239818   2.823   3.952  12.720  0.4463 -0.7750  0.3414
 6135TIP3   OH239819   0.515   4.630  15.558  0.1189 -0.6044  0.4046
 6135TIP3    H139820   0.526   4.614  15.464  1.3116  2.3675 -0.0707
 6135TIP3    H239821   0.421   4.641  15.570 -0.1459 -1.9516 -0.2103
 6136TIP3   OH239822   0.157   2.636  12.711 -0.1375 -0.0529  0.2640
 6136TIP3    H139823   0.194   2.625  12.799  0.6680  0.1541 -0.0440
 6136TIP3    H239824   0.160   2.730  12.695 -2.1093  0.1483  0.7781
 6137TIP3   OH239825   3.167   4.533   3.132  0.2325 -0.6166 -0.2373
 6137TIP3    H139826   3.185   4.589   3.056 -0.7624  1.6881  1.1303
 6137TIP3    H239827   3.086   4.488   3.110  0.7722 -1.1739 -1.1536
 6138TIP3   OH239828   2.608   5.403  17.026  0.1773 -1.2427 -0.8468
 6138TIP3    H139829   2.661   5.427  16.950 -0.4477  2.3613 -0.3181
 6138TIP3    H239830   2.519   5.426  17.001  0.1135  1.3794  1.3072
 6139TIP3   OH239831   2.739   5.879  15.188  0.5733 -0.6129  0.4577
 6139TIP3    H139832   2.741   5.931  15.269  2.5810  0.7927 -0.4302
 6139TIP3    H239833   2.803   5.809  15.203  0.9525 -0.3471  0.0846
 6140TIP3   OH239834   3.153   4.237   2.940 -0.1483  0.3310 -0.4371
 6140TIP3    H139835   3.100   4.316   2.949 -0.2153  0.2091  0.3398
 6140TIP3    H239836   3.158   4.202   3.029  1.1486  0.2877 -0.4984
 6141TIP3   OH239837   0.012   6.202   3.245 -0.0730 -0.4893 -0.5474
 6141TIP3    H139838   0.077   6.247   3.299 -0.1116 -1.1450  0.0656
 6141TIP3    H239839   0.042   6.215   3.155  0.3031  0.1375 -0.3405
 6142TIP3   OH239840   0.271   3.390  15.677 -0.1860 -0.1554  0.1711
 6142TIP3    H139841   0.222   3.339  15.741 -1.5040 -0.1650 -0.7859
 6142TIP3    H239842   0.213   3.393  15.600  0.7238  1.0628 -0.5013
 6143TIP3   OH239843   4.085   5.081  12.762  0.2657  0.3482  0.3062
 6143TIP3    H139844   4.156   5.019  12.745 -1.3559 -1.2785 -0.9106
 6143TIP3    H239845   4.121   5.142  12.826  2.0199 -1.7060  1.3984
 6144TIP3   OH239846   0.974   2.633   3.688 -0.4289 -0.2003  0.0351
 6144TIP3    H139847   0.924   2.682   3.753 -2.0067  0.8412 -1.8335
 6144TIP3    H239848   0.908   2.603   3.626  0.9245 -1.7841 -0.7012
 6145TIP3   OH239849   4.906   2.636   1.414  0.6828  0.0400  0.1241
 6145TIP3    H139850   4.843   2.706   1.396  0.0675 -0.8533 -1.4718
 6145TIP3    H239851   4.976   2.650   1.350  0.2965 -1.0527 -0.5820
 6146TIP3   OH239852   5.408   1.200  15.194  0.6957  0.0243  0.3533
 6146TIP3    H139853   5.478   1.262  15.175 -0.3461  1.1597  0.0751
 6146TIP3    H239854   5.401   1.146  15.115  0.4904  0.6602 -0.0632
 6147TIP3   OH239855   0.755   3.963   4.352  0.1898  0.0535  0.6226
 6147TIP3    H139856   0.785   3.941   4.264 -1.4365  0.1332  0.0173
 6147TIP3    H239857   0.748   3.879   4.397 -0.4156 -0.1449  0.1763
 6148TIP3   OH239858   1.543   3.462   5.675 -0.5746  0.1363  0.4662
 6148TIP3    H139859   1.616   3.467   5.613 -0.2100  1.5264  0.9557
 6148TIP3    H239860   1.473   3.511   5.632 -1.3209 -1.3725 -0.0941
 6149TIP3   OH239861   1.382   0.737   0.573  0.6365 -0.7629 -0.1773
 6149TIP3    H139862   1.461   0.790   0.587 -0.2517  0.2669  1.3667
 6149TIP3    H239863   1.337   0.780   0.500  0.8674 -0.5717 -0.2082
 6150TIP3   OH239864   3.468   3.027  15.542  0.4449  0.3211 -0.0021
 6150TIP3    H139865   3.470   2.992  15.453  0.3649  0.7395 -0.1718
 6150TIP3    H239866   3.477   3.121  15.531 -0.4604  0.4631  0.3723
 6151TIP3   OH239867   1.814   0.690   2.885  0.0196 -0.3747  0.0909
 6151TIP3    H139868   1.755   0.702   2.959  0.0589 -3.3052  0.7130
 6151TIP3    H239869   1.899   0.719   2.918 -0.1605 -0.6706  0.8278
 6152TIP3   OH239870   5.249   0.208  16.109 -0.3170 -0.3924 -0.2586
 6152TIP3    H139871   5.181   0.146  16.083 -1.1433  0.5236 -0.3295
 6152TIP3    H239872   5.210   0.294  16.095  0.4667  0.1474  0.7256
 6153TIP3   OH239873   5.420   0.137   3.484  0.2608  0.2490  0.1576
 6153TIP3    H139874   5.355   0.183   3.537  0.2307 -0.1965  0.5187
 6153TIP3    H239875   5.378   0.123   3.399 -0.5237 -0.9649  0.7167
 6154TIP3   OH239876   6.446   1.536   2.191  0.1879  0.2286  0.0911
 6154TIP3    H139877   6.428   1.620   2.233  0.4940  1.5010 -2.1555
 6154TIP3    H239878   6.542   1.527   2.197  0.2260  0.3848 -0.2919
 6155TIP3   OH239879   3.248   1.156   5.047  0.3343 -0.0724 -0.1752
 6155TIP3    H139880   3.185   1.144   5.118  1.7484  0.1564  1.1745
 6155TIP3    H239881   3.215   1.231   4.997 -1.7577 -1.4950 -1.0091
 6156TIP3   OH239882   0.801   1.536  11.377 -0.4378  0.0859  0.3513
 6156TIP3    H139883   0.809   1.574  11.290  1.1473  0.4013  0.5991
 6156TIP3    H239884   0.711   1.555  11.404 -0.2786  1.9560 -0.3088
 6157TIP3   OH239885   1.679   1.839  10.671 -0.8445 -0.2715 -0.6364
 6157TIP3    H139886   1.743   1.905  10.642 -0.9948  0.3425  0.4033
 6157TIP3    H239887   1.595   1.870  10.638 -0.6863 -0.8579 -1.6357
 6158TIP3   OH239888   5.101   4.297  16.742  0.1548 -0.6065 -0.5165
 6158TIP3    H139889   5.186   4.304  16.698  0.4829 -1.0020  0.0515
 6158TIP3    H239890   5.044   4.357  16.693  0.7758 -0.2804 -0.8520
 6159TIP3   OH239891   0.385   5.236  15.189 -0.5484 -0.9962  0.4488
 6159TIP3    H139892   0.407   5.206  15.101 -1.3949  1.4994 -0.6807
 6159TIP3    H239893   0.467   5.270  15.224 -0.3798 -1.2902  0.3465
 6160TIP3   OH239894   3.733   3.912  14.906 -0.4880  0.3694  0.2795
 6160TIP3    H139895   3.775   3.876  14.984 -0.6281  0.7615  0.5394
 6160TIP3    H239896   3.726   3.838  14.846 -1.7787 -0.3067  1.2236
 6161TIP3   OH239897   6.176   4.298   3.140 -0.0944  0.0745  0.2488
 6161TIP3    H139898   6.083   4.301   3.159 -0.3549  2.1670 -1.0020
 6161TIP3    H239899   6.195   4.383   3.101  2.1041 -0.7183 -0.5755
 6162TIP3   OH239900   1.558   0.672   5.036 -0.2483 -0.2344  0.0373
 6162TIP3    H139901   1.646   0.634   5.037 -0.0230  0.2286 -0.8173
 6162TIP3    H239902   1.571   0.764   5.061 -0.2936  0.1711 -1.3392
 6163TIP3   OH239903   1.820   4.935   1.549  0.2913 -0.0641  0.1937
 6163TIP3    H139904   1.759   4.902   1.614 -2.5761  1.5704 -1.4383
 6163TIP3    H239905   1.796   4.890   1.468  0.9545  0.9504 -0.6004
 6164TIP3   OH239906   2.855   3.636  14.402 -0.8337 -0.3167  0.9190
 6164TIP3    H139907   2.811   3.721  14.404 -2.2590 -0.9387 -0.9635
 6164TIP3    H239908   2.923   3.646  14.335 -2.6867 -1.3259 -1.2380
 6165TIP3   OH239909   1.218   6.630   0.194 -0.4530 -0.3016 -0.4680
 6165TIP3    H139910   1.270   6.618   0.114  0.7988  0.6020  0.1592
 6165TIP3    H239911   1.180   6.718   0.184 -0.9847 -0.5301 -0.4437
 6166TIP3   OH239912   6.747   4.199   1.124  0.9757  0.2536 -0.2203
 6166TIP3    H139913   6.720   4.170   1.212 -1.0179 -3.1937 -1.7601
 6166TIP3    H239914   6.667   4.230   1.083  1.6863  0.8824 -1.1892
 6167TIP3   OH239915   0.075   4.055  13.619  0.4201  0.2842  0.1279
 6167TIP3    H139916  -0.006   4.096  13.649  0.6071  0.0899  0.9170
 6167TIP3    H239917   0.084   3.977  13.675  0.1725 -0.7429 -1.2030
 6168TIP3   OH239918   5.690   4.764  14.761 -0.4727 -0.1181  0.0216
 6168TIP3    H139919   5.634   4.778  14.838 -0.3122  2.0846 -0.1865
 6168TIP3    H239920   5.761   4.708  14.793 -1.2273 -0.5058  1.0639
 6169TIP3   OH239921   5.327   3.020   0.477  0.0619 -0.5300 -0.0791
 6169TIP3    H139922   5.249   2.975   0.444 -0.4152  0.5612 -0.4981
 6169TIP3    H239923   5.401   2.970   0.442 -0.4532 -0.7893 -0.8067
 6170TIP3   OH239924   1.588   3.878  17.085 -0.2855  0.1237  0.2829
 6170TIP3    H139925   1.623   3.859  16.999  0.2910  1.1371  0.2689
 6170TIP3    H239926   1.513   3.936  17.068  0.1568  0.7657  0.4727
 6171TIP3   OH239927   4.310   5.772   2.147 -0.2305 -0.1684  0.8703
 6171TIP3    H139928   4.381   5.741   2.092 -2.3636 -2.7271 -0.6668
 6171TIP3    H239929   4.300   5.704   2.214 -2.4628 -0.9304 -0.1556
 6172TIP3   OH239930   0.791   0.608   1.649  0.5506 -0.6768  0.7637
 6172TIP3    H139931   0.884   0.589   1.645  0.7830  0.6107 -0.3036
 6172TIP3    H239932   0.750   0.522   1.662  1.7128 -1.6265 -1.2990
 6173TIP3   OH239933   3.532   2.764  10.958 -0.0854  0.2766 -0.8582
 6173TIP3    H139934   3.464   2.721  11.009  1.3709  0.5719  1.4969
 6173TIP3    H239935   3.522   2.729  10.870 -2.5964 -0.4443 -0.3721
 6174TIP3   OH239936   1.845   4.832  13.537  0.0559  0.0818  0.6033
 6174TIP3    H139937   1.817   4.795  13.621 -0.7714  0.4154  0.4807
 6174TIP3    H239938   1.788   4.908  13.524  0.7727  0.5493  0.1591
 6175TIP3   OH239939   6.395   2.910  14.752 -0.0629  0.6343  0.4064
 6175TIP3    H139940   6.488   2.915  14.734  0.1812  0.1847  1.4524
 6175TIP3    H239941   6.353   2.958  14.681  0.9771  1.0126  0.0464
 6176TIP3   OH239942   5.620   6.441  14.463 -0.0448 -0.4977 -0.1090
 6176TIP3    H139943   5.620   6.458  14.557 -0.3743  1.3446 -0.4071
 6176TIP3    H239944   5.537   6.477  14.432 -0.0739 -1.3434 -1.0793
 6177TIP3   OH239945   0.109   6.361   5.655 -0.3186  0.2226  0.6958
 6177TIP3    H139946   0.016   6.343   5.640 -1.0591  1.4329  3.1904
 6177TIP3    H239947   0.150   6.348   5.570 -3.1787  2.0355 -1.1334
 6178TIP3   OH239948   3.950   1.137   2.604 -0.2450  0.8620 -0.2426
 6178TIP3    H139949   3.874   1.190   2.629 -1.1868 -1.5897  2.8431
 6178TIP3    H239950   4.026   1.191   2.627 -1.1537  1.2409  2.1740
 6179TIP3   OH239951   2.341   2.145  16.440 -0.6214 -0.3185  0.4481
 6179TIP3    H139952   2.346   2.179  16.529  0.0736  2.1153 -0.4176
 6179TIP3    H239953   2.308   2.219  16.388  1.4829 -0.7502 -1.6967
 6180TIP3   OH239954   2.938   5.749  16.929  0.3597 -0.1693 -0.2185
 6180TIP3    H139955   2.974   5.820  16.982  0.3855 -0.3210 -0.0307
 6180TIP3    H239956   2.846   5.745  16.953  0.7621 -1.5134  1.2921
 6181TIP3   OH239957   3.463   5.140   2.246 -0.8331  0.1520  0.0119
 6181TIP3    H139958   3.367   5.142   2.238 -0.7984  0.2730 -0.4147
 6181TIP3    H239959   3.489   5.232   2.252 -0.7216  0.1328 -0.1627
 6182TIP3   OH239960   5.319   1.174  13.921  0.4251  0.0271  0.4638
 6182TIP3    H139961   5.392   1.184  13.860 -1.6218  1.7391 -1.9375
 6182TIP3    H239962   5.279   1.090  13.897 -0.9802  1.1545 -1.4278
 6183TIP3   OH239963   5.531   5.082  11.216 -0.1569  0.2533 -0.1084
 6183TIP3    H139964   5.541   5.048  11.127 -0.1365 -1.4047  0.4777
 6183TIP3    H239965   5.592   5.155  11.222  0.0112  0.2369 -1.3815
 6184TIP3   OH239966   1.658   2.367   3.163 -0.2298 -0.1551  0.0503
 6184TIP3    H139967   1.662   2.280   3.203  0.2800  0.1635  0.7174
 6184TIP3    H239968   1.699   2.356   3.077 -0.2933 -0.6044  0.0747
 6185TIP3   OH239969   5.630   5.812  15.047  0.3177 -0.0162  0.2515
 6185TIP3    H139970   5.565   5.771  15.104  1.5429 -0.1535  1.6298
 6185TIP3    H239971   5.671   5.879  15.102  2.2056 -0.7921 -0.1224
 6186TIP3   OH239972   5.509   1.604  14.563  0.6734  0.1573 -0.4472
 6186TIP3    H139973   5.581   1.541  14.572 -0.5153 -1.2058 -0.1223
 6186TIP3    H239974   5.432   1.550  14.546 -0.3091  1.5735 -0.6601
 6187TIP3   OH239975   4.134   2.092  12.296  0.0966 -0.1509 -0.1711
 6187TIP3    H139976   4.193   2.134  12.234  0.6504 -1.2550 -0.4149
 6187TIP3    H239977   4.129   2.001  12.267 -1.5753 -0.1340 -0.0301
 6188TIP3   OH239978   2.302   2.974   2.031 -0.1012  0.3115  0.5011
 6188TIP3    H139979   2.296   2.921   2.111 -0.9983  1.4726  1.2333
 6188TIP3    H239980   2.387   3.016   2.036 -0.5983  1.2244  1.4030
 6189TIP3   OH239981   3.834   3.944   5.332 -0.1217  0.1428  0.2779
 6189TIP3    H139982   3.842   3.856   5.369 -1.5921  0.3698  1.2323
 6189TIP3    H239983   3.878   3.939   5.248  2.8388 -0.5832  1.7316
 6190TIP3   OH239984   4.689   2.765  16.414 -0.1638 -0.3728 -0.5528
 6190TIP3    H139985   4.704   2.817  16.493 -0.8430  0.5136 -0.9957
 6190TIP3    H239986   4.594   2.763  16.404 -0.0771  0.1714 -1.7562
 6191TIP3   OH239987   1.001   2.582   0.052 -0.1463 -0.4314  0.1788
 6191TIP3    H139988   0.979   2.516  -0.013 -1.5273  1.2168 -1.1174
 6191TIP3    H239989   1.083   2.620   0.021 -0.7840  0.3273 -0.5999
 6192TIP3   OH239990   0.309   3.623   1.542  0.3543  0.6117 -0.2113
 6192TIP3    H139991   0.356   3.589   1.466  0.6615  1.2074 -0.2943
 6192TIP3    H239992   0.222   3.645   1.508  0.0551 -0.3439 -0.0919
 6193TIP3   OH239993   5.618   0.036   3.746 -0.1193 -0.3976 -0.5767
 6193TIP3    H139994   5.656   0.098   3.685  2.1613 -1.0110  0.1280
 6193TIP3    H239995   5.654  -0.049   3.720 -0.6230 -0.9437  0.4333
 6194TIP3   OH239996   4.799   6.320   1.141 -0.0896  0.4531 -0.6327
 6194TIP3    H139997   4.831   6.250   1.198  1.3522  0.8440 -0.9131
 6194TIP3    H239998   4.777   6.391   1.200  0.5156  0.5243 -0.4823
 6195TIP3   OH239999   2.984   3.569  11.378  0.4596 -0.0272  0.0321
 6195TIP3    H140000   2.972   3.558  11.284  0.8217  0.8076 -0.1141
 6195TIP3    H240001   2.980   3.480  11.413  2.0139 -0.5210 -0.9682
 6196TIP3   OH240002   6.227   2.522   3.991  0.0682 -0.2890 -0.2550
 6196TIP3    H140003   6.230   2.598   4.048  1.3431 -0.8595  0.4847
 6196TIP3    H240004   6.201   2.450   4.048  3.3249 -1.2708  0.1818
 6197TIP3   OH240005   4.554   2.743   1.526 -0.0699  0.5715  0.1818
 6197TIP3    H140006   4.499   2.678   1.483 -2.0469  0.2048  3.0098
 6197TIP3    H240007   4.542   2.823   1.475 -2.5337  0.2410  0.1549
 6198TIP3   OH240008   1.305   4.043  16.187  0.1866  0.1797 -0.0154
 6198TIP3    H140009   1.217   4.068  16.159  0.8062  0.5961 -1.7584
 6198TIP3    H240010   1.327   3.969  16.130  0.3036 -1.1112  1.6366
 6199TIP3   OH240011   2.025   4.291  15.629 -0.2604 -0.4795 -0.2309
 6199TIP3    H140012   2.119   4.275  15.624 -0.6039 -3.9085  1.2577
 6199TIP3    H240013   2.018   4.378  15.670  2.2426 -0.2504 -0.1245
 6200TIP3   OH240014   3.626   1.184  11.031 -0.1008  0.3497  0.5737
 6200TIP3    H140015   3.665   1.099  11.050  0.2150 -0.1141 -1.7431
 6200TIP3    H240016   3.532   1.167  11.028 -0.1068  0.2962  1.0231
 6201TIP3   OH240017   0.163   3.714   6.267 -0.2848  0.2945  0.4907
 6201TIP3    H140018   0.200   3.699   6.354  0.1618  1.1322  0.4593
 6201TIP3    H240019   0.211   3.790   6.234 -0.2030 -0.2280 -0.6311
 6202TIP3   OH240020   0.528   6.338  13.480 -0.2265  0.1682  0.0496
 6202TIP3    H140021   0.609   6.369  13.440 -1.1738  1.2159 -1.1042
 6202TIP3    H240022   0.531   6.243  13.468  0.5679  0.2502 -0.4819
 6203TIP3   OH240023   5.603   6.165  11.581 -0.3664  0.0474 -0.0251
 6203TIP3    H140024   5.690   6.202  11.600 -1.1877  1.1225  1.9680
 6203TIP3    H240025   5.614   6.070  11.593  0.8153  0.0084 -1.1633
 6204TIP3   OH240026   4.920   2.494   4.745 -0.4808  0.0098  0.2651
 6204TIP3    H140027   4.830   2.496   4.778 -1.4713  1.9657 -2.2539
 6204TIP3    H240028   4.912   2.468   4.654  1.4126  1.0375 -0.2473
 6205TIP3   OH240029   2.934   3.459  14.825 -0.2624 -0.1809  0.0695
 6205TIP3    H140030   2.909   3.435  14.914 -1.9958 -2.1076 -0.8525
 6205TIP3    H240031   2.882   3.538  14.807 -0.4420 -0.1872  0.5349
 6206TIP3   OH240032   2.096   3.890  11.386  0.1702 -0.2448 -0.1258
 6206TIP3    H140033   2.104   3.801  11.350  1.0677 -0.7613  1.2512
 6206TIP3    H240034   2.185   3.912  11.413 -0.3963  0.2671  1.3694
 6207TIP3   OH240035   3.228   1.749  15.009 -0.5679  0.0333 -0.0595
 6207TIP3    H140036   3.314   1.711  15.029 -0.0052  0.7915 -0.9187
 6207TIP3    H240037   3.179   1.741  15.090  0.4310 -0.1358  0.5493
 6208TIP3   OH240038   4.816   4.303  15.311  0.1605  0.0802 -0.5216
 6208TIP3    H140039   4.782   4.274  15.226 -0.0202 -0.0415 -0.4089
 6208TIP3    H240040   4.758   4.376  15.335 -2.1717 -2.1196  1.1915
 6209TIP3   OH240041   2.739   2.302   4.080 -0.1743 -0.0290 -0.4867
 6209TIP3    H140042   2.664   2.281   4.025  2.4753 -2.1703 -3.6586
 6209TIP3    H240043   2.748   2.397   4.073 -2.7418  0.3794  0.4369
 6210TIP3   OH240044   1.710   2.773  11.580  0.1633 -0.1314  0.3156
 6210TIP3    H140045   1.746   2.698  11.533 -0.6330  0.1740 -0.8276
 6210TIP3    H240046   1.739   2.849  11.531 -0.0280  0.2440  0.7762
 6211TIP3   OH240047   1.324   3.112   2.396  0.1157 -0.6129  0.2806
 6211TIP3    H140048   1.294   3.049   2.330  0.1435 -0.4838  0.1449
 6211TIP3    H240049   1.416   3.127   2.374 -0.3681  0.9302 -0.8609
 6212TIP3   OH240050   1.914   4.259  12.743 -0.1412 -0.1771  0.1205
 6212TIP3    H140051   1.953   4.327  12.688 -0.4902  3.3503  3.7565
 6212TIP3    H240052   1.985   4.200  12.764  0.9150  0.6962 -0.8858
 6213TIP3   OH240053   4.432   0.339  14.302  0.2033  0.2813  0.4528
 6213TIP3    H140054   4.338   0.346  14.317  0.0808  0.1610 -0.2513
 6213TIP3    H240055   4.468   0.310  14.386 -0.2609  1.3266  1.0201
 6214TIP3   OH240056   4.073   3.794  15.974  0.0319 -0.4404  0.4622
 6214TIP3    H140057   4.002   3.766  15.915 -0.2904  0.0322  0.6167
 6214TIP3    H240058   4.116   3.713  16.000  0.9583 -0.5930 -1.3754
 6215TIP3   OH240059   4.994   4.786   5.694 -0.3678 -0.2400 -0.1325
 6215TIP3    H140060   4.913   4.769   5.645 -1.0311  1.8319  0.1328
 6215TIP3    H240061   5.058   4.811   5.627 -0.4555 -0.1597 -0.1858
 6216TIP3   OH240062   2.454   4.741   1.109 -0.0176  0.0804  0.2252
 6216TIP3    H140063   2.394   4.744   1.034  0.6849 -1.6497 -0.4699
 6216TIP3    H240064   2.414   4.677   1.168 -0.2205  0.9446  1.0549
 6217TIP3   OH240065   0.217   3.498   4.425  0.1351  0.2264  0.3258
 6217TIP3    H140066   0.217   3.591   4.402  0.5074 -0.3285 -2.2268
 6217TIP3    H240067   0.127   3.479   4.450 -0.6946  0.6760 -2.0962
 6218TIP3   OH240068   1.137   0.789  15.523 -0.3139  0.1773  0.4108
 6218TIP3    H140069   1.133   0.873  15.477  0.7639  0.5703  0.9878
 6218TIP3    H240070   1.188   0.733  15.466  0.5098  0.4821  0.8280
 6219TIP3   OH240071   3.887   4.491   6.407 -0.3128 -0.2562 -0.2782
 6219TIP3    H140072   3.832   4.567   6.429 -0.6615 -0.5564 -0.0986
 6219TIP3    H240073   3.969   4.506   6.454 -0.0352  0.4548 -0.9653
 6220TIP3   OH240074   1.408   5.653   3.064 -0.1438  0.2373 -0.1200
 6220TIP3    H140075   1.332   5.657   3.007 -0.3353 -1.3819 -0.0059
 6220TIP3    H240076   1.468   5.593   3.020 -0.2385 -0.9301  1.2847
 6221TIP3   OH240077   2.512   1.416   6.548  0.1525  0.4958  0.4333
 6221TIP3    H140078   2.575   1.401   6.619  1.6906 -1.0741 -1.1515
 6221TIP3    H240079   2.495   1.510   6.549  1.2094  0.6910  1.9941
 6222TIP3   OH240080   5.910   2.379  14.149 -0.6292 -0.1379 -0.0696
 6222TIP3    H140081   5.869   2.365  14.064 -0.9599 -0.5137  0.1454
 6222TIP3    H240082   5.938   2.471  14.148 -1.4474  0.1161 -0.2411
 6223TIP3   OH240083   6.506   3.625  11.502  0.1368 -0.6536 -0.8964
 6223TIP3    H140084   6.450   3.681  11.449 -1.0801  0.6641  1.5596
 6223TIP3    H240085   6.446   3.564  11.544  0.9372 -1.1629 -0.4612
 6224TIP3   OH240086   3.167   5.628  14.546  0.2877 -0.1247 -0.0129
 6224TIP3    H140087   3.210   5.631  14.631  1.8993 -1.5429 -0.6956
 6224TIP3    H240088   3.173   5.717  14.512 -0.8457  0.5752  1.5446
 6225TIP3   OH240089   4.816   2.636   0.730  1.0312  0.5027  0.3865
 6225TIP3    H140090   4.879   2.570   0.758 -0.5068 -0.9487  0.5737
 6225TIP3    H240091   4.732   2.606   0.766  0.0031  1.6650 -0.9368
 6226TIP3   OH240092   0.345   6.177   5.731  0.0749  0.2903 -0.3128
 6226TIP3    H140093   0.342   6.227   5.650  1.1605  0.8735 -0.0195
 6226TIP3    H240094   0.360   6.242   5.799 -0.5302 -0.2217  0.3283
 6227TIP3   OH240095   4.496   6.381  14.613  0.0957 -0.2375 -0.0509
 6227TIP3    H140096   4.480   6.454  14.553  2.2276  0.3987  0.0770
 6227TIP3    H240097   4.472   6.303  14.562 -0.9646  0.4463 -0.6451
 6228TIP3   OH240098   2.317   1.732   5.651  0.2639 -0.2391  0.2803
 6228TIP3    H140099   2.393   1.764   5.699 -0.1161  0.7890  0.2372
 6228TIP3    H240100   2.268   1.680   5.714 -0.7305  1.8701  1.3638
 6229TIP3   OH240101   0.188   1.233  11.606  0.1865  0.0784 -0.0748
 6229TIP3    H140102   0.174   1.196  11.518  0.5712  0.5523 -0.3427
 6229TIP3    H240103   0.134   1.180  11.663  0.7296 -0.9049 -0.4509
 6230TIP3   OH240104   6.599   4.260   1.969 -0.4892 -0.5249 -0.2554
 6230TIP3    H140105   6.515   4.285   1.932 -1.3368 -0.9516  1.2737
 6230TIP3    H240106   6.641   4.342   1.994 -0.6856 -0.3386 -0.5516
 6231TIP3   OH240107   4.763   0.256   0.340 -0.1539 -0.5899 -0.2171
 6231TIP3    H140108   4.807   0.324   0.290  0.9833 -2.3899 -1.8260
 6231TIP3    H240109   4.729   0.301   0.418  0.5755  1.7481 -1.1654
 6232TIP3   OH240110   2.460   6.769  12.643 -0.2729 -0.0975 -0.4795
 6232TIP3    H140111   2.531   6.777  12.706 -0.8055  1.1123  0.0056
 6232TIP3    H240112   2.490   6.703  12.581  1.0659  0.0441 -0.0178
 6233TIP3   OH240113   0.163   6.433  13.312  0.0969 -0.9778 -0.2872
 6233TIP3    H140114   0.113   6.416  13.391  0.2898  0.5241  0.1878
 6233TIP3    H240115   0.099   6.466  13.249  0.4772  1.3732  0.4618
 6234TIP3   OH240116   2.511   6.274  12.570  0.2473  0.0063 -0.4161
 6234TIP3    H140117   2.559   6.340  12.520  0.5535 -0.5887 -0.9178
 6234TIP3    H240118   2.578   6.214  12.603 -0.0756 -0.4285 -0.5310
 6235TIP3   OH240119   6.102   0.255  16.964  0.0324  0.4076  0.0370
 6235TIP3    H140120   6.024   0.281  16.915 -1.2839 -1.4587  1.0389
 6235TIP3    H240121   6.161   0.219  16.897 -1.9352 -2.5943 -0.3110
 6236TIP3   OH240122   1.408   1.500   1.059 -0.6301  0.2352  1.0090
 6236TIP3    H140123   1.478   1.438   1.043  0.1131  1.1279  0.7315
 6236TIP3    H240124   1.426   1.536   1.146 -0.9515  0.2053  1.0914
 6237TIP3   OH240125   3.015   2.778  10.345  0.2645 -0.3694  0.1123
 6237TIP3    H140126   2.998   2.724  10.422  0.1011 -3.5112 -1.9340
 6237TIP3    H240127   3.095   2.742  10.307 -0.0986  0.5446 -1.6170
 6238TIP3   OH240128   6.125   5.129   3.556  0.3529 -0.3641  0.2397
 6238TIP3    H140129   6.042   5.105   3.514  0.5512 -0.5881 -0.0303
 6238TIP3    H240130   6.117   5.223   3.573 -0.2335 -0.5135  0.8498
 6239TIP3   OH240131   2.827   2.236   1.887  0.1103  0.4617 -0.1756
 6239TIP3    H140132   2.740   2.272   1.902  0.4603  0.4668  2.2982
 6239TIP3    H240133   2.820   2.145   1.917  0.5985  0.0094 -1.3717
 6240TIP3   OH240134   2.906   0.828   2.318  0.5599 -0.7177  0.5291
 6240TIP3    H140135   2.895   0.804   2.410  1.9850  1.5905  1.3934
 6240TIP3    H240136   2.967   0.764   2.284 -1.7544 -3.0368  0.4485
 6241TIP3   OH240137   3.886   6.338  13.962  0.1345 -0.2170 -0.3724
 6241TIP3    H140138   3.887   6.415  14.019  1.7311 -0.2695 -0.2958
 6241TIP3    H240139   3.875   6.374  13.874  3.7445  0.4335 -0.6957
 6242TIP3   OH240140   2.356   0.066   4.501  0.3833 -0.2427  0.2404
 6242TIP3    H140141   2.434   0.105   4.461 -0.4185 -0.0525 -1.1924
 6242TIP3    H240142   2.321   0.008   4.433 -2.0073  1.4169 -0.0599
 6243TIP3   OH240143   3.344   3.922   0.119  0.3571  0.0079 -0.0466
 6243TIP3    H140144   3.410   3.853   0.110  0.3282 -0.0623  0.2760
 6243TIP3    H240145   3.287   3.893   0.190 -0.3157 -0.1645 -0.6440
 6244TIP3   OH240146   5.198   2.961   3.855 -0.0383 -0.4960  0.6593
 6244TIP3    H140147   5.172   2.989   3.943  1.8700  2.5030  0.4068
 6244TIP3    H240148   5.201   3.041   3.804 -1.6503 -2.2109 -2.4013
 6245TIP3   OH240149   6.298   1.204   1.430  0.5284 -0.0980 -0.0309
 6245TIP3    H140150   6.379   1.156   1.412  0.9140  1.0950 -1.6850
 6245TIP3    H240151   6.305   1.284   1.378 -1.7991 -0.0431 -0.3723
 6246TIP3   OH240152   2.433   3.184   3.929 -0.1809  0.1247 -0.0474
 6246TIP3    H140153   2.346   3.144   3.932  0.2404 -0.9341 -0.9295
 6246TIP3    H240154   2.476   3.141   3.854  0.5132  1.8466 -0.6867
 6247TIP3   OH240155   6.502   0.557  16.691 -0.3596  0.1519  0.0209
 6247TIP3    H140156   6.413   0.593  16.698 -0.1680  0.6275  0.0484
 6247TIP3    H240157   6.559   0.634  16.693  0.1829 -0.2406  1.9638
 6248TIP3   OH240158   2.256   3.520  11.163 -0.0188 -0.3591 -0.7965
 6248TIP3    H140159   2.169   3.557  11.178  0.1301 -0.1090 -0.5293
 6248TIP3    H240160   2.301   3.585  11.109  1.0561  1.0467  1.6255
 6249TIP3   OH240161   5.777   6.260  11.300  1.0203 -0.0798 -0.0739
 6249TIP3    H140162   5.736   6.190  11.249  2.7558  0.6423 -2.6944
 6249TIP3    H240163   5.712   6.331  11.297  0.4141 -0.6067  0.1909
 6250TIP3   OH240164   4.740   1.483   1.558  0.1380 -0.2088 -0.4777
 6250TIP3    H140165   4.828   1.483   1.596  0.3105  0.7430 -0.8606
 6250TIP3    H240166   4.755   1.493   1.464 -0.4147  1.5779 -0.4042
 6251TIP3   OH240167   6.296   6.048  13.635  0.2285  0.7046 -0.0294
 6251TIP3    H140168   6.232   6.068  13.567  0.2460 -0.3615 -0.3723
 6251TIP3    H240169   6.348   6.128  13.643 -0.7912  1.3963 -0.1285
 6252TIP3   OH240170   5.312   0.861   5.573  0.1319 -0.1086  0.1447
 6252TIP3    H140171   5.292   0.793   5.510  0.1761 -0.4345  0.4797
 6252TIP3    H240172   5.265   0.836   5.652  0.1966  0.2168  0.2904
 6253TIP3   OH240173   2.589   2.701   3.693  0.1115  0.6709 -0.0985
 6253TIP3    H140174   2.602   2.626   3.751  1.3935  1.5263  0.7595
 6253TIP3    H240175   2.560   2.662   3.610  1.1298 -0.8042  0.2029
 6254TIP3   OH240176   4.473   3.585   2.632  0.1936  0.1613  0.8736
 6254TIP3    H140177   4.452   3.535   2.711  1.0388 -0.5396  0.6782
 6254TIP3    H240178   4.500   3.671   2.664 -2.1656  0.8554  1.1706
 6255TIP3   OH240179   5.086   5.527  15.269 -0.2117 -0.2340 -0.2440
 6255TIP3    H140180   5.097   5.581  15.347  0.5853  0.4248 -0.7916
 6255TIP3    H240181   5.175   5.508  15.240 -0.4912 -1.2138 -0.4946
 6256TIP3   OH240182   2.928   6.492  17.101 -0.0968  0.6055  0.3399
 6256TIP3    H140183   2.958   6.525  17.186  0.9584 -0.9139  0.5970
 6256TIP3    H240184   2.991   6.528  17.038 -0.6093  1.3544  0.2410
 6257TIP3   OH240185   1.247   5.688   5.916 -0.1200 -0.4299  0.3068
 6257TIP3    H140186   1.230   5.722   6.004  1.0595 -0.6569  0.6391
 6257TIP3    H240187   1.168   5.639   5.894 -1.5910  1.8736  0.1062
 6258TIP3   OH240188   1.899   4.908  12.388  0.0013 -0.3369 -0.3095
 6258TIP3    H140189   1.810   4.942  12.385  0.4646  1.1922  1.3371
 6258TIP3    H240190   1.937   4.948  12.467  1.8348 -1.7037 -0.4397
 6259TIP3   OH240191   4.639   4.783   0.836 -0.2698  0.4007 -0.2357
 6259TIP3    H140192   4.703   4.794   0.906  1.0074  1.3875 -1.4977
 6259TIP3    H240193   4.682   4.725   0.773  0.2273  2.5071 -1.9776
 6260TIP3   OH240194   5.552   4.579   1.157 -0.0743  0.4672 -0.5096
 6260TIP3    H140195   5.601   4.530   1.222  0.2266  2.1469  0.5773
 6260TIP3    H240196   5.506   4.512   1.106  1.9714 -1.0504 -0.4802
 6261TIP3   OH240197   0.438   6.524   0.089  0.1246 -0.6224 -0.0856
 6261TIP3    H140198   0.480   6.448   0.049  1.9283 -0.2179  0.9208
 6261TIP3    H240199   0.506   6.591   0.091 -1.0360  0.5985  0.2511
 6262TIP3   OH240200   1.831   4.701  11.110  0.0277  0.6397 -0.4701
 6262TIP3    H140201   1.902   4.651  11.150  1.3078  1.8415 -1.1262
 6262TIP3    H240202   1.865   4.790  11.104 -2.1416  1.6217  0.5944
 6263TIP3   OH240203   3.742   1.896   4.013  0.2341  0.1259  0.0169
 6263TIP3    H140204   3.657   1.884   4.055 -1.2393 -0.2731 -2.8261
 6263TIP3    H240205   3.782   1.809   4.015 -1.4119 -0.7981 -2.3986
 6264TIP3   OH240206   1.910   4.324  13.447 -0.6123  0.7690  0.0075
 6264TIP3    H140207   1.900   4.282  13.532 -0.3904 -1.4170 -0.9690
 6264TIP3    H240208   2.004   4.343  13.441 -0.2104 -1.1939 -0.6188
 6265TIP3   OH240209   3.183   1.352  13.840 -0.4281 -0.2013 -0.3997
 6265TIP3    H140210   3.105   1.298  13.853 -0.9309  0.1826 -1.6945
 6265TIP3    H240211   3.207   1.382  13.928 -2.1017  0.1620 -0.0437
 6266TIP3   OH240212   1.657   3.572  13.856  0.1302 -0.0680 -0.3923
 6266TIP3    H140213   1.720   3.539  13.920  1.7483 -4.9732 -3.8854
 6266TIP3    H240214   1.711   3.605  13.784 -1.4610  0.8828 -1.2092
 6267TIP3   OH240215   5.563   5.281  16.503  0.4569 -0.2343 -0.1803
 6267TIP3    H140216   5.510   5.210  16.468 -0.4315  0.1740  0.3002
 6267TIP3    H240217   5.644   5.279  16.451  0.2660 -1.3120 -0.4548
 6268TIP3   OH240218   3.257   2.895   2.497 -0.7815  0.4224 -0.0811
 6268TIP3    H140219   3.219   2.909   2.411 -3.1099  0.6341  0.9108
 6268TIP3    H240220   3.238   2.804   2.517  0.4045  0.1655 -0.0755
 6269TIP3   OH240221   5.245   4.642  12.067  0.0708  0.0578  0.5049
 6269TIP3    H140222   5.223   4.617  11.978  1.7663 -1.0211  0.3348
 6269TIP3    H240223   5.314   4.708  12.057  0.2014  0.0072  0.9990
 6270TIP3   OH240224   4.462   2.652   4.349 -0.1864 -0.4277  0.3872
 6270TIP3    H140225   4.533   2.612   4.299  0.0106 -0.6242  0.8156
 6270TIP3    H240226   4.444   2.589   4.419 -0.1432  0.0517  0.8328
 6271TIP3   OH240227   0.353   6.335   0.572 -0.3774  0.3141 -0.0365
 6271TIP3    H140228   0.312   6.305   0.653  2.8650 -0.3471  1.5137
 6271TIP3    H240229   0.418   6.399   0.599 -0.2567  1.2724 -2.3342
 6272TIP3   OH240230   0.962   5.005  11.802 -0.1865  0.3292  0.3114
 6272TIP3    H140231   0.987   4.928  11.853 -0.1098  0.4510  0.4610
 6272TIP3    H240232   1.009   5.077  11.844  0.5119  0.3163 -0.4320
 6273TIP3   OH240233   1.381   0.841   4.574 -0.0225 -0.2439  0.3086
 6273TIP3    H140234   1.322   0.917   4.571 -0.9543 -0.9665 -0.2111
 6273TIP3    H240235   1.407   0.828   4.483  0.2368 -0.4776  0.4163
 6274TIP3   OH240236   0.670   6.330  14.951 -0.0920  0.0848  0.1748
 6274TIP3    H140237   0.603   6.296  14.892 -0.3299  1.5354 -0.4077
 6274TIP3    H240238   0.746   6.346  14.896  0.0960  0.2939  0.4906
 6275TIP3   OH240239   6.577   4.043   3.979 -0.1645  0.1646  0.2118
 6275TIP3    H140240   6.631   4.065   3.903 -0.0546 -0.4270  0.1103
 6275TIP3    H240241   6.577   4.122   4.032 -1.2815  1.0345 -1.0056
 6276TIP3   OH240242   1.627   1.896   4.955  0.0711  0.4755 -0.3167
 6276TIP3    H140243   1.581   1.905   4.871  0.3512  0.3169 -0.4877
 6276TIP3    H240244   1.691   1.827   4.940  0.6198  0.9467 -0.1898
 6277TIP3   OH240245   1.644   6.600  14.094  0.0083  0.1757  0.6423
 6277TIP3    H140246   1.714   6.567  14.149 -1.2089 -1.3619  1.3509
 6277TIP3    H240247   1.570   6.541  14.110 -0.7144  0.2254 -1.9140
 6278TIP3   OH240248   1.949   1.992   3.733 -0.3427 -0.4878 -0.5216
 6278TIP3    H140249   2.023   2.039   3.695  0.1504  0.0944  1.0734
 6278TIP3    H240250   1.989   1.930   3.794 -1.1424 -0.2017  0.3217
 6279TIP3   OH240251   6.762   3.517   5.464  0.4154 -0.0215 -0.0791
 6279TIP3    H140252   6.689   3.519   5.402  0.4578  1.2717 -0.1258
 6279TIP3    H240253   6.778   3.610   5.485  2.3518 -0.2463 -0.4098
 6280TIP3   OH240254   2.403   5.676  16.944 -0.0816  0.1092 -0.0261
 6280TIP3    H140255   2.388   5.750  17.003  0.5606  0.2560 -0.0411
 6280TIP3    H240256   2.343   5.691  16.871 -1.5128 -0.5263  0.9684
 6281TIP3   OH240257   2.089   1.302  17.163 -0.6652  0.1070  0.5900
 6281TIP3    H140258   2.162   1.344  17.207 -1.8101  1.7317  1.0357
 6281TIP3    H240259   2.011   1.340  17.204 -1.7611 -0.6461 -0.7108
 6282TIP3   OH240260   0.512   4.150  13.378  0.4599 -0.7934  0.0842
 6282TIP3    H140261   0.565   4.139  13.457 -0.7785  0.7065  1.1750
 6282TIP3    H240262   0.438   4.090  13.391 -0.4432  0.4175  0.7447
 6283TIP3   OH240263   6.044   5.451   1.299  0.0888 -0.6571 -0.9137
 6283TIP3    H140264   5.996   5.425   1.220  1.4348 -1.6325 -1.4612
 6283TIP3    H240265   6.136   5.458   1.270  0.5211 -0.4075  0.4312
 6284TIP3   OH240266   1.846   1.402   5.642  0.1709  0.6717 -0.4291
 6284TIP3    H140267   1.825   1.368   5.555  0.2568 -1.0020  0.1774
 6284TIP3    H240268   1.765   1.442   5.672 -0.6278 -0.9763 -0.2825
 6285TIP3   OH240269   4.083   4.796  11.056  0.5765  0.0470  0.4056
 6285TIP3    H140270   4.123   4.747  10.984 -1.0979 -0.2004 -0.4255
 6285TIP3    H240271   4.081   4.734  11.129  1.5866  0.0389  0.4389
 6286TIP3   OH240272   0.087   3.236   4.364 -0.1581  0.3540 -0.1632
 6286TIP3    H140273   0.074   3.160   4.420  0.1632 -0.3286 -0.9899
 6286TIP3    H240274   0.163   3.280   4.400 -0.3889  0.3290  0.3624
 6287TIP3   OH240275   1.419   6.021  10.892  0.1696  0.1513  0.4673
 6287TIP3    H140276   1.470   6.084  10.942  1.2303 -1.4963  1.5868
 6287TIP3    H240277   1.436   6.044  10.801  0.4045  1.5551  0.8418
 6288TIP3   OH240278   4.535   4.569  11.778  0.3577  0.3496 -0.1206
 6288TIP3    H140279   4.524   4.556  11.684 -1.3113  1.3581 -0.1017
 6288TIP3    H240280   4.510   4.660  11.793 -3.7652 -0.8582  1.8607
 6289TIP3   OH240281   0.062   1.783   3.925 -0.7873 -0.4044 -0.1662
 6289TIP3    H140282  -0.033   1.778   3.914 -0.7420  0.9928 -1.6442
 6289TIP3    H240283   0.096   1.725   3.857 -0.5965  1.0129 -1.3336
 6290TIP3   OH240284   3.158   3.236  11.356  0.4838  0.2202 -0.0523
 6290TIP3    H140285   3.113   3.235  11.272  0.2042  0.7641  0.0840
 6290TIP3    H240286   3.242   3.193  11.339 -0.8048 -2.5754  0.1164
 6291TIP3   OH240287   4.483   5.356   5.101  0.0035  0.0160 -0.1349
 6291TIP3    H140288   4.426   5.359   5.025  1.1811 -0.6442 -1.0788
 6291TIP3    H240289   4.464   5.437   5.149 -0.4326  0.6650 -1.3642
 6292TIP3   OH240290   2.900   5.957   6.372  0.3785 -0.2564 -0.4598
 6292TIP3    H140291   2.931   6.048   6.368  0.6073 -0.3585 -1.0576
 6292TIP3    H240292   2.979   5.904   6.371  0.2381 -0.4717 -0.3376
 6293TIP3   OH240293   2.313   4.318  14.429 -0.0549  0.0041 -0.2298
 6293TIP3    H140294   2.219   4.326  14.416  0.2756  1.9363 -1.9724
 6293TIP3    H240295   2.337   4.394  14.481  0.4570 -1.0101  1.0887
 6294TIP3   OH240296   4.177   1.281   2.748  0.0579  0.6891  0.1118
 6294TIP3    H140297   4.247   1.252   2.691  0.1427 -1.5078  1.2394
 6294TIP3    H240298   4.207   1.260   2.837 -0.5308  2.9951  0.9542
 6295TIP3   OH240299   1.684   6.611  15.763 -0.1075  0.3074  1.0824
 6295TIP3    H140300   1.750   6.551  15.727 -0.5295  0.5564 -0.1325
 6295TIP3    H240301   1.606   6.596  15.710 -0.7386  0.7367  1.8640
 6296TIP3   OH240302   0.868   4.186   3.198 -0.1366 -0.1176  0.0276
 6296TIP3    H140303   0.844   4.207   3.288 -0.7447  1.0441 -0.3914
 6296TIP3    H240304   0.823   4.103   3.180 -1.6271  0.6299  0.1643
 6297TIP3   OH240305   3.491   3.504   0.621  0.0274  0.1056  0.3545
 6297TIP3    H140306   3.415   3.513   0.565 -1.0888 -1.2107  1.5952
 6297TIP3    H240307   3.460   3.530   0.708  1.2130  0.3123  0.7371
 6298TIP3   OH240308   3.932   1.129   6.132 -0.7573  0.2289 -0.0325
 6298TIP3    H140309   3.949   1.081   6.213  1.8269  0.2690 -0.4615
 6298TIP3    H240310   3.942   1.221   6.157  2.0971  0.1741 -0.7294
 6299TIP3   OH240311   4.559   2.377  11.014  0.3154  0.3939  0.5241
 6299TIP3    H140312   4.556   2.353  10.921 -1.3725 -1.8169  1.0555
 6299TIP3    H240313   4.594   2.299  11.058  1.4604  1.5402  1.7282
 6300TIP3   OH240314   4.105   0.571   2.824  1.2889  0.1222 -0.1586
 6300TIP3    H140315   4.077   0.541   2.738  0.2209 -0.3029  0.3195
 6300TIP3    H240316   4.114   0.666   2.815  0.8646  0.1199 -0.6467
 6301TIP3   OH240317   4.833   3.612   2.732 -0.2360  0.0149  0.4563
 6301TIP3    H140318   4.751   3.633   2.776  0.2712  1.0039  0.9572
 6301TIP3    H240319   4.886   3.569   2.799  0.0224  0.2684  0.4159
 6302TIP3   OH240320   5.013   4.050   3.005 -0.6909  0.1850 -0.1771
 6302TIP3    H140321   5.095   4.035   2.959  0.2157 -1.8979  1.9162
 6302TIP3    H240322   4.970   3.964   3.006 -1.8017  0.7187  0.7312
 6303TIP3   OH240323   1.827   1.876   3.464  0.2862 -0.2106 -0.0070
 6303TIP3    H140324   1.862   1.931   3.394  1.4975 -2.7261 -1.5348
 6303TIP3    H240325   1.886   1.890   3.538 -0.1138  1.3407  0.0572
 6304TIP3   OH240326   0.553   4.260  15.236 -0.0263 -0.3894  0.5149
 6304TIP3    H140327   0.645   4.286  15.238  0.0133 -0.5961  1.6637
 6304TIP3    H240328   0.548   4.186  15.296 -0.9850 -0.2679  0.5884
 6305TIP3   OH240329   2.194   5.476   5.298  0.5850 -0.2163  0.2549
 6305TIP3    H140330   2.283   5.467   5.331  0.2131 -0.3895  1.2595
 6305TIP3    H240331   2.139   5.450   5.372 -0.2831 -3.4998 -1.3845
 6306TIP3   OH240332   2.424   4.697   2.297 -0.0823 -0.1176 -0.2299
 6306TIP3    H140333   2.435   4.630   2.364 -0.0866 -1.1636 -1.2620
 6306TIP3    H240334   2.483   4.768   2.325 -0.1910 -0.4635  0.9425
 6307TIP3   OH240335   4.253   2.140   5.734 -0.0806 -0.7013 -0.6161
 6307TIP3    H140336   4.181   2.199   5.754 -0.6656 -0.8355 -2.2530
 6307TIP3    H240337   4.215   2.053   5.740 -0.5287 -0.7307 -3.0696
 6308TIP3   OH240338   6.137   1.824   2.072  0.8844 -0.3837  0.6362
 6308TIP3    H140339   6.111   1.908   2.036  3.3639  0.0152 -0.4400
 6308TIP3    H240340   6.062   1.796   2.125 -0.8178  1.4778 -0.6553
 6309TIP3   OH240341   1.468   1.709  15.600  0.9191  0.0672  0.1915
 6309TIP3    H140342   1.383   1.714  15.644  1.2469  0.0530  0.8295
 6309TIP3    H240343   1.508   1.795  15.615  1.0281  0.0655 -0.0856
 6310TIP3   OH240344   4.426   6.736  13.920 -0.0397  0.4173 -0.0336
 6310TIP3    H140345   4.383   6.814  13.888  0.6764  1.1140  0.6536
 6310TIP3    H240346   4.384   6.664  13.873 -1.1674  1.1532 -0.1839
 6311TIP3   OH240347   0.550   0.877  16.865 -0.6178 -0.0534 -0.3533
 6311TIP3    H140348   0.528   0.969  16.853 -0.8323  0.2933  2.2006
 6311TIP3    H240349   0.561   0.866  16.959  2.8105 -1.8749 -0.7644
 6312TIP3   OH240350   1.098   5.677   0.398  0.0497  0.1080 -0.2615
 6312TIP3    H140351   1.032   5.691   0.329  2.0813  0.4622 -2.2673
 6312TIP3    H240352   1.154   5.608   0.364  0.6514 -0.2858  1.4526
 6313TIP3   OH240353   4.394   4.702   0.529  0.2395 -0.0598  0.3400
 6313TIP3    H140354   4.381   4.690   0.435  3.0980  1.4238 -0.3641
 6313TIP3    H240355   4.415   4.614   0.561  0.1690 -0.4298 -0.5806
 6314TIP3   OH240356   6.288   1.596   2.569  0.0570  0.2573 -0.1983
 6314TIP3    H140357   6.313   1.509   2.600  1.0104  0.7142  0.3532
 6314TIP3    H240358   6.315   1.655   2.640  1.0878  1.1851 -1.3330
 6315TIP3   OH240359   2.609   0.315   2.242 -0.5044 -0.2035 -0.0023
 6315TIP3    H140360   2.657   0.278   2.168  1.5566  0.3016  1.0190
 6315TIP3    H240361   2.652   0.399   2.260 -0.5925 -0.5320  2.0553
 6316TIP3   OH240362   1.936   3.834   4.113 -0.4757 -0.0472  0.0413
 6316TIP3    H140363   1.892   3.906   4.157  0.2233  0.5744 -0.2584
 6316TIP3    H240364   2.029   3.852   4.123 -0.2846 -0.8757 -0.0965
 6317TIP3   OH240365   5.083   5.734   0.141  0.0154  0.0297 -0.4937
 6317TIP3    H140366   5.001   5.694   0.170 -0.0835  0.3946 -0.2546
 6317TIP3    H240367   5.057   5.821   0.110  0.4806  0.6578  0.8077
 6318TIP3   OH240368   2.914   4.300   1.728  0.2599  0.2564 -0.7263
 6318TIP3    H140369   2.975   4.273   1.659  1.0518  0.8480 -0.2735
 6318TIP3    H240370   2.870   4.377   1.693  1.5119  1.2756 -0.1468
 6319TIP3   OH240371   3.406   5.902   0.786  0.6218  0.1972  0.3762
 6319TIP3    H140372   3.487   5.913   0.836 -0.8159  1.2128  2.6408
 6319TIP3    H240373   3.377   5.813   0.808  2.4299 -1.3202 -2.6824
 6320TIP3   OH240374   1.978   1.266  11.589 -0.5412  0.0927 -0.0936
 6320TIP3    H140375   1.907   1.289  11.529  0.2034  0.7357 -0.7499
 6320TIP3    H240376   2.045   1.227  11.533  1.2865  3.0803 -0.2202
 6321TIP3   OH240377   0.867   0.542  11.146 -0.0672 -0.2397  0.2174
 6321TIP3    H140378   0.849   0.634  11.167 -0.2313  0.2348 -1.7907
 6321TIP3    H240379   0.789   0.495  11.174 -0.6092  0.4602 -0.0812
 6322TIP3   OH240380   2.164   2.561   2.694  0.2177  0.1060 -0.3113
 6322TIP3    H140381   2.171   2.653   2.670 -0.4203 -0.3072 -2.3395
 6322TIP3    H240382   2.253   2.527   2.684  0.4565  0.4874  0.4532
 6323TIP3   OH240383   4.362   6.351   1.104  0.5648  0.1227 -0.2903
 6323TIP3    H140384   4.414   6.357   1.024 -1.4488 -0.8649 -1.7728
 6323TIP3    H240385   4.325   6.438   1.115  1.1436  0.3609 -0.2215
 6324TIP3   OH240386   5.648   4.131  10.487 -0.1475 -0.0545 -0.4614
 6324TIP3    H140387   5.742   4.147  10.476 -0.4820  3.4443  0.5313
 6324TIP3    H240388   5.621   4.090  10.405  1.9374  0.5889 -1.5419
 6325TIP3   OH240389   5.018   1.092   4.260  0.4670 -0.3225  0.2957
 6325TIP3    H140390   4.941   1.141   4.288  0.7338 -0.1567  0.7487
 6325TIP3    H240391   4.993   1.000   4.271  0.0311 -0.2906 -0.3810
 6326TIP3   OH240392   5.527   6.149  13.827  0.0465 -0.3386 -0.1471
 6326TIP3    H140393   5.520   6.127  13.734  0.6750  1.6415 -0.7256
 6326TIP3    H240394   5.612   6.113  13.854 -0.3318 -1.2948 -0.2108
 6327TIP3   OH240395   0.288   3.944   3.289 -0.0530  0.0079  0.0973
 6327TIP3    H140396   0.195   3.962   3.303  0.0932 -0.1409  1.4051
 6327TIP3    H240397   0.330   3.969   3.372  1.2943  1.4790 -0.9686
 6328TIP3   OH240398   3.897   5.771   4.894 -0.0432 -0.2245 -0.1702
 6328TIP3    H140399   3.923   5.848   4.945 -0.0970 -0.6085  0.4503
 6328TIP3    H240400   3.934   5.697   4.942 -1.8248 -0.7541  0.4849
 6329TIP3   OH240401   6.075   4.894   3.034  0.1240  0.1955 -0.6489
 6329TIP3    H140402   6.168   4.898   3.012  0.3319 -0.0182  0.1694
 6329TIP3    H240403   6.049   4.805   3.009  0.5876 -0.3722  0.8029
 6330TIP3   OH240404   0.397   2.155   1.398 -0.5004 -0.4366  0.3209
 6330TIP3    H140405   0.453   2.095   1.446  0.3574  0.2622  0.2087
 6330TIP3    H240406   0.437   2.241   1.409 -0.2256 -0.2412 -1.6858
 6331TIP3   OH240407   2.162   6.758   5.242  0.1353  0.4242  0.6712
 6331TIP3    H140408   2.173   6.847   5.211  0.6762  0.5632  1.2362
 6331TIP3    H240409   2.245   6.714   5.221 -0.4723 -0.2247 -0.4737
 6332TIP3   OH240410   6.739   2.020  14.799 -0.4894 -0.0582 -0.5057
 6332TIP3    H140411   6.678   1.986  14.864  0.4612  0.3561  0.6485
 6332TIP3    H240412   6.750   1.948  14.737  0.3589 -1.3900  1.0841
 6333TIP3   OH240413   6.033   6.717  17.151  0.2845  0.1806  0.2604
 6333TIP3    H140414   6.098   6.664  17.106 -0.8377  0.3931 -1.7072
 6333TIP3    H240415   5.975   6.654  17.194 -0.7467 -0.2198 -1.6439
 6334TIP3   OH240416   0.921   3.116  13.844  0.7269 -0.2193 -0.6661
 6334TIP3    H140417   0.840   3.093  13.891  0.2366 -0.5405 -1.6394
 6334TIP3    H240418   0.973   3.165  13.908 -0.7026  0.9480 -0.3360
 6335TIP3   OH240419   5.968   5.158   4.383 -0.2959 -0.2584 -0.1560
 6335TIP3    H140420   5.966   5.184   4.475 -0.2897  0.5502 -0.3717
 6335TIP3    H240421   5.908   5.219   4.339  0.2416 -0.1721 -0.7919
 6336TIP3   OH240422   3.357   0.814   5.918  0.3733  0.2982 -0.0699
 6336TIP3    H140423   3.299   0.843   5.848  0.6446  0.0693 -0.3918
 6336TIP3    H240424   3.320   0.853   5.997 -0.6781 -0.4932 -0.1534
 6337TIP3   OH240425   4.428   4.511  17.057 -0.0725 -0.4832  0.7409
 6337TIP3    H140426   4.466   4.441  17.111 -2.1257 -1.0048  1.6237
 6337TIP3    H240427   4.336   4.486  17.048 -0.7031  1.7502  0.4595
 6338TIP3   OH240428   5.914   3.043   5.212 -0.2675  0.1509 -0.1883
 6338TIP3    H140429   6.000   3.061   5.173 -0.1384 -1.8134 -0.9141
 6338TIP3    H240430   5.892   3.124   5.259  0.7775  1.6555 -2.1383
 6339TIP3   OH240431   3.797   1.337  11.954  0.1650 -0.0057 -0.5926
 6339TIP3    H140432   3.781   1.428  11.926  0.4358  1.0085  2.2819
 6339TIP3    H240433   3.888   1.320  11.930 -0.1294  0.1504 -1.8987
 6340TIP3   OH240434   2.152   3.767   1.255 -0.5749  0.6502 -0.1935
 6340TIP3    H140435   2.143   3.850   1.302  1.8120  0.1605  1.2936
 6340TIP3    H240436   2.115   3.702   1.314  1.8799  0.1173  0.9081
 6341TIP3   OH240437   6.256   1.949  10.845 -0.3358 -0.4067  0.1567
 6341TIP3    H140438   6.339   1.968  10.888 -0.3232 -0.3314  0.0975
 6341TIP3    H240439   6.193   2.005  10.890  0.0857  1.5541 -1.5842
 6342TIP3   OH240440   0.506   2.426   5.721  0.2245 -0.1403  0.0945
 6342TIP3    H140441   0.472   2.417   5.632  2.0493  2.1147 -0.9234
 6342TIP3    H240442   0.582   2.484   5.712 -0.2124  1.1083  3.2752
 6343TIP3   OH240443   1.014   0.090   5.357 -0.5544 -0.2441 -0.9893
 6343TIP3    H140444   1.074   0.156   5.323 -0.4025 -1.1621 -2.5786
 6343TIP3    H240445   0.979   0.046   5.280 -1.9820 -0.8789 -0.0310
 6344TIP3   OH240446   3.831   5.100   5.634  0.0397  0.4346  0.2429
 6344TIP3    H140447   3.781   5.179   5.656 -0.7639 -0.6342  2.5877
 6344TIP3    H240448   3.765   5.034   5.615  0.7110  0.5002 -2.7862
 6345TIP3   OH240449   0.925   4.042   2.505  0.2598 -0.1726  0.3280
 6345TIP3    H140450   0.904   4.130   2.538 -2.7766  0.7799 -3.3951
 6345TIP3    H240451   0.854   3.987   2.538  2.2463 -1.4532  2.7923
 6346TIP3   OH240452   6.215   6.150  14.220 -0.0629  0.4903  0.1208
 6346TIP3    H140453   6.240   6.070  14.174 -3.1935 -0.3004 -0.4516
 6346TIP3    H240454   6.273   6.154  14.296  0.4779 -2.0844 -0.0747
 6347TIP3   OH240455   4.166   1.999   0.146  0.1375 -0.2694 -0.3791
 6347TIP3    H140456   4.147   1.916   0.191  0.5731 -1.0562 -1.6179
 6347TIP3    H240457   4.261   2.003   0.142  0.1132  0.2138 -0.4598
 6348TIP3   OH240458   3.209   3.335  10.388 -0.0418  0.3084  0.0037
 6348TIP3    H140459   3.299   3.347  10.357 -0.1938  3.4136  0.4144
 6348TIP3    H240460   3.176   3.261  10.337  1.3858  1.8205 -3.4222
 6349TIP3   OH240461   5.169   5.987   0.587  0.3806 -0.1794  0.4223
 6349TIP3    H140462   5.152   6.067   0.637 -0.9172 -0.1254 -0.0792
 6349TIP3    H240463   5.227   6.014   0.516 -1.9407  0.8787 -1.1814
 6350TIP3   OH240464   5.617   6.231  16.481  0.3322  0.4327 -0.0147
 6350TIP3    H140465   5.532   6.273  16.492  0.3174  0.2573  0.6065
 6350TIP3    H240466   5.609   6.182  16.399  0.4894  1.9305 -0.9718
 6351TIP3   OH240467   1.337   1.893  14.918 -0.4770 -0.2171 -0.0778
 6351TIP3    H140468   1.307   1.811  14.878 -3.1843  0.0778  1.1578
 6351TIP3    H240469   1.338   1.955  14.846 -0.3254 -0.8680 -0.6513
 6352TIP3   OH240470   3.179   3.855   4.716 -0.3486  0.3743  0.8350
 6352TIP3    H140471   3.126   3.935   4.712  0.4390  0.8668  0.1180
 6352TIP3    H240472   3.181   3.823   4.627  1.0699  0.7107  0.7183
 6353TIP3   OH240473   5.187   3.267  13.561  0.1469  0.5013 -0.5517
 6353TIP3    H140474   5.110   3.215  13.540 -0.6343  1.5637 -0.4150
 6353TIP3    H240475   5.248   3.250  13.489 -1.1812  1.5110 -1.9737
 6354TIP3   OH240476   0.946   3.886  14.888  0.5183  0.3635  0.1312
 6354TIP3    H140477   1.009   3.815  14.889  1.0422  0.8013 -0.6743
 6354TIP3    H240478   0.936   3.908  14.795  0.1690  1.1627  0.3467
 6355TIP3   OH240479   1.430   4.207   2.455  0.1976 -0.1753 -0.0646
 6355TIP3    H140480   1.425   4.298   2.482  0.6467  0.0929 -0.8729
 6355TIP3    H240481   1.516   4.198   2.415 -0.0331 -0.8370 -0.4215
 6356TIP3   OH240482   3.039   1.500   1.733  0.3365  0.3392 -0.2198
 6356TIP3    H140483   2.990   1.433   1.685  1.1735 -0.7338  0.3782
 6356TIP3    H240484   3.028   1.476   1.825  0.0746  1.4420  0.0541
 6357TIP3   OH240485   0.454   6.709   6.354  0.7097  0.4541  0.2776
 6357TIP3    H140486   0.449   6.621   6.391 -0.5850 -0.7848 -2.5691
 6357TIP3    H240487   0.370   6.750   6.377  0.1834 -0.0720 -0.6576
 6358TIP3   OH240488   6.598   2.689   4.111  0.0218 -0.3565  0.9769
 6358TIP3    H140489   6.630   2.599   4.100  1.7422  0.2447  0.7818
 6358TIP3    H240490   6.569   2.714   4.024 -2.7740 -1.4823  1.4624
 6359TIP3   OH240491   1.338   2.247   4.697 -0.4272 -0.0354 -0.0564
 6359TIP3    H140492   1.347   2.296   4.779 -1.0881 -0.1326  0.0809
 6359TIP3    H240493   1.363   2.310   4.629  1.6390 -0.4045  0.2912
 6360TIP3   OH240494   0.604   5.138  13.018 -0.3124 -0.0741 -0.2921
 6360TIP3    H140495   0.597   5.044  13.007  0.0910 -0.1000 -0.3657
 6360TIP3    H240496   0.698   5.156  13.007 -0.5508  0.4953 -1.5871
 6361TIP3   OH240497   1.550   2.835   3.342  0.2803  0.1835 -0.0395
 6361TIP3    H140498   1.578   2.751   3.306 -1.9793 -0.6073 -0.1254
 6361TIP3    H240499   1.512   2.882   3.267 -1.6494 -0.2113  0.6277
 6362TIP3   OH240500   0.019   3.477  11.805  0.7864  0.3372  0.5058
 6362TIP3    H140501  -0.076   3.482  11.802  0.7500  0.5966  1.7657
 6362TIP3    H240502   0.043   3.441  11.719 -0.6907 -3.1264  1.3513
 6363TIP3   OH240503   4.493   4.431   4.471  0.1080 -0.2973  0.2101
 6363TIP3    H140504   4.449   4.347   4.481 -0.2629 -0.0372  0.8436
 6363TIP3    H240505   4.447   4.475   4.400 -0.8801  0.0992  1.0645
 6364TIP3   OH240506   6.512   1.256   3.065  0.1364  0.4362  0.3002
 6364TIP3    H140507   6.582   1.192   3.076  1.5355  1.8143 -0.1794
 6364TIP3    H240508   6.549   1.323   3.008 -1.4400  1.4355  0.3742
 6365TIP3   OH240509   6.272   5.282   1.512  0.0638 -0.0182 -0.5454
 6365TIP3    H140510   6.324   5.335   1.573 -0.1818 -0.9907  0.5269
 6365TIP3    H240511   6.269   5.335   1.432 -2.0585  2.6950  1.1498
 6366TIP3   OH240512   1.228   5.851  15.990 -0.2551  0.3224  0.1908
 6366TIP3    H140513   1.275   5.909  15.931 -2.3112  1.3035 -0.5859
 6366TIP3    H240514   1.260   5.875  16.077 -0.5151  2.1490 -0.1731
 6367TIP3   OH240515   2.620   0.492  16.749 -0.1553 -0.0049  0.2496
 6367TIP3    H140516   2.621   0.497  16.653  0.1643  0.3145  0.2629
 6367TIP3    H240517   2.538   0.448  16.771  0.3553 -1.2174 -0.2130
 6368TIP3   OH240518   6.070   0.717  12.039 -0.1370  0.7447  0.2510
 6368TIP3    H140519   5.976   0.700  12.045 -0.1379  1.0694  1.3592
 6368TIP3    H240520   6.084   0.740  11.947 -1.0083 -0.0334 -0.0979
 6369TIP3   OH240521   1.892   6.795  15.346  0.6462  0.1957 -0.2697
 6369TIP3    H140522   1.861   6.715  15.388 -0.1117  1.0320  0.8516
 6369TIP3    H240523   1.945   6.765  15.272 -1.7004 -1.3506 -1.4565
 6370TIP3   OH240524   0.383   1.053  11.642  0.2483 -0.0511  0.2290
 6370TIP3    H140525   0.387   1.055  11.737  0.6581 -0.1751  0.2154
 6370TIP3    H240526   0.319   1.121  11.619  1.0301  0.7991  0.5358
 6371TIP3   OH240527   6.609   0.205  11.438  0.0752  1.4042 -0.5279
 6371TIP3    H140528   6.686   0.165  11.477  0.5406  0.9968 -1.8057
 6371TIP3    H240529   6.616   0.185  11.345 -0.4991  3.1201 -0.9788
 6372TIP3   OH240530   2.838   3.326   1.719 -0.0205 -0.0597 -0.0681
 6372TIP3    H140531   2.928   3.307   1.693 -0.4595 -1.8076 -0.4640
 6372TIP3    H240532   2.815   3.255   1.779 -1.3750 -0.0727 -0.5684
 6373TIP3   OH240533   0.170   4.885  12.809  0.0490  0.1112 -0.0859
 6373TIP3    H140534   0.159   4.928  12.725 -1.4067  1.1058  0.5765
 6373TIP3    H240535   0.164   4.792  12.789  2.8492  0.1332 -1.4880
 6374TIP3   OH240536   4.183   3.643  15.479 -0.1648 -0.3296  0.2124
 6374TIP3    H140537   4.150   3.729  15.504 -0.4239  0.3382 -2.2227
 6374TIP3    H240538   4.118   3.581  15.514  0.8499  0.2024  3.4433
 6375TIP3   OH240539   5.183   5.889  12.635 -0.7122  0.3512  0.3020
 6375TIP3    H140540   5.277   5.896  12.618 -0.6911  0.9531  0.6393
 6375TIP3    H240541   5.176   5.830  12.709 -0.5087  1.3094  1.1025
 6376TIP3   OH240542   1.239   6.265  17.194  0.5038  0.0623  0.4392
 6376TIP3    H140543   1.246   6.358  17.214 -0.6079  0.3127 -0.2448
 6376TIP3    H240544   1.320   6.245  17.147  0.3176  0.9282 -0.2840
 6377TIP3   OH240545   4.391   2.360  13.507 -0.6247  0.2019 -0.2851
 6377TIP3    H140546   4.450   2.412  13.562 -1.7642  3.2388 -1.6645
 6377TIP3    H240547   4.312   2.415  13.500 -1.8303 -1.6283 -2.1464
 6378TIP3   OH240548   1.717   3.094   1.751 -0.6188  0.1978 -0.0848
 6378TIP3    H140549   1.732   3.172   1.698 -1.3316 -0.1293 -0.7944
 6378TIP3    H240550   1.636   3.057   1.717 -0.2086 -0.9388  0.1234
 6379TIP3   OH240551   3.449   4.215  14.031  0.7577  0.0865  0.8170
 6379TIP3    H140552   3.434   4.309  14.041  0.8490 -0.0090  2.0076
 6379TIP3    H240553   3.372   4.174  14.071 -0.0096 -0.3599 -1.0160
 6380TIP3   OH240554   1.970   1.229  13.882 -0.2866  0.0700 -0.5405
 6380TIP3    H140555   1.976   1.143  13.840  0.4258  0.2202 -0.7633
 6380TIP3    H240556   1.936   1.211  13.970  1.1270 -0.5958 -0.1145
 6381TIP3   OH240557   3.255   4.403  16.925  0.0453  0.4040 -0.3230
 6381TIP3    H140558   3.305   4.362  16.996 -1.5419  1.1314  1.2907
 6381TIP3    H240559   3.321   4.449  16.873  1.4364 -1.4079 -0.2498
 6382TIP3   OH240560   4.819   5.028  13.165 -0.2591  0.3844 -0.5857
 6382TIP3    H140561   4.788   4.980  13.088 -0.9144  0.0884 -0.1472
 6382TIP3    H240562   4.840   4.960  13.229  0.2441  0.6300 -0.4819
 6383TIP3   OH240563   2.585   1.941  14.359 -0.3469 -0.3834 -0.0574
 6383TIP3    H140564   2.512   1.937  14.421 -0.3629 -0.1392 -0.0595
 6383TIP3    H240565   2.587   1.855  14.318  0.4218 -0.9921  1.1565
 6384TIP3   OH240566   3.113   3.955  11.695  0.3378 -0.1742 -0.0965
 6384TIP3    H140567   3.044   3.980  11.756 -1.0190 -3.2349 -0.1650
 6384TIP3    H240568   3.066   3.934  11.614  1.6773  0.2518 -1.0091
 6385TIP3   OH240569   2.856   6.657  15.369  0.5396  0.5906  0.2952
 6385TIP3    H140570   2.833   6.578  15.418 -0.5803  0.3539 -0.5616
 6385TIP3    H240571   2.948   6.672  15.388  0.6356 -0.6397  0.8647
 6386TIP3   OH240572   4.139   2.240  14.229 -0.0697 -0.2974 -0.2575
 6386TIP3    H140573   4.164   2.238  14.136  0.6314 -2.3431 -0.0708
 6386TIP3    H240574   4.208   2.192  14.273 -0.4288  0.6000  1.3564
 6387TIP3   OH240575   4.459   3.255   3.950  0.1178 -0.6440  0.1871
 6387TIP3    H140576   4.529   3.244   3.886 -0.1662  0.1456 -0.2646
 6387TIP3    H240577   4.504   3.282   4.030  0.2587  0.9596 -0.3999
 6388TIP3   OH240578   1.377   4.194   0.162  0.2030 -0.0605  0.2224
 6388TIP3    H140579   1.400   4.283   0.135 -0.6699 -0.0709 -0.6162
 6388TIP3    H240580   1.394   4.140   0.085 -1.0177 -0.3136  0.1016
 6389TIP3   OH240581   1.324   1.555   0.650  0.0234  0.2442  0.2247
 6389TIP3    H140582   1.392   1.489   0.645  0.9702  1.2607 -0.8228
 6389TIP3    H240583   1.280   1.552   0.565 -0.3711  0.4900  0.4138
 6390TIP3   OH240584   0.597   1.567  12.701  0.7765 -0.0814 -0.7039
 6390TIP3    H140585   0.543   1.597  12.774 -0.1852 -0.8920 -1.0613
 6390TIP3    H240586   0.683   1.552  12.740  0.4180  0.0130  0.1477
 6391TIP3   OH240587   5.040   2.428   0.370  0.0210  0.0260 -0.5680
 6391TIP3    H140588   4.987   2.349   0.379  0.1986 -0.4119 -2.7817
 6391TIP3    H240589   5.130   2.395   0.359  0.2632  0.6042 -0.3849
 6392TIP3   OH240590   6.444   5.201  15.659  0.3963 -0.3051 -0.5913
 6392TIP3    H140591   6.349   5.212  15.670  0.6380  2.5931 -0.6076
 6392TIP3    H240592   6.457   5.206  15.564  0.5509 -1.0608 -0.6131
 6393TIP3   OH240593   3.459   4.283  12.534 -0.2918 -0.5526  0.1336
 6393TIP3    H140594   3.471   4.192  12.507  0.8894 -0.0092 -1.3290
 6393TIP3    H240595   3.545   4.311  12.565 -0.9367 -0.2670  1.7840
 6394TIP3   OH240596   5.120   4.570   2.924  0.2811 -0.1558  0.4832
 6394TIP3    H140597   5.052   4.503   2.930 -1.7933  1.5765 -1.6948
 6394TIP3    H240598   5.174   4.542   2.851 -0.7952  0.6152 -0.6585
 6395TIP3   OH240599   3.106   3.004  12.933 -0.1844  0.1388  0.7816
 6395TIP3    H140600   3.086   2.990  12.840  1.3863 -0.2080  0.4555
 6395TIP3    H240601   3.034   2.963  12.980  0.3894 -2.2692 -0.2634
 6396TIP3   OH240602   2.081   1.172  15.023  0.0012  0.1848 -0.2038
 6396TIP3    H140603   1.992   1.149  15.050 -0.3827  0.1386 -1.4334
 6396TIP3    H240604   2.075   1.185  14.928  1.0404  1.4462 -0.1360
 6397TIP3   OH240605   5.378   0.089  13.836 -0.2583 -0.4171 -0.3467
 6397TIP3    H140606   5.403   0.175  13.869 -0.7245  0.7115 -2.6820
 6397TIP3    H240607   5.450   0.032  13.861 -0.2165  0.4745  1.7845
 6398TIP3   OH240608   3.699   6.523  16.160 -0.1906  0.2264  0.1271
 6398TIP3    H140609   3.689   6.609  16.201  0.3506  0.3900 -0.0683
 6398TIP3    H240610   3.619   6.510  16.110  0.1116  1.0419 -0.5976
 6399TIP3   OH240611   2.010   1.926   2.839  0.1915 -0.1149 -0.0673
 6399TIP3    H140612   2.034   1.834   2.852 -1.1095 -0.3265  0.9507
 6399TIP3    H240613   1.982   1.931   2.747 -2.0144 -1.2967  0.4889
 6400TIP3   OH240614   5.946   6.732   5.449  0.2308  0.0068 -0.2456
 6400TIP3    H140615   5.953   6.773   5.535  1.1092  0.8237 -0.6784
 6400TIP3    H240616   5.950   6.806   5.387 -1.3701 -0.4664 -0.9713
 6401TIP3   OH240617   6.428   5.375  17.055 -0.2616  0.3563  0.5142
 6401TIP3    H140618   6.334   5.361  17.047  0.0192 -1.7045  0.1311
 6401TIP3    H240619   6.453   5.324  17.132  0.5293  0.9266  0.6407
 6402TIP3   OH240620   0.977   0.646  11.514 -0.4894 -0.1465 -0.8041
 6402TIP3    H140621   1.024   0.571  11.551  0.3931  0.2294 -1.1489
 6402TIP3    H240622   1.020   0.722  11.551 -0.8280  0.2114 -1.1370
 6403TIP3   OH240623   6.560   2.741   5.203 -0.7455  0.5435 -0.7510
 6403TIP3    H140624   6.553   2.723   5.296 -2.6344 -0.7192 -1.0794
 6403TIP3    H240625   6.650   2.716   5.180  0.0604  1.7813  0.8582
 6404TIP3   OH240626   4.669   1.217  16.061 -0.1122 -0.2791  0.1650
 6404TIP3    H140627   4.737   1.284  16.059  0.5718 -0.9391  0.7307
 6404TIP3    H240628   4.589   1.263  16.034  0.2368  0.8817  1.0563
 6405TIP3   OH240629   0.981   1.820   1.061 -0.2160 -0.0865 -0.4353
 6405TIP3    H140630   1.061   1.855   1.020  0.3458 -2.4590 -1.5421
 6405TIP3    H240631   0.993   1.725   1.059 -2.2641 -0.4352  1.1110
 6406TIP3   OH240632   2.905   5.742  16.515  0.1580 -0.3156 -0.1304
 6406TIP3    H140633   2.931   5.656  16.549  0.4914  0.9344  3.1736
 6406TIP3    H240634   2.815   5.753  16.544  0.2871  0.6445 -0.0620
 6407TIP3   OH240635   0.133   2.888  10.947  0.2632  0.0699  0.0805
 6407TIP3    H140636   0.136   2.984  10.951  0.5718  0.0467  0.4343
 6407TIP3    H240637   0.174   2.865  10.864 -0.2005  0.2629 -0.2064
 6408TIP3   OH240638   6.047   4.003  13.027 -0.6301  0.5403 -0.0289
 6408TIP3    H140639   6.076   3.966  13.110 -0.5150  0.8757  0.0809
 6408TIP3    H240640   6.099   4.083  13.017 -0.6173  0.4832 -0.4391
 6409TIP3   OH240641   6.321   1.458   4.222  0.2618  0.6623  0.5042
 6409TIP3    H140642   6.336   1.377   4.172  1.7336  0.4015  1.3311
 6409TIP3    H240643   6.228   1.455   4.244 -0.0139 -0.1087 -0.6501
 6410TIP3   OH240644   3.484   3.979   1.377 -0.0510 -0.1354  0.6633
 6410TIP3    H140645   3.408   3.924   1.361 -1.5441  2.2883 -1.3411
 6410TIP3    H240646   3.505   3.965   1.469 -1.1915 -2.8746  0.6058
 6411TIP3   OH240647   3.939   1.317  15.652  0.1693  0.0364  0.0516
 6411TIP3    H140648   3.860   1.337  15.702  1.0989  1.0462  1.1622
 6411TIP3    H240649   3.991   1.397  15.655  0.2538  0.1579 -2.6267
 6412TIP3   OH240650   2.905   4.459  16.631  0.2138  0.2444  0.0793
 6412TIP3    H140651   2.893   4.489  16.721  0.3908 -1.2093  0.6166
 6412TIP3    H240652   2.850   4.381  16.624 -0.0261  0.5095 -1.1763
 6413TIP3   OH240653   0.749   3.569  15.528  0.0586 -0.2675 -0.7695
 6413TIP3    H140654   0.763   3.538  15.618 -0.1313  0.3844 -0.5121
 6413TIP3    H240655   0.686   3.507  15.491 -0.5513 -0.0215 -0.1623
 6414TIP3   OH240656   3.189   2.153   2.234 -0.7182  0.1973  0.1427
 6414TIP3    H140657   3.241   2.217   2.185 -0.0835  0.9213  1.7056
 6414TIP3    H240658   3.100   2.164   2.201 -0.1501 -0.0820 -1.5785
 6415TIP3   OH240659   5.920   5.152   1.052  0.6165 -0.4799 -0.8047
 6415TIP3    H140660   5.880   5.234   1.080 -0.6411 -0.9908 -1.0725
 6415TIP3    H240661   6.008   5.178   1.024 -0.1296  0.9700 -1.9689
 6416TIP3   OH240662   1.099   0.283   5.841 -0.2465  0.3066  0.3346
 6416TIP3    H140663   1.022   0.236   5.808 -1.0635  1.7968  0.0582
 6416TIP3    H240664   1.142   0.316   5.762  0.7668 -0.5937  0.4789
 6417TIP3   OH240665   3.762   5.603   4.042 -0.1011  0.0288 -0.0049
 6417TIP3    H140666   3.855   5.600   4.063 -0.5868  1.8218  3.0000
 6417TIP3    H240667   3.727   5.522   4.078 -0.0198  0.4210  0.9888
 6418TIP3   OH240668   2.022   2.586   2.071 -0.3790  1.0076 -0.0732
 6418TIP3    H140669   1.958   2.582   2.000 -0.8405  1.7661  0.2970
 6418TIP3    H240670   1.971   2.608   2.149  0.1510  0.3486  0.4711
 6419TIP3   OH240671   6.595   4.722   2.544 -0.2640 -0.7420  0.7459
 6419TIP3    H140672   6.592   4.805   2.496  1.6627 -0.9718  0.1413
 6419TIP3    H240673   6.642   4.663   2.486  4.1179 -0.4928  3.5113
 6420TIP3   OH240674   2.663   4.620   3.428 -0.3219 -0.2380  0.4553
 6420TIP3    H140675   2.608   4.577   3.493  0.1057 -1.1111  0.2526
 6420TIP3    H240676   2.610   4.693   3.396 -1.6493 -1.4537 -0.2142
 6421TIP3   OH240677   2.204   1.960   0.211 -0.2701 -0.3309  0.4617
 6421TIP3    H140678   2.291   1.924   0.228  1.0253  1.5603 -1.5909
 6421TIP3    H240679   2.153   1.885   0.181  0.9372 -1.3150  0.7624
 6422TIP3   OH240680   0.157   1.422   5.008 -0.1557  0.9288  0.4852
 6422TIP3    H140681   0.150   1.483   4.935 -0.8515  1.3466  0.8823
 6422TIP3    H240682   0.168   1.478   5.085 -1.2350  0.5952  0.9073
 6423TIP3   OH240683   6.350   4.746  11.940  0.5818 -0.1667  0.1317
 6423TIP3    H140684   6.354   4.668  11.996 -0.3933  0.0553  0.5167
 6423TIP3    H240685   6.442   4.764  11.918  1.0221 -0.0837  1.8950
 6424TIP3   OH240686   1.301   1.109   6.590  0.6606  0.5636 -0.5946
 6424TIP3    H140687   1.213   1.144   6.575  0.7659  0.8133 -0.6323
 6424TIP3    H240688   1.327   1.073   6.505 -0.4369 -1.8869  0.0036
 6425TIP3   OH240689   5.287   2.529  10.296 -0.2100 -0.3528 -0.2177
 6425TIP3    H140690   5.219   2.507  10.360 -0.1587  0.2705  0.0611
 6425TIP3    H240691   5.361   2.557  10.350 -0.1823  0.2280 -0.5579
 6426TIP3   OH240692   2.114   4.363  12.399  0.6967  0.3075 -0.0216
 6426TIP3    H140693   2.042   4.313  12.437  0.6094  0.6372  0.2577
 6426TIP3    H240694   2.091   4.455  12.415  0.1838  0.5124 -1.7217
 6427TIP3   OH240695   3.955   4.396  11.479 -0.0515 -0.2343  0.1644
 6427TIP3    H140696   3.996   4.311  11.466 -0.3048 -0.5715  1.4659
 6427TIP3    H240697   4.020   4.447  11.527 -0.2154  0.0365  0.1026
 6428TIP3   OH240698   0.718   3.179   0.689  0.2981  0.0438  0.2452
 6428TIP3    H140699   0.633   3.147   0.659  0.3341 -1.0519  1.2639
 6428TIP3    H240700   0.710   3.274   0.686 -0.4929 -0.0409 -0.9537
 6429TIP3   OH240701   4.117   3.762  15.225  0.0951  0.4249 -0.2957
 6429TIP3    H140702   4.191   3.763  15.284  2.0663 -1.5228 -2.5016
 6429TIP3    H240703   4.068   3.683  15.249  0.7180 -0.1912 -1.0051
 6430TIP3   OH240704   1.442   1.208  13.297 -0.3137 -0.2405 -0.5837
 6430TIP3    H140705   1.463   1.294  13.262  0.2506 -0.1127  0.0510
 6430TIP3    H240706   1.465   1.213  13.390  2.4125 -1.9017 -1.0390
 6431TIP3   OH240707   0.771   6.130   5.551  0.0336 -0.7026  0.2531
 6431TIP3    H140708   0.824   6.206   5.574  0.3638 -1.3072  1.5875
 6431TIP3    H240709   0.766   6.079   5.631 -0.3382 -2.0010 -0.5606
 6432TIP3   OH240710   1.024   3.466  12.195  0.1255 -0.2776 -0.4878
 6432TIP3    H140711   1.088   3.453  12.125  1.3277  2.3438 -0.0005
 6432TIP3    H240712   0.965   3.391  12.188  2.5762 -2.2526 -1.6776
 6433TIP3   OH240713   6.133   3.835   1.844 -0.0871  0.3362  0.7686
 6433TIP3    H140714   6.194   3.890   1.796  0.7308 -0.6195  0.6802
 6433TIP3    H240715   6.136   3.869   1.934  0.4744  0.3770  0.7373
 6434TIP3   OH240716   4.911   4.327   4.197 -0.1043 -0.1881  0.2043
 6434TIP3    H140717   4.874   4.411   4.223  0.3891  0.3982 -0.8909
 6434TIP3    H240718   4.893   4.322   4.103  1.9387 -0.2022 -0.2339
 6435TIP3   OH240719   5.037   1.035  10.486  0.2612  0.3114  0.2722
 6435TIP3    H140720   4.972   0.978  10.529 -0.6796  0.6068 -0.7122
 6435TIP3    H240721   5.121   1.008  10.524 -0.0120 -2.4129 -0.7822
 6436TIP3   OH240722   4.455   5.506   1.065 -0.0559 -0.0219  0.6973
 6436TIP3    H140723   4.481   5.557   0.988  0.3248 -0.7521  0.3272
 6436TIP3    H240724   4.461   5.567   1.138 -0.5972  0.7254  0.1222
 6437TIP3   OH240725   3.164   5.260   5.856  0.0111  0.2650 -0.1957
 6437TIP3    H140726   3.172   5.166   5.837  0.7794  0.2065  0.4118
 6437TIP3    H240727   3.229   5.277   5.923 -0.9778  0.9857  0.6113
 6438TIP3   OH240728   1.742   4.080  11.195  0.6139 -0.3795 -0.9315
 6438TIP3    H140729   1.789   4.146  11.246  0.6492  0.3020 -1.8136
 6438TIP3    H240730   1.811   4.019  11.167  0.8954  0.2801 -1.7106
 6439TIP3   OH240731   4.562   1.320   3.917 -0.1047 -0.1967 -0.2246
 6439TIP3    H140732   4.554   1.253   3.849  0.2705 -0.5720  0.0954
 6439TIP3    H240733   4.653   1.314   3.946 -0.5911 -0.9006  1.1945
 6440TIP3   OH240734   5.255   0.949  10.623 -0.3054  0.1125  0.2418
 6440TIP3    H140735   5.348   0.971  10.621 -0.0719 -0.8887 -0.1144
 6440TIP3    H240736   5.252   0.854  10.628 -1.3138  0.1301  0.2096
 6441TIP3   OH240737   0.230   3.180   1.343 -0.1094  0.0633 -0.5042
 6441TIP3    H140738   0.232   3.112   1.409  0.3235 -0.0062 -0.5894
 6441TIP3    H240739   0.143   3.173   1.303 -0.0165 -0.5172 -0.6010
 6442TIP3   OH240740   1.317   6.545  13.311  0.0763  0.3641 -0.1198
 6442TIP3    H140741   1.329   6.625  13.362  0.8046 -0.0284  0.3407
 6442TIP3    H240742   1.241   6.563  13.255  1.1590  1.9571 -1.1671
 6443TIP3   OH240743   3.463   2.106  14.631 -0.2271 -0.0859 -0.1317
 6443TIP3    H140744   3.462   2.143  14.719  0.2854  0.1022 -0.2014
 6443TIP3    H240745   3.393   2.151  14.584  0.2564  0.6571 -0.1561
 6444TIP3   OH240746   1.189   1.266   5.163 -0.7328 -0.5628  0.5133
 6444TIP3    H140747   1.217   1.188   5.210  1.9565 -0.0354 -0.0363
 6444TIP3    H240748   1.223   1.254   5.074 -1.9898  0.3761 -0.1285
 6445TIP3   OH240749   5.234   4.050  15.290  0.0344 -0.1077 -0.1978
 6445TIP3    H140750   5.192   4.132  15.312  0.1627 -0.0050 -0.3344
 6445TIP3    H240751   5.166   3.984  15.302  0.7355 -0.4191  3.0321
 6446TIP3   OH240752   4.540   2.913  15.975 -0.1286  0.3973  0.3245
 6446TIP3    H140753   4.589   2.866  16.042  0.6235  1.2824  0.4114
 6446TIP3    H240754   4.463   2.947  16.022  0.0052  0.3817  0.5574
 6447TIP3   OH240755   1.769   0.828   0.170  0.0810 -0.5179  0.2025
 6447TIP3    H140756   1.712   0.879   0.227 -2.2413 -1.3526 -1.2468
 6447TIP3    H240757   1.801   0.756   0.225 -0.3574 -0.1221  0.9936
 6448TIP3   OH240758   4.716   3.545   1.955 -0.2187  0.2371 -0.5932
 6448TIP3    H140759   4.638   3.598   1.937 -1.1365 -0.4636  1.1282
 6448TIP3    H240760   4.684   3.455   1.953  0.6363 -0.0837 -0.2092
 6449TIP3   OH240761   5.190   2.201  13.126 -0.0999  0.2443  0.2297
 6449TIP3    H140762   5.258   2.180  13.190  0.2123 -1.2668 -0.5460
 6449TIP3    H240763   5.233   2.259  13.063  1.0318 -1.9095 -1.1207
 6450TIP3   OH240764   3.760   2.085  14.824 -0.0703 -0.3688  1.2069
 6450TIP3    H140765   3.823   2.155  14.839 -1.3714  1.3543 -0.7323
 6450TIP3    H240766   3.778   2.055  14.734 -0.9584 -0.9597  1.2047
 6451TIP3   OH240767   0.768   5.982   4.163  0.5695 -0.2481 -0.2961
 6451TIP3    H140768   0.744   6.046   4.230 -2.2520 -0.4531 -0.9634
 6451TIP3    H240769   0.777   5.899   4.211  2.4561  0.2543  0.3073
 6452TIP3   OH240770   3.669   0.299  14.498 -0.1343  0.0421 -0.3238
 6452TIP3    H140771   3.627   0.284  14.582  0.5717 -0.0084  0.0339
 6452TIP3    H240772   3.608   0.354  14.449 -2.1901 -2.7385 -1.1498
 6453TIP3   OH240773   0.157   0.254   5.034 -0.1827 -0.4025 -0.3107
 6453TIP3    H140774   0.231   0.207   4.996 -1.5842 -1.4151 -1.9518
 6453TIP3    H240775   0.101   0.185   5.071 -0.6055  0.2892  0.3808
 6454TIP3   OH240776   6.302   1.413   0.258  0.4220  0.6621 -0.4921
 6454TIP3    H140777   6.378   1.444   0.307 -0.1440  0.7540  0.3470
 6454TIP3    H240778   6.338   1.377   0.177  1.5565 -1.2964  0.8296
 6455TIP3   OH240779   1.752   4.420   4.668 -0.1810 -0.2154 -0.3706
 6455TIP3    H140780   1.806   4.349   4.634  2.8083  1.7715 -0.1277
 6455TIP3    H240781   1.768   4.419   4.763 -2.6753 -1.1234  0.1233
 6456TIP3   OH240782   3.148   5.363   0.213  0.3886  0.2745  0.4337
 6456TIP3    H140783   3.148   5.355   0.308 -0.8191 -2.5284  0.2866
 6456TIP3    H240784   3.224   5.313   0.184 -1.1341 -1.7962 -0.1609
 6457TIP3   OH240785   3.827   0.479   0.861  0.1125 -0.1829  0.4834
 6457TIP3    H140786   3.758   0.416   0.842  0.2777  0.1838 -1.6087
 6457TIP3    H240787   3.908   0.435   0.832  0.1463  1.1759 -1.7259
 6458TIP3   OH240788   4.662   2.803  11.659  0.2634  0.5452 -0.7020
 6458TIP3    H140789   4.654   2.784  11.565 -4.0073  1.6260 -0.7595
 6458TIP3    H240790   4.649   2.718  11.701 -1.0512  0.5325 -1.0975
 6459TIP3   OH240791   2.150   5.989  14.016 -0.0959  0.3460  0.4858
 6459TIP3    H140792   2.136   6.078  13.986  0.5298  1.0601  2.1856
 6459TIP3    H240793   2.137   5.993  14.111 -2.8430 -1.9461  0.3460
 6460TIP3   OH240794   2.986   0.082  11.855  0.1240 -1.0345  0.4449
 6460TIP3    H140795   2.927   0.145  11.815 -0.6203 -0.5987  2.1508
 6460TIP3    H240796   3.071   0.128  11.859 -0.0041 -0.7704  0.1800
 6461TIP3   OH240797   4.410   6.184  12.003 -0.3753 -0.5492  0.0312
 6461TIP3    H140798   4.472   6.158  12.072  0.3459  0.6695 -0.1307
 6461TIP3    H240799   4.371   6.265  12.034 -1.2770 -0.8531 -0.2670
 6462TIP3   OH240800   0.077   5.767  11.214  0.1548 -0.0237  0.1482
 6462TIP3    H140801   0.023   5.691  11.191 -1.2680  0.8231  0.5832
 6462TIP3    H240802   0.095   5.810  11.130 -0.2136 -0.0719  0.0446
 6463TIP3   OH240803   2.434   0.829  12.431  0.0835 -0.1588 -0.5757
 6463TIP3    H140804   2.386   0.912  12.426 -1.5475 -1.0527 -0.6281
 6463TIP3    H240805   2.388   0.771  12.370  1.1834 -1.1090 -0.5457
 6464TIP3   OH240806   0.687   4.355  16.030 -0.1437 -0.0434  0.4743
 6464TIP3    H140807   0.627   4.398  16.091  1.3501 -0.6472  2.4577
 6464TIP3    H240808   0.743   4.300  16.085  1.3753 -0.5243 -1.4296
 6465TIP3   OH240809   6.122   1.159   4.570  0.1751 -0.2513  0.3508
 6465TIP3    H140810   6.036   1.199   4.559 -0.6673 -1.5852  1.5787
 6465TIP3    H240811   6.114   1.073   4.529  0.9179 -0.3933  0.4779
 6466TIP3   OH240812   0.775   4.231  12.803  0.0951  0.5357  0.1348
 6466TIP3    H140813   0.767   4.135  12.806 -2.0207  0.7036  2.1886
 6466TIP3    H240814   0.810   4.255  12.888  2.1805  1.5705 -0.9324
 6467TIP3   OH240815   2.949   0.153   0.183  0.1486  0.0318 -0.0709
 6467TIP3    H140816   2.855   0.140   0.166  0.3767 -1.7849 -0.0886
 6467TIP3    H240817   2.951   0.199   0.266 -0.7776  1.1394 -0.6278
 6468TIP3   OH240818   0.838   0.314   4.389  0.0922  0.0837  1.0287
 6468TIP3    H140819   0.854   0.337   4.480  0.9568 -0.2613  0.9751
 6468TIP3    H240820   0.866   0.391   4.339 -0.3535  0.2614  1.0480
 6469TIP3   OH240821   3.740   1.661  13.962  0.4127  0.0117 -0.0475
 6469TIP3    H140822   3.736   1.668  13.866  2.2229  0.0433 -0.1652
 6469TIP3    H240823   3.824   1.701  13.985 -1.0498  2.2387  1.8343
 6470TIP3   OH240824   0.141   2.654  15.580 -0.2995  0.4357 -0.2678
 6470TIP3    H140825   0.071   2.626  15.521 -0.6553  1.1636 -0.1944
 6470TIP3    H240826   0.153   2.747  15.561  1.1912  0.1639 -0.8400
 6471TIP3   OH240827   3.859   5.035   4.033 -0.6373 -0.6139  0.8625
 6471TIP3    H140828   3.775   5.059   3.993 -0.9623 -1.0619  1.2715
 6471TIP3    H240829   3.914   5.011   3.958 -0.0974  1.9058  0.3585
 6472TIP3   OH240830   2.157   6.397  11.648  0.5069 -0.3585  0.2705
 6472TIP3    H140831   2.138   6.468  11.709 -0.7139 -0.3593 -0.0841
 6472TIP3    H240832   2.231   6.430  11.596 -1.2791  1.5579 -1.2456
 6473TIP3   OH240833   6.739   1.428  13.410 -0.3410 -0.2895  0.4267
 6473TIP3    H140834   6.700   1.486  13.476 -1.5779  0.3504 -0.8118
 6473TIP3    H240835   6.827   1.463  13.396 -0.7034  0.6551  0.4570
 6474TIP3   OH240836   4.925   5.954   4.596  0.5323  0.7390 -0.5079
 6474TIP3    H140837   4.844   5.941   4.546  0.7880 -1.0708 -0.5217
 6474TIP3    H240838   4.903   5.928   4.685  0.3621  2.9853  0.1678
 6475TIP3   OH240839   1.596   2.220   2.763 -0.2651  0.4861 -0.1562
 6475TIP3    H140840   1.632   2.304   2.791  0.6717 -0.1393  0.5450
 6475TIP3    H240841   1.534   2.243   2.694 -1.2001  1.8845  1.0968
 6476TIP3   OH240842   5.732   0.588  11.697  0.2778  0.3671  0.4489
 6476TIP3    H140843   5.646   0.555  11.725 -0.6542  1.1061 -1.3877
 6476TIP3    H240844   5.775   0.512  11.658 -0.7828  0.6215 -1.3279
 6477TIP3   OH240845   1.030   5.731   4.165 -0.4068  0.1053 -0.0303
 6477TIP3    H140846   0.944   5.721   4.205  0.0164  2.4486  1.6825
 6477TIP3    H240847   1.073   5.647   4.179 -2.9809 -1.8742 -2.7026
 6478TIP3   OH240848   0.632   0.814   1.736 -0.1049  0.8640 -0.1725
 6478TIP3    H140849   0.608   0.788   1.825 -1.3622 -0.3191 -0.8097
 6478TIP3    H240850   0.686   0.742   1.704 -0.3992  0.8513 -0.6531
 6479TIP3   OH240851   0.608   1.280  15.372 -0.3860 -0.2575  0.5827
 6479TIP3    H140852   0.538   1.279  15.438  0.2036  0.0622  1.2162
 6479TIP3    H240853   0.561   1.274  15.288 -1.3504  2.2357  0.8533
 6480TIP3   OH240854   6.358   5.587  13.820  0.1229 -0.1530  0.9078
 6480TIP3    H140855   6.314   5.503  13.806  0.4464 -0.1471 -0.1910
 6480TIP3    H240856   6.319   5.645  13.754  0.2907  0.4142  1.3049
 6481TIP3   OH240857   3.379   6.178   2.088  0.0307 -0.0545 -0.1365
 6481TIP3    H140858   3.400   6.219   2.171 -1.5279 -1.9393  1.3033
 6481TIP3    H240859   3.283   6.180   2.083  0.0666 -0.4393 -1.6308
 6482TIP3   OH240860   2.451   4.879   6.507 -0.3627  0.6576 -0.5148
 6482TIP3    H140861   2.527   4.935   6.495  0.0013  0.2592 -0.0744
 6482TIP3    H240862   2.379   4.929   6.468 -0.1550  1.6812  0.3510
 6483TIP3   OH240863   1.610   4.130  14.593  0.3492  0.0084 -0.9692
 6483TIP3    H140864   1.572   4.051  14.555 -0.4523 -0.5215  0.8063
 6483TIP3    H240865   1.610   4.113  14.688  0.9955  1.7712 -0.6166
 6484TIP3   OH240866   6.767   6.679  10.655  0.6746  0.2959  0.4294
 6484TIP3    H140867   6.744   6.598  10.701  1.0239 -0.9885 -1.5540
 6484TIP3    H240868   6.862   6.674  10.644  0.4497 -0.2223 -1.7264
 6485TIP3   OH240869   0.130   3.132   2.288 -0.4253 -0.6981 -0.2171
 6485TIP3    H140870   0.045   3.100   2.258 -0.5447 -1.7410  1.0851
 6485TIP3    H240871   0.159   3.065   2.350 -0.6464  1.6626  2.6532
 6486TIP3   OH240872   3.655   2.625  15.484 -0.1128 -0.4460 -0.1892
 6486TIP3    H140873   3.671   2.531  15.490 -0.0056 -0.4334 -0.2929
 6486TIP3    H240874   3.559   2.633  15.479 -0.0940 -0.7634 -3.9346
 6487TIP3   OH240875   3.356   4.909  13.361 -0.1327  0.7137 -0.0673
 6487TIP3    H140876   3.431   4.961  13.334 -0.1825  0.8572  0.0702
 6487TIP3    H240877   3.393   4.839  13.415 -0.0778  0.6701 -0.1619
 6488TIP3   OH240878   2.644   4.235   2.726 -0.3644 -0.3219  0.5605
 6488TIP3    H140879   2.737   4.215   2.726 -0.2459  0.2070  0.7802
 6488TIP3    H240880   2.615   4.219   2.637 -0.0901 -0.6045  0.5216
 6489TIP3   OH240881   1.883   0.239   0.977  0.0960  0.0665  0.3835
 6489TIP3    H140882   1.973   0.259   0.955 -0.0214  1.0612  0.7162
 6489TIP3    H240883   1.856   0.173   0.914  1.3894 -1.0660  0.9719
 6490TIP3   OH240884   2.852   5.013   3.448  0.4284 -0.0415  0.2433
 6490TIP3    H140885   2.765   5.027   3.413  0.7366 -2.1502 -1.5946
 6490TIP3    H240886   2.908   5.073   3.399  0.1068  1.0947  1.2128
 6491TIP3   OH240887   1.168   6.170  10.595  0.2510  0.3368 -0.3760
 6491TIP3    H140888   1.120   6.087  10.594  1.0005 -0.2067  1.8966
 6491TIP3    H240889   1.260   6.143  10.597  0.5020  1.2067  0.1858
 6492TIP3   OH240890   0.183   4.326   1.065 -0.2723 -0.3385  0.0335
 6492TIP3    H140891   0.099   4.280   1.066 -0.4311 -0.0658 -0.4531
 6492TIP3    H240892   0.249   4.257   1.057 -0.3831 -0.6292  1.3820
 6493TIP3   OH240893   1.027   2.712   4.067  0.2917 -0.4390 -0.9108
 6493TIP3    H140894   1.094   2.650   4.094 -0.8386 -1.6034 -0.7184
 6493TIP3    H240895   0.961   2.660   4.022 -0.1774  0.7785 -1.7015
 6494TIP3   OH240896   3.460   6.711  13.100  0.4123  0.3744  0.2547
 6494TIP3    H140897   3.416   6.636  13.140 -0.9982 -0.1644 -2.0870
 6494TIP3    H240898   3.504   6.755  13.173 -3.6772  0.7315  2.8257
 6495TIP3   OH240899   6.488   4.111  16.292 -0.0662 -0.3955  0.0600
 6495TIP3    H140900   6.544   4.186  16.309  1.5902 -1.3234 -1.0239
 6495TIP3    H240901   6.447   4.130  16.207 -2.0762  0.6280  1.1948
 6496TIP3   OH240902   6.195   0.302   5.339 -0.5973  0.0684  0.1162
 6496TIP3    H140903   6.113   0.312   5.292 -0.7423 -1.5363 -0.0147
 6496TIP3    H240904   6.170   0.282   5.429 -0.3990 -1.4633 -0.1406
 6497TIP3   OH240905   2.120   0.386  13.464  0.1664 -0.7103 -0.1206
 6497TIP3    H140906   2.080   0.406  13.548 -0.0281  1.3912 -0.6407
 6497TIP3    H240907   2.115   0.291  13.456 -0.5110 -0.8856  1.8681
 6498TIP3   OH240908   1.620   1.993   4.266 -0.1751  0.4204 -0.0631
 6498TIP3    H140909   1.530   1.969   4.290  0.0653  0.2945  0.7315
 6498TIP3    H240910   1.675   1.933   4.315  0.3669  0.8404 -0.1436
 6499TIP3   OH240911   1.605   3.944   3.130  0.3398 -0.1139 -0.4756
 6499TIP3    H140912   1.553   3.924   3.053  1.7714  0.1792 -1.5746
 6499TIP3    H240913   1.692   3.909   3.110  0.6213 -0.4634  1.2193
 6500TIP3   OH240914   5.338   0.365   1.069 -0.3958 -0.0128  0.2447
 6500TIP3    H140915   5.388   0.427   1.016 -0.2870  0.4061  0.8292
 6500TIP3    H240916   5.312   0.415   1.146 -0.3837 -0.6718  0.6815
 6501TIP3   OH240917   1.944   3.489   3.546  0.3027  0.2102  0.7366
 6501TIP3    H140918   1.861   3.460   3.584 -0.0418 -1.7840 -1.3137
 6501TIP3    H240919   1.945   3.450   3.458  3.4768  0.0747  0.7203
 6502TIP3   OH240920   0.768   0.592   0.728 -0.4226  0.2639  0.1997
 6502TIP3    H140921   0.740   0.584   0.819  1.2909  1.1763  0.8620
 6502TIP3    H240922   0.860   0.617   0.733 -0.6993  1.9582 -1.7778
 6503TIP3   OH240923   1.827   5.342  14.019 -0.6387  0.3464 -0.2040
 6503TIP3    H140924   1.739   5.374  14.037 -0.1403  0.5318  2.2786
 6503TIP3    H240925   1.859   5.311  14.103  2.4266  2.1947 -0.5173
 6504TIP3   OH240926   5.561   5.266  14.604 -0.6027 -0.2702  0.2071
 6504TIP3    H140927   5.486   5.266  14.664 -0.1728  1.9274  0.8149
 6504TIP3    H240928   5.637   5.272  14.660 -0.2195  2.8386 -0.4776
 6505TIP3   OH240929   4.645   1.422  10.467  0.5854  0.5732 -0.2845
 6505TIP3    H140930   4.692   1.477  10.529 -0.0570  1.1849 -0.3208
 6505TIP3    H240931   4.673   1.333  10.488 -1.1047  0.5192  2.2746
 6506TIP3   OH240932   6.589   4.077   5.194  0.7222  0.3362 -0.4518
 6506TIP3    H140933   6.617   4.101   5.105  0.6730 -1.9033 -1.1348
 6506TIP3    H240934   6.670   4.079   5.246  1.4803 -1.8661 -1.4245
 6507TIP3   OH240935   2.731   2.091   3.663  0.7266  0.4200  0.8391
 6507TIP3    H140936   2.657   2.153   3.657  1.2170  1.0551  1.2132
 6507TIP3    H240937   2.778   2.103   3.580 -0.1499 -0.7311  0.1503
 6508TIP3   OH240938   5.978   3.754   5.135 -0.3494  0.1166 -0.6312
 6508TIP3    H140939   5.901   3.713   5.094  0.0992 -1.4193 -0.0201
 6508TIP3    H240940   6.053   3.712   5.094  0.1850  1.4385 -1.0551
 6509TIP3   OH240941   2.574   3.411  15.156 -0.1705  0.6376 -0.3967
 6509TIP3    H140942   2.630   3.483  15.185  0.1503 -0.1317  0.9269
 6509TIP3    H240943   2.595   3.338  15.214  0.0027 -0.7666 -2.1274
 6510TIP3   OH240944   0.063   1.123  14.079 -0.3352 -0.1797 -0.4903
 6510TIP3    H140945   0.057   1.138  14.173  0.5314 -0.4332 -0.3885
 6510TIP3    H240946   0.055   1.028  14.070 -0.5947 -0.1389 -0.6861
 6511TIP3   OH240947   6.339   2.948   2.162 -0.2781  0.4154  0.2463
 6511TIP3    H140948   6.311   2.916   2.077  1.4319  2.4737 -1.1972
 6511TIP3    H240949   6.298   3.034   2.170  1.4634  1.2841  0.3480
 6512TIP3   OH240950   2.476   4.729  15.492  0.2557  0.6465  0.4461
 6512TIP3    H140951   2.499   4.639  15.515 -1.3107  0.1457  0.1296
 6512TIP3    H240952   2.546   4.756  15.432 -0.7257 -1.3949 -1.7951
 6513TIP3   OH240953   3.309   1.106  14.820  0.1203  0.3780  0.1544
 6513TIP3    H140954   3.351   1.053  14.752 -1.0236 -0.3539  0.0004
 6513TIP3    H240955   3.230   1.058  14.843 -0.6930  1.7668  0.3732
 6514TIP3   OH240956   1.435   2.009   4.760  0.1455  0.4950  0.2146
 6514TIP3    H140957   1.372   2.079   4.741 -0.3304 -0.0131 -0.1033
 6514TIP3    H240958   1.451   1.967   4.676  0.6250  0.3791  0.3593
 6515TIP3   OH240959   5.210   2.584  12.501 -0.0421 -0.0187 -0.2011
 6515TIP3    H140960   5.246   2.671  12.486 -0.6855 -0.0518 -2.3129
 6515TIP3    H240961   5.147   2.596  12.571  0.6619  0.9870  0.2858
 6516TIP3   OH240962   0.518   4.688   4.352  0.1105  0.0856 -0.0912
 6516TIP3    H140963   0.537   4.641   4.271 -0.0537 -0.3178  0.1041
 6516TIP3    H240964   0.568   4.643   4.419 -2.0772 -1.5071  0.5849
 6517TIP3   OH240965   4.818   5.323   4.843 -0.1188 -0.4625 -0.4243
 6517TIP3    H140966   4.786   5.363   4.923  0.1737 -0.9288 -0.0706
 6517TIP3    H240967   4.913   5.314   4.856 -0.2256 -1.6020 -0.3420
 6518TIP3   OH240968   4.131   5.768  15.171 -0.3509 -0.5547 -0.0166
 6518TIP3    H140969   4.197   5.723  15.119 -0.5794 -0.3411 -0.5004
 6518TIP3    H240970   4.099   5.838  15.113  1.1257  1.2710  1.2486
 6519TIP3   OH240971   3.068   4.202  13.932  0.0130  0.5688 -0.3514
 6519TIP3    H140972   3.119   4.258  13.873  1.5436 -1.5420 -1.1664
 6519TIP3    H240973   2.979   4.205  13.897  0.5842  0.5912 -1.8914
 6520TIP3   OH240974   2.890   1.352   5.357 -0.6254  0.2913 -0.4688
 6520TIP3    H140975   2.829   1.425   5.366 -0.2549  0.8665 -2.3111
 6520TIP3    H240976   2.907   1.324   5.447 -1.4602  1.8885  0.2201
 6521TIP3   OH240977   0.845   5.517  16.822 -0.3516  1.2537  0.1714
 6521TIP3    H140978   0.766   5.572  16.822 -0.6651  0.8090 -0.6429
 6521TIP3    H240979   0.826   5.448  16.885 -0.9669  0.6614 -0.6449
 6522TIP3   OH240980   5.378   1.488  13.059 -0.3560  0.1069 -1.1915
 6522TIP3    H140981   5.381   1.441  12.976  0.4059  1.3504 -1.9074
 6522TIP3    H240982   5.400   1.422  13.125  2.5636 -0.2267 -2.3295
 6523TIP3   OH240983   0.554   1.043  10.610  0.2104 -0.0054  0.4913
 6523TIP3    H140984   0.473   1.002  10.641  0.9200 -1.7345  0.1464
 6523TIP3    H240985   0.528   1.133  10.589 -1.2917 -0.1000  1.7316
 6524TIP3   OH240986   1.325   2.169  10.811  0.1605 -0.0260  0.3720
 6524TIP3    H140987   1.413   2.183  10.845  0.5618 -0.6453 -0.3712
 6524TIP3    H240988   1.274   2.140  10.887  1.0967 -1.6597  0.4195
 6525TIP3   OH240989   5.347   1.677   6.206 -0.4821 -0.1964 -0.3267
 6525TIP3    H140990   5.422   1.716   6.161  0.6902 -1.4586  0.4813
 6525TIP3    H240991   5.383   1.640   6.286 -1.9352 -1.0260 -0.0215
 6526TIP3   OH240992   0.114   0.916   2.157 -0.4478  0.0412  0.2988
 6526TIP3    H140993   0.058   0.911   2.235  0.0216  0.7056  0.6904
 6526TIP3    H240994   0.157   1.001   2.164 -1.5947  0.8299 -1.5182
 6527TIP3   OH240995   3.075   1.993   4.046 -0.0703  0.4279  0.2548
 6527TIP3    H140996   3.134   1.928   4.009 -0.4221 -0.9831  1.9980
 6527TIP3    H240997   2.989   1.970   4.010 -0.3288 -0.6373  1.4565
 6528TIP3   OH240998   1.887   1.547  17.156 -0.0983  0.4058  0.0439
 6528TIP3    H140999   1.817   1.612  17.153  0.4183  0.9465 -2.7932
 6528TIP3    H241000   1.860   1.480  17.094  1.4310  0.1273 -0.3575
 6529TIP3   OH241001   0.639   4.578   2.091 -0.2727  0.0126  0.1740
 6529TIP3    H141002   0.639   4.580   1.995 -0.6532 -2.2824  0.0750
 6529TIP3    H241003   0.548   4.564   2.115  0.0872 -1.4823  0.7562
 6530TIP3   OH241004   5.046   1.031  15.715 -0.3585 -0.4352 -0.1722
 6530TIP3    H141005   4.977   1.084  15.676 -0.1104 -0.5526 -0.7787
 6530TIP3    H241006   5.126   1.059  15.670 -0.1491 -0.9531 -0.1242
 6531TIP3   OH241007   0.634   4.913  17.166 -0.0208 -0.2095 -0.2175
 6531TIP3    H141008   0.542   4.940  17.163  0.2621  1.0831  1.5830
 6531TIP3    H241009   0.682   4.991  17.192  1.2709 -1.4945  1.4738
 6532TIP3   OH241010   5.521   4.566  11.911  0.2428 -0.1965 -0.3807
 6532TIP3    H141011   5.614   4.555  11.891  0.2631  0.0228 -0.4107
 6532TIP3    H241012   5.489   4.628  11.844 -0.2476 -1.3595 -1.2575
 6533TIP3   OH241013   1.120   3.420   3.929  0.2951  0.3090  0.5369
 6533TIP3    H141014   1.153   3.476   3.999  2.0057  1.1132 -0.8229
 6533TIP3    H241015   1.189   3.354   3.917 -0.3378 -0.2913  0.1134
 6534TIP3   OH241016   2.393   2.028  15.845  0.1500 -0.4543  0.5008
 6534TIP3    H141017   2.432   2.015  15.931 -1.0898  1.4560  1.4428
 6534TIP3    H241018   2.434   1.963  15.789  1.9610 -0.8858  2.2337
 6535TIP3   OH241019   5.956   0.243  14.715 -0.1539 -0.4941  0.0585
 6535TIP3    H141020   6.026   0.199  14.666 -0.2250 -1.6803  0.9694
 6535TIP3    H241021   5.883   0.247  14.654  0.2111 -0.6469 -0.3975
 6536TIP3   OH241022   2.767   3.199   4.577  0.2664 -0.1587  0.3873
 6536TIP3    H141023   2.709   3.127   4.552 -1.7749  1.3592  0.5035
 6536TIP3    H241024   2.806   3.228   4.494 -0.7663  0.1157 -0.0197
 6537TIP3   OH241025   0.080   4.734   4.604 -0.0770 -0.2183 -0.0067
 6537TIP3    H141026   0.173   4.724   4.628  0.0974 -0.0794 -0.5912
 6537TIP3    H241027   0.051   4.811   4.653 -0.4273 -1.3622  1.6773
 6538TIP3   OH241028   0.800   0.108  15.355  0.0332  0.2603 -0.6157
 6538TIP3    H141029   0.842   0.070  15.279  1.4019  0.0509  0.2115
 6538TIP3    H241030   0.755   0.186  15.322 -1.5947 -1.2223 -2.0641
 6539TIP3   OH241031   6.175   6.433  17.148  0.8507  0.4492 -0.2430
 6539TIP3    H141032   6.137   6.355  17.188  1.5285  0.7757  1.0949
 6539TIP3    H241033   6.230   6.471  17.216  3.3674  0.1425 -1.9563
 6540TIP3   OH241034   6.294   5.913  14.593 -0.0208  0.1349 -0.3614
 6540TIP3    H141035   6.299   5.986  14.532 -0.2463  1.7676  1.4769
 6540TIP3    H241036   6.358   5.934  14.661  0.3074 -1.6686 -0.0654
 6541TIP3   OH241037   3.328   2.128   4.449 -0.2848  0.0819 -0.7599
 6541TIP3    H141038   3.405   2.157   4.497 -0.3022  0.9689 -1.2606
 6541TIP3    H241039   3.330   2.032   4.457  0.8556  0.0913 -0.7645
 6542TIP3   OH241040   6.174   2.570   1.667 -0.1087 -0.1479  0.3865
 6542TIP3    H141041   6.105   2.628   1.637  1.2807  0.2571 -2.3025
 6542TIP3    H241042   6.251   2.596   1.617  1.4124 -2.1401  1.5288
 6543TIP3   OH241043   6.377   2.547   1.879  0.1605  0.5766  0.2443
 6543TIP3    H141044   6.456   2.532   1.827  0.1139  0.1663  0.2898
 6543TIP3    H241045   6.305   2.535   1.817  0.0286 -1.4996  0.7211
 6544TIP3   OH241046   2.329   5.780  14.086  0.3116 -0.2682  0.0097
 6544TIP3    H141047   2.316   5.850  14.022 -0.1583 -0.6330 -0.2980
 6544TIP3    H241048   2.424   5.766  14.086  0.2818 -0.5918 -0.9775
 6545TIP3   OH241049   0.264   5.769  13.317  0.1927 -0.0577 -0.7954
 6545TIP3    H141050   0.296   5.715  13.245 -0.5563 -1.6620  0.0271
 6545TIP3    H241051   0.311   5.852  13.308  0.6505 -0.4813 -2.6808
 6546TIP3   OH241052   0.470   1.964  15.237 -0.3949 -0.0832  0.1097
 6546TIP3    H141053   0.418   2.035  15.275 -1.3894 -0.8028  0.0943
 6546TIP3    H241054   0.455   1.889  15.294  1.1892 -0.1286  0.5198
 6547TIP3   OH241055   4.575   3.456  11.282  0.1810 -0.3459 -0.2123
 6547TIP3    H141056   4.649   3.503  11.321  0.2922  0.9704 -1.8751
 6547TIP3    H241057   4.579   3.369  11.321 -0.0967  0.9588  3.1399
 6548TIP3   OH241058   5.543   1.073   2.643  0.4436  0.0153  0.4014
 6548TIP3    H141059   5.555   1.002   2.580 -0.3833  0.6222 -0.4532
 6548TIP3    H241060   5.505   1.030   2.720  0.8192 -0.6149  0.2422
 6549TIP3   OH241061   0.944   2.837   6.458  0.2492  0.4244  0.7320
 6549TIP3    H141062   0.848   2.831   6.452  0.3392 -0.0130 -0.7147
 6549TIP3    H241063   0.960   2.910   6.518 -0.9862  0.2061  1.3531
 6550TIP3   OH241064   6.718   0.919   0.636  0.1298 -0.1275  0.0442
 6550TIP3    H141065   6.793   0.928   0.694 -0.4970 -0.0495  0.8708
 6550TIP3    H241066   6.691   0.827   0.645  0.6507 -0.3837 -0.9241
 6551TIP3   OH241067   0.766   5.131   0.052  0.2330  0.8656  0.4028
 6551TIP3    H141068   0.690   5.177   0.086 -2.2907 -2.7040  0.1237
 6551TIP3    H241069   0.823   5.118   0.128 -1.9605 -0.8512  1.8465
 6552TIP3   OH241070   2.899   2.632  10.905 -0.5977  0.4405 -0.2325
 6552TIP3    H141071   2.832   2.589  10.851 -1.4689 -0.0138  1.1595
 6552TIP3    H241072   2.979   2.583  10.887 -1.0856 -0.3109 -0.3873
 6553TIP3   OH241073   4.610   1.517   0.042  0.6458 -0.0947 -0.7279
 6553TIP3    H141074   4.669   1.584   0.077  0.2832  0.7676 -1.7146
 6553TIP3    H241075   4.608   1.534  -0.052 -1.6430  0.2818 -0.6688
 6554TIP3   OH241076   5.484   0.414   4.075  0.1200  0.1452  0.1187
 6554TIP3    H141077   5.485   0.325   4.040  0.1895  0.7794 -1.5453
 6554TIP3    H241078   5.511   0.470   4.002 -0.7209  1.6209  0.8811
 6555TIP3   OH241079   6.599   5.668   4.173  0.3696  0.1169  0.3890
 6555TIP3    H141080   6.593   5.706   4.260  0.6190  0.0815  0.4235
 6555TIP3    H241081   6.602   5.743   4.113  2.5083  0.2351  0.5512
 6556TIP3   OH241082   1.316   3.815   5.629 -0.0045  0.6223 -0.4240
 6556TIP3    H141083   1.246   3.880   5.638  0.8527  1.3869  1.1357
 6556TIP3    H241084   1.375   3.834   5.701  0.9796 -1.0582 -0.7436
 6557TIP3   OH241085   2.072   2.636   4.922  0.0610 -0.2599 -0.0046
 6557TIP3    H141086   2.006   2.655   4.855 -0.9182  0.1658  1.0493
 6557TIP3    H241087   2.049   2.693   4.995  1.3588 -0.4223  0.5463
 6558TIP3   OH241088   1.124   6.550   2.649 -1.0136  0.5937 -0.2404
 6558TIP3    H141089   1.043   6.501   2.634 -0.4149 -1.1103  1.6686
 6558TIP3    H241090   1.191   6.483   2.659 -0.0563  1.7628  1.9173
 6559TIP3   OH241091   5.723   1.040  12.753  0.4684 -0.3190  0.1849
 6559TIP3    H141092   5.690   1.121  12.713 -1.1745 -1.8205 -1.7359
 6559TIP3    H241093   5.645   0.989  12.771  1.5138 -2.0090  0.1059
 6560TIP3   OH241094   0.760   4.674  17.194 -0.7373 -0.5326  0.0479
 6560TIP3    H141095   0.706   4.646  17.120  0.7479 -0.9073 -0.9292
 6560TIP3    H241096   0.721   4.757  17.222 -2.6795 -1.4773  0.3089
 6561TIP3   OH241097   4.294   4.920   0.706  0.3808  0.4778  0.8282
 6561TIP3    H141098   4.349   4.854   0.664  0.3229  0.2981  1.0312
 6561TIP3    H241099   4.285   4.890   0.797  0.2576  0.7026  0.8924
 6562TIP3   OH241100   0.190   3.825   2.024  0.2679  0.0585  0.7468
 6562TIP3    H141101   0.229   3.839   1.938 -1.2208  0.7126  0.1484
 6562TIP3    H241102   0.244   3.878   2.083 -1.1063  2.9934 -0.4494
 6563TIP3   OH241103   6.105   3.987   2.809 -0.3089 -0.3640 -0.4862
 6563TIP3    H141104   6.173   3.924   2.788  1.7511  1.3825  0.5565
 6563TIP3    H241105   6.077   3.963   2.897  1.0343  0.5873  0.2263
 6564TIP3   OH241106   5.530   3.028  16.509 -0.1200  0.1185 -0.3266
 6564TIP3    H141107   5.462   2.964  16.491 -1.0788  1.1483 -0.5348
 6564TIP3    H241108   5.570   2.999  16.591 -0.8653 -0.4776 -0.1626
 6565TIP3   OH241109   3.195   1.612  13.361 -0.0121  0.0988 -0.1405
 6565TIP3    H141110   3.270   1.607  13.420  0.0999 -1.9419 -0.3804
 6565TIP3    H241111   3.125   1.648  13.415  1.1907  2.4448 -0.0297
 6566TIP3   OH241112   1.905   6.386  11.298 -0.4223  0.3333 -0.2504
 6566TIP3    H141113   1.929   6.293  11.297  1.1222  0.6710  0.8565
 6566TIP3    H241114   1.876   6.402  11.388 -0.8685  0.8791 -0.4881
 6567TIP3   OH241115   2.727   3.188  14.909 -0.4546 -0.1123 -0.0654
 6567TIP3    H141116   2.787   3.189  14.983 -1.2953  0.8155  0.6282
 6567TIP3    H241117   2.660   3.125  14.932 -0.7659  0.2421  0.0082
 6568TIP3   OH241118   2.058   4.608  14.447 -0.3284  0.4087 -0.2360
 6568TIP3    H141119   1.969   4.629  14.418 -0.2276  0.0525 -0.8136
 6568TIP3    H241120   2.060   4.513  14.454 -0.3229  0.4741  0.8794
 6569TIP3   OH241121   3.206   1.040   4.212  0.0217 -0.7085  0.2546
 6569TIP3    H141122   3.227   1.007   4.300  1.9114 -0.5015 -0.0793
 6569TIP3    H241123   3.244   0.975   4.153  0.4851  0.1531 -0.4056
 6570TIP3   OH241124   4.805   1.226   5.718  0.5505  0.4410 -0.4119
 6570TIP3    H141125   4.735   1.218   5.782  0.9048 -0.0577 -0.0764
 6570TIP3    H241126   4.779   1.299   5.662 -0.2895  0.1903 -0.3581
 6571TIP3   OH241127   6.781   0.146  10.282 -0.2893  0.5237 -0.3424
 6571TIP3    H141128   6.729   0.069  10.259 -0.6324  0.7174 -0.2193
 6571TIP3    H241129   6.780   0.147  10.378  2.1219 -0.9697 -0.1981
 6572TIP3   OH241130   1.387   0.055   2.807 -0.4040  0.2605 -0.2126
 6572TIP3    H141131   1.325   0.128   2.813 -3.0134 -1.6354 -1.8959
 6572TIP3    H241132   1.394   0.038   2.713  1.2217 -0.8276  0.0612
 6573TIP3   OH241133   1.815   3.121   6.062  0.0242  0.2729  0.7413
 6573TIP3    H141134   1.799   3.040   6.110  0.4434  0.4910  1.2522
 6573TIP3    H241135   1.904   3.146   6.084  1.1960 -0.9140 -2.0792
 6574TIP3   OH241136   0.930   2.461   5.967 -0.0664  0.5795 -0.1203
 6574TIP3    H141137   0.881   2.387   6.002  1.2669  0.1532  0.8965
 6574TIP3    H241138   0.899   2.536   6.017  0.5499  0.2571  0.7554
 6575TIP3   OH241139   4.413   5.694   4.417 -0.0172 -0.0303  0.3138
 6575TIP3    H141140   4.427   5.765   4.479  0.8069 -0.8757  1.1312
 6575TIP3    H241141   4.348   5.638   4.459  0.1203 -0.3097  0.1558
 6576TIP3   OH241142   2.805   5.208   2.214 -0.1010  0.3812 -0.6907
 6576TIP3    H141143   2.752   5.145   2.262 -0.1069  0.8147 -0.1133
 6576TIP3    H241144   2.753   5.228   2.136 -1.6019  2.0143  0.6261
 6577TIP3   OH241145   3.671   3.755   4.676 -0.5992  0.0537 -0.3854
 6577TIP3    H141146   3.599   3.704   4.639  0.3522 -1.9532  0.3813
 6577TIP3    H241147   3.628   3.824   4.727 -1.9531 -0.5995 -0.6101
 6578TIP3   OH241148   5.236   4.005  16.222 -0.4245 -0.3130  0.2053
 6578TIP3    H141149   5.293   4.011  16.299  0.4268  1.1664 -0.4926
 6578TIP3    H241150   5.296   4.011  16.147 -1.3432 -0.5438 -0.5720
 6579TIP3   OH241151   6.488   5.785   0.007  0.0857 -0.3415  0.6635
 6579TIP3    H141152   6.530   5.871  -0.002 -2.1665  0.7531 -0.0046
 6579TIP3    H241153   6.446   5.788   0.093 -0.0436 -0.7754  0.6155
 6580TIP3   OH241154   0.939   5.764   3.542 -0.4929  0.6747  0.5149
 6580TIP3    H141155   0.888   5.752   3.462 -2.6266  1.7245  1.6386
 6580TIP3    H241156   0.895   5.836   3.588  1.4277  0.9459  2.0538
 6581TIP3   OH241157   0.499   2.771  12.081  0.0607  0.2674  0.6673
 6581TIP3    H141158   0.535   2.730  12.003 -2.2141  1.4323 -1.1231
 6581TIP3    H241159   0.545   2.855  12.088 -1.0483  1.0198 -0.6319
 6582TIP3   OH241160   3.021   4.498  16.896 -0.8102 -0.2206 -0.5222
 6582TIP3    H141161   3.104   4.454  16.914 -0.5992  0.8922  1.4589
 6582TIP3    H241162   2.955   4.442  16.937 -0.7801  0.0911 -0.0403
 6583TIP3   OH241163   4.756   3.072  11.186 -0.0007  0.0634  0.6584
 6583TIP3    H141164   4.812   3.023  11.246  1.7332  1.0322 -0.0893
 6583TIP3    H241165   4.817   3.120  11.130 -1.5898  1.2593 -0.1387
 6584TIP3   OH241166   0.286   5.045   4.477 -0.0241  0.4442 -0.2084
 6584TIP3    H141167   0.241   4.978   4.527 -0.6896 -0.0144 -1.3678
 6584TIP3    H241168   0.340   4.997   4.414 -1.7339  0.8851 -2.1508
 6585TIP3   OH241169   4.427   6.146  13.166  0.4296 -0.5143  0.1336
 6585TIP3    H141170   4.361   6.192  13.115  0.9515  0.5123  0.3539
 6585TIP3    H241171   4.380   6.074  13.208 -0.2312 -0.6915 -0.8730
 6586TIP3   OH241172   5.818   0.573  15.551 -0.5681  0.0152  0.2084
 6586TIP3    H141173   5.886   0.540  15.610 -0.2402 -0.0007 -0.1693
 6586TIP3    H241174   5.839   0.666  15.541  0.5638 -0.3759 -1.4259
 6587TIP3   OH241175   2.461   0.326   0.613  0.4541 -0.0434 -0.0331
 6587TIP3    H141176   2.374   0.289   0.594  0.9884 -0.3971 -2.0435
 6587TIP3    H241177   2.504   0.259   0.666 -0.2273 -0.1801  0.3690
 6588TIP3   OH241178   5.026   1.131   1.814  0.3367 -0.6590 -0.5180
 6588TIP3    H141179   4.960   1.155   1.748 -0.8236  0.4812  0.9541
 6588TIP3    H241180   4.975   1.119   1.894  1.8085 -0.9506  0.4057
 6589TIP3   OH241181   4.798   0.332   4.009 -0.2182  0.1454  0.3131
 6589TIP3    H141182   4.767   0.310   3.921  1.6452  1.1513 -0.6499
 6589TIP3    H241183   4.843   0.252   4.038  0.0605  0.1448 -0.0959
 6590TIP3   OH241184   3.212   4.801   4.409 -0.8309  0.4704 -0.2033
 6590TIP3    H141185   3.217   4.738   4.481 -0.1037  0.4744 -0.2467
 6590TIP3    H241186   3.292   4.786   4.359 -1.4916  0.2274 -1.2164
 6591TIP3   OH241187   2.153   4.456  13.402 -0.7478 -0.1623 -0.3002
 6591TIP3    H141188   2.094   4.526  13.372 -0.3986 -0.2637 -1.2805
 6591TIP3    H241189   2.207   4.437  13.325 -0.1625 -0.8157  0.2653
 6592TIP3   OH241190   1.061   1.098  11.896 -0.4993 -0.1466 -0.0263
 6592TIP3    H141191   1.000   1.131  11.962 -0.5980 -1.8066  0.7685
 6592TIP3    H241192   1.080   1.008  11.924  1.3106 -0.1070 -0.9665
 6593TIP3   OH241193   6.760   4.486  14.617 -0.2880  0.2395 -0.2790
 6593TIP3    H141194   6.733   4.565  14.663  1.3446  0.8269 -0.2599
 6593TIP3    H241195   6.772   4.421  14.686  0.4235  0.6126 -0.0336
 6594TIP3   OH241196   2.333   6.329  13.761  0.2222  0.7788  0.3571
 6594TIP3    H141197   2.352   6.401  13.701  0.9863 -1.1627 -1.8678
 6594TIP3    H241198   2.311   6.255  13.704 -0.0868 -0.8966  2.5204
 6595TIP3   OH241199   1.981   1.191  16.902  0.3847 -0.0811  0.4006
 6595TIP3    H141200   2.059   1.244  16.885 -0.3101  0.7837 -0.2236
 6595TIP3    H241201   2.011   1.101  16.895  1.3981  0.2369  0.5003
 6596TIP3   OH241202   4.285   3.067   4.677 -0.1121  0.5675 -0.1178
 6596TIP3    H141203   4.198   3.029   4.687  0.7193 -0.9410  2.1767
 6596TIP3    H241204   4.339   2.996   4.642  0.7147  0.6713  0.8998
 6597TIP3   OH241205   4.562   6.119  15.112  0.2639 -0.1011 -0.0623
 6597TIP3    H141206   4.578   6.041  15.165  0.0310  0.7407  1.2705
 6597TIP3    H241207   4.480   6.100  15.066 -0.7829  0.0815  1.6637
 6598TIP3   OH241208   6.669   4.442   3.723 -0.0657  0.1868  0.5649
 6598TIP3    H141209   6.593   4.436   3.781  0.3768 -0.0474  1.1265
 6598TIP3    H241210   6.632   4.437   3.635 -0.5740 -1.5352  0.8482
 6599TIP3   OH241211   1.407   6.473   5.375 -0.3229 -0.5473  0.6774
 6599TIP3    H141212   1.385   6.380   5.375 -0.2005 -0.6470 -1.6470
 6599TIP3    H241213   1.489   6.478   5.325 -0.4546  0.8304  0.5707
 6600TIP3   OH241214   0.967   2.279   4.431 -0.2263 -0.2942 -0.1819
 6600TIP3    H141215   1.012   2.262   4.514 -0.9292  0.4729  0.3669
 6600TIP3    H241216   1.019   2.347   4.389 -1.8771  2.0885  1.3696
 6601TIP3   OH241217   2.690   4.682  13.331 -0.0924 -0.1408 -0.1515
 6601TIP3    H141218   2.607   4.639  13.353  0.8996 -0.9950  2.1850
 6601TIP3    H241219   2.750   4.610  13.310  0.3574  0.4057 -0.7756
 6602TIP3   OH241220   2.405   6.033  16.917 -0.2355  0.1339  0.1735
 6602TIP3    H141221   2.349   6.082  16.857 -1.3850 -0.4959  0.7084
 6602TIP3    H241222   2.345   5.977  16.966  0.7709  0.0357  1.3394
 6603TIP3   OH241223   0.276   5.467   1.040  0.0096 -0.4163  0.4811
 6603TIP3    H141224   0.371   5.473   1.040 -0.0077  0.2455 -0.8051
 6603TIP3    H241225   0.248   5.527   0.971 -1.4621  1.0913  2.2515
 6604TIP3   OH241226   2.159   3.720   3.610 -0.4995 -0.0732 -0.1592
 6604TIP3    H141227   2.085   3.679   3.655  0.3745  0.8128  2.2018
 6604TIP3    H241228   2.190   3.787   3.670  1.1294  0.7844 -1.8653
 6605TIP3   OH241229   6.112   6.533   5.348 -0.2043  0.0400  0.2087
 6605TIP3    H141230   6.057   6.457   5.326 -0.3208  0.2733 -0.3352
 6605TIP3    H241231   6.049   6.601   5.373 -0.3196  0.7956 -1.8617
 6606TIP3   OH241232   3.693   0.077   2.396 -0.7563  0.2480  0.0481
 6606TIP3    H141233   3.678   0.137   2.323  1.2944  1.8180  0.8289
 6606TIP3    H241234   3.764   0.020   2.366 -1.1904 -0.3516  0.1416
 6607TIP3   OH241235   5.205   1.487   4.502  0.7239 -0.4287  0.3824
 6607TIP3    H141236   5.192   1.394   4.484  2.1997 -0.5259 -0.3111
 6607TIP3    H241237   5.255   1.489   4.584  1.1595 -0.2763  0.1179
 6608TIP3   OH241238   5.902   1.785   4.183 -0.1941 -0.1630 -0.3636
 6608TIP3    H141239   5.843   1.736   4.125  1.0841 -1.6460 -0.4974
 6608TIP3    H241240   5.953   1.840   4.123 -0.1745 -0.2834 -0.4597
 6609TIP3   OH241241   0.436   1.831  16.095  0.2580  0.2506  0.4965
 6609TIP3    H141242   0.487   1.905  16.061 -0.9592 -0.3800 -3.1115
 6609TIP3    H241243   0.361   1.872  16.139  1.7225  1.1248  2.2868
 6610TIP3   OH241244   1.154   3.235  13.415  0.5672  0.1044  0.1257
 6610TIP3    H141245   1.071   3.272  13.384  1.6436  1.0527 -1.7925
 6610TIP3    H241246   1.197   3.202  13.336  0.8882 -2.8370  1.4287
 6611TIP3   OH241247   6.607   5.264   3.585 -0.2139  0.1829 -0.2764
 6611TIP3    H141248   6.592   5.250   3.492 -0.4196  0.5079 -0.2968
 6611TIP3    H241249   6.582   5.355   3.599 -1.1872 -0.1615  0.2970
 6612TIP3   OH241250   0.456   2.883   4.787 -0.2988 -0.3176  0.3804
 6612TIP3    H141251   0.535   2.904   4.737 -1.0644  0.5904 -0.5001
 6612TIP3    H241252   0.436   2.962   4.836 -0.9914 -0.3183  0.1169
 6613TIP3   OH241253   2.112   3.894   5.528  0.5611 -0.1472 -0.0002
 6613TIP3    H141254   2.123   3.857   5.615  1.3299  0.1036  0.0172
 6613TIP3    H241255   2.184   3.957   5.519  2.5743 -2.5268 -2.0509
 6614TIP3   OH241256   1.388   2.671  16.731  0.2290  0.6791  0.0294
 6614TIP3    H141257   1.478   2.701  16.725  0.3664  0.3460  0.4341
 6614TIP3    H241258   1.339   2.732  16.676  0.8888  0.0858 -1.2593
 6615TIP3   OH241259   4.538   3.634  14.008  0.5959  0.2583  0.3965
 6615TIP3    H141260   4.621   3.641  14.055  0.6081 -0.5469  0.5088
 6615TIP3    H241261   4.549   3.559  13.949 -0.4371 -0.5957  1.2435
 6616TIP3   OH241262   3.733   5.823  15.926 -0.4223  0.1966  0.2507
 6616TIP3    H141263   3.649   5.797  15.962 -0.8420  1.5452  0.3085
 6616TIP3    H241264   3.798   5.785  15.986 -1.0443  0.5343  1.1660
 6617TIP3   OH241265   5.318   3.683   3.124 -0.5520 -0.4768  0.1118
 6617TIP3    H141266   5.351   3.760   3.171 -0.1311  0.6673 -1.9232
 6617TIP3    H241267   5.225   3.701   3.112 -0.4607 -0.2930 -0.3322
 6618TIP3   OH241268   6.446   2.807   2.381 -0.0733  0.5044  0.4162
 6618TIP3    H141269   6.370   2.814   2.438 -0.2778  0.9099  0.1038
 6618TIP3    H241270   6.430   2.873   2.313 -0.9139 -1.4039 -1.3445
 6619TIP3   OH241271   4.084   2.869   4.278 -0.3325  0.4198 -0.0773
 6619TIP3    H141272   3.991   2.871   4.255 -0.5587  1.3864  0.8355
 6619TIP3    H241273   4.123   2.811   4.213 -1.6313 -0.3214 -0.2549
 6620TIP3   OH241274   1.294   1.024  16.658 -0.6481  0.2782 -0.9805
 6620TIP3    H141275   1.242   0.948  16.633  2.3405 -2.6001  0.7407
 6620TIP3    H241276   1.305   1.073  16.576 -0.3347 -2.7496 -2.9249
 6621TIP3   OH241277   3.982   4.602   3.964 -0.4087  0.3914  0.4064
 6621TIP3    H141278   3.959   4.593   3.871 -0.3037  0.0083  0.4158
 6621TIP3    H241279   4.064   4.650   3.963 -0.7484  0.9846  0.3333
 6622TIP3   OH241280   5.267   2.297   2.416  0.1827 -0.1953 -0.3179
 6622TIP3    H141281   5.315   2.287   2.334  1.2737 -0.6594  0.3594
 6622TIP3    H241282   5.233   2.210   2.435  3.2500 -1.1194  1.6733
 6623TIP3   OH241283   1.034   6.637  12.773 -0.1627 -0.0063 -0.2542
 6623TIP3    H141284   1.026   6.678  12.859 -0.8273 -1.5471  0.4412
 6623TIP3    H241285   1.055   6.710  12.714 -0.4444  1.1899  1.0742
 6624TIP3   OH241286   0.458   5.848  12.257 -0.2737 -0.1063 -0.2238
 6624TIP3    H141287   0.534   5.899  12.228 -0.7959  0.7115 -0.1873
 6624TIP3    H241288   0.410   5.908  12.314 -0.5423 -0.8826  0.3690
 6625TIP3   OH241289   4.360   1.916   2.045  0.0941 -0.1758 -0.4477
 6625TIP3    H141290   4.348   2.009   2.066  0.6188  0.0453 -1.0692
 6625TIP3    H241291   4.271   1.882   2.036 -0.1054  0.3229 -0.4304
 6626TIP3   OH241292   5.182   1.180   4.053  0.0010  0.0719 -0.1001
 6626TIP3    H141293   5.170   1.125   3.976 -0.6510  0.4656 -0.2891
 6626TIP3    H241294   5.120   1.147   4.117  0.2139  0.0410  0.0916
 6627TIP3   OH241295   2.245   4.846  11.126  0.1999 -0.3256 -0.4951
 6627TIP3    H141296   2.217   4.755  11.135  0.6273 -0.3922  0.3265
 6627TIP3    H241297   2.170   4.891  11.090 -0.3908 -0.8052  0.1109
 6628TIP3   OH241298   3.838   6.348  16.479 -0.3297 -0.5238 -0.3585
 6628TIP3    H141299   3.843   6.406  16.554 -0.7240 -1.0372  0.0797
 6628TIP3    H241300   3.906   6.379  16.419  0.4060 -0.4847  0.4748
 6629TIP3   OH241301   6.618   6.281  14.894 -0.1336  0.4415 -0.4439
 6629TIP3    H141302   6.548   6.278  14.959  0.5851  0.0101  0.3349
 6629TIP3    H241303   6.605   6.201  14.842 -0.6076  0.7017 -0.7372
 6630TIP3   OH241304   1.719   4.508   5.960  0.3758  0.6545 -0.7607
 6630TIP3    H141305   1.787   4.445   5.936  0.6904  0.8428 -0.3676
 6630TIP3    H241306   1.661   4.459   6.019  1.5948  1.2271  0.9655
 6631TIP3   OH241307   1.916   0.770   1.265  0.5545  0.0841 -0.2215
 6631TIP3    H141308   1.916   0.851   1.316 -0.1276 -0.8027  1.2903
 6631TIP3    H241309   1.961   0.706   1.321  0.3521 -0.7821 -1.0130
 6632TIP3   OH241310   5.585   5.033   4.225  0.0110  0.0404  0.7303
 6632TIP3    H141311   5.650   5.031   4.154 -2.4931  3.2846 -1.9970
 6632TIP3    H241312   5.524   4.963   4.204  0.3428 -0.2935  0.8690
 6633TIP3   OH241313   2.049   0.765  12.637  0.2267  0.0418 -0.1115
 6633TIP3    H141314   2.036   0.705  12.563 -1.7378 -1.9050  1.6465
 6633TIP3    H241315   1.971   0.821  12.636  1.0155  1.1505 -0.4792
 6634TIP3   OH241316   6.605   5.347  11.272 -0.1317 -0.0218 -0.1015
 6634TIP3    H141317   6.688   5.300  11.269 -0.1179 -0.0804  0.9117
 6634TIP3    H241318   6.612   5.411  11.201  0.3730 -0.6764 -0.6574
 6635TIP3   OH241319   5.094   1.017   3.848 -0.0381  0.1721  0.8759
 6635TIP3    H141320   5.097   0.932   3.803  0.8207  0.7297 -0.1839
 6635TIP3    H241321   5.006   1.050   3.831  0.0496  0.0659  0.1677
 6636TIP3   OH241322   4.452   2.946  12.409  0.6253  0.3985 -0.3413
 6636TIP3    H141323   4.423   2.904  12.490  2.3270  0.3016  0.2780
 6636TIP3    H241324   4.507   2.880  12.367 -0.9155  0.1324 -2.0550
 6637TIP3   OH241325   3.401   4.735   3.863 -0.1539  0.1703  0.4631
 6637TIP3    H141326   3.407   4.679   3.940 -0.6744 -0.0669  0.3332
 6637TIP3    H241327   3.387   4.675   3.790 -1.1739  0.4887  0.3841
 6638TIP3   OH241328   2.296   3.611  14.789  0.3688 -0.1860 -0.7467
 6638TIP3    H141329   2.372   3.665  14.767  0.7313 -0.4676 -0.2145
 6638TIP3    H241330   2.252   3.597  14.705  1.0907 -0.3027 -1.1165
 6639TIP3   OH241331   1.058   5.468  17.019  0.3449 -0.2889 -0.0774
 6639TIP3    H141332   1.070   5.548  16.967 -1.1014  0.5615  0.8337
 6639TIP3    H241333   1.127   5.473  17.086 -0.0695  0.4952  0.3081
 6640TIP3   OH241334   0.750   5.553   3.173  0.2873 -0.2080 -0.4911
 6640TIP3    H141335   0.800   5.631   3.198  0.9306  0.3544 -3.1445
 6640TIP3    H241336   0.817   5.488   3.150 -0.2292 -0.8541 -0.1930
 6641TIP3   OH241337   6.341   0.844   1.528 -0.1433  0.5244 -0.2350
 6641TIP3    H141338   6.265   0.820   1.581  0.8804 -0.6140  0.8024
 6641TIP3    H241339   6.380   0.918   1.575 -0.4383  0.9123 -0.5992
 6642TIP3   OH241340   0.764   4.776   2.286  0.2257 -0.6753 -0.2049
 6642TIP3    H141341   0.791   4.739   2.202  1.2635 -1.2294  0.3524
 6642TIP3    H241342   0.833   4.837   2.309 -1.0372  0.9947 -0.6794
 6643TIP3   OH241343   1.284   2.408  14.305  0.3100  0.0912  0.2156
 6643TIP3    H141344   1.207   2.449  14.266 -0.0353 -0.5638  0.1950
 6643TIP3    H241345   1.259   2.392  14.396 -0.7579 -2.8871 -0.4869
 6644TIP3   OH241346   1.314   3.100  11.625  0.5528  0.2339 -0.3499
 6644TIP3    H141347   1.304   3.086  11.719 -0.0389  1.2921 -0.2430
 6644TIP3    H241348   1.229   3.134  11.596  0.7736  0.0507 -1.2430
 6645TIP3   OH241349   2.721   4.124   4.430 -0.2011  0.4721  0.1389
 6645TIP3    H141350   2.667   4.191   4.388  0.5078  1.6283  0.9875
 6645TIP3    H241351   2.688   4.119   4.520 -2.1949 -2.5028 -0.6251
 6646TIP3   OH241352   6.284   6.789  16.064  0.1957 -0.5442 -0.3761
 6646TIP3    H141353   6.231   6.833  16.131  1.2491  0.5521 -0.2351
 6646TIP3    H241354   6.336   6.725  16.113 -1.3148 -1.9952 -0.5758
 6647TIP3   OH241355   3.608   0.570   2.179  0.8054  0.4696  0.3892
 6647TIP3    H141356   3.534   0.515   2.206  1.3433 -1.0724 -1.1262
 6647TIP3    H241357   3.566   0.647   2.140 -0.0495 -0.6077 -0.9119
 6648TIP3   OH241358   0.129   3.621  13.097 -0.0476  0.1295 -0.5150
 6648TIP3    H141359   0.061   3.669  13.049  1.1553  1.5821 -0.8154
 6648TIP3    H241360   0.208   3.672  13.085  1.1843 -1.6445 -0.3485
 6649TIP3   OH241361   0.425   5.887  17.026 -0.3156 -0.2841  0.5921
 6649TIP3    H141362   0.393   5.802  16.996  0.5513 -0.2721 -0.4173
 6649TIP3    H241363   0.519   5.884  17.012 -0.1214  0.4378  1.6119
 6650TIP3   OH241364   1.351   1.031  11.094 -0.1699  0.3316  0.0245
 6650TIP3    H141365   1.401   0.979  11.031  0.1684  1.2379 -0.4817
 6650TIP3    H241366   1.263   1.037  11.057 -0.3767 -0.3741  0.3862
 6651TIP3   OH241367   4.860   1.018   1.391 -0.0102  0.4690 -0.4209
 6651TIP3    H141368   4.844   1.090   1.452  3.1867  1.3309 -0.4435
 6651TIP3    H241369   4.848   0.939   1.443  0.3139  1.1222  0.6889
 6652TIP3   OH241370   4.900   6.696  13.043 -0.2121 -0.2669  0.0662
 6652TIP3    H141371   4.926   6.672  13.132  0.2564  0.6903  0.1914
 6652TIP3    H241372   4.815   6.652  13.030 -1.1271  0.9743  1.6057
 6653TIP3   OH241373   1.813   0.689   4.021  0.5306  0.2276  0.8225
 6653TIP3    H141374   1.814   0.694   4.116  1.4873 -1.0065  0.9154
 6653TIP3    H241375   1.904   0.672   3.997  0.1382 -0.5385 -0.2234
 6654TIP3   OH241376   0.227   5.374  17.111  0.2773  0.1395 -0.2434
 6654TIP3    H141377   0.270   5.416  17.185  0.5686 -0.0534 -0.2998
 6654TIP3    H241378   0.229   5.440  17.041 -1.5406  0.9685  0.4252
 6655TIP3   OH241379   6.464   6.309  12.766  0.0088  0.3563 -0.6037
 6655TIP3    H141380   6.409   6.353  12.831 -0.0979  0.9394 -1.0815
 6655TIP3    H241381   6.554   6.331  12.792 -0.0659  3.3514 -2.4881
 6656TIP3   OH241382   4.231   3.869  17.089 -0.2698 -0.2625  0.0304
 6656TIP3    H141383   4.296   3.833  17.029 -1.1713  0.0635 -1.1792
 6656TIP3    H241384   4.224   3.804  17.159  2.2583  0.2823  0.8862
 6657TIP3   OH241385   6.120   4.726  15.638  0.4852  0.2666  0.5060
 6657TIP3    H141386   6.179   4.675  15.692  0.1472  1.2436  1.8774
 6657TIP3    H241387   6.118   4.681  15.554  0.5002 -1.7270  1.5105
 6658TIP3   OH241388   4.925   6.675   3.730 -0.0533 -0.2509 -0.5013
 6658TIP3    H141389   4.967   6.589   3.722  1.1821  0.3979 -1.1132
 6658TIP3    H241390   4.950   6.722   3.651 -0.4064  0.8191  0.0045
 6659TIP3   OH241391   6.463   1.178  14.943 -0.1382  0.1011 -0.4630
 6659TIP3    H141392   6.522   1.163  15.017  0.9833 -1.0029 -1.5491
 6659TIP3    H241393   6.432   1.091  14.919 -0.5748  0.4646 -1.2473
 6660TIP3   OH241394   3.491   5.649  14.380  0.6282  0.2230  0.1264
 6660TIP3    H141395   3.468   5.723  14.436 -0.4481 -0.7755  1.0663
 6660TIP3    H241396   3.408   5.621  14.341  1.1473  0.0136 -0.8614
 6661TIP3   OH241397   3.098   0.215  15.499 -0.0058 -0.4736  0.4829
 6661TIP3    H141398   3.102   0.268  15.579 -0.0184 -0.4220  0.4489
 6661TIP3    H241399   3.102   0.278  15.428 -2.1413 -0.3137  0.4176
 6662TIP3   OH241400   0.786   1.521  11.715 -0.0268 -0.2228  0.3420
 6662TIP3    H141401   0.707   1.473  11.691  0.3227  0.0906 -1.6032
 6662TIP3    H241402   0.765   1.613  11.698  1.0026 -0.2165 -1.0595
 6663TIP3   OH241403   1.763   3.360   3.362 -0.0010  0.1848 -0.0009
 6663TIP3    H141404   1.741   3.449   3.391  2.4776  0.6156  0.8570
 6663TIP3    H241405   1.704   3.303   3.411 -1.3205  1.3194 -0.2157
 6664TIP3   OH241406   5.935   3.370   5.145  0.7822  0.6445  0.4850
 6664TIP3    H141407   5.927   3.330   5.231 -0.5828  1.2020  0.6324
 6664TIP3    H241408   6.025   3.403   5.142  1.7728 -1.8060  0.5911
 6665TIP3   OH241409   1.295   5.774  14.545  0.2763  0.3420 -0.3996
 6665TIP3    H141410   1.205   5.776  14.578  0.5593 -1.4909  0.6227
 6665TIP3    H241411   1.341   5.715  14.604  1.3603 -1.3623 -2.7563
 6666TIP3   OH241412   6.137   1.521  15.251 -0.3588  0.1229 -0.0060
 6666TIP3    H141413   6.127   1.444  15.195  0.4066  0.1504 -0.1806
 6666TIP3    H241414   6.220   1.560  15.225 -1.2748  1.6942 -0.7393
 6667TIP3   OH241415   1.565   6.715  14.879 -0.3182 -0.3044 -0.4848
 6667TIP3    H141416   1.647   6.762  14.866 -1.4423  2.4345  1.4054
 6667TIP3    H241417   1.519   6.724  14.795  0.0383  0.8632 -0.5740
 6668TIP3   OH241418   3.743   2.028   3.776  0.0529  0.0464 -0.1347
 6668TIP3    H141419   3.719   2.115   3.809  0.4951  0.0930  0.0746
 6668TIP3    H241420   3.758   1.976   3.855 -1.5402 -0.6173 -0.2283
 6669TIP3   OH241421   6.494   3.003  12.276  0.2056 -0.1142  0.1733
 6669TIP3    H141422   6.564   3.014  12.340  0.7453 -0.1909 -0.3896
 6669TIP3    H241423   6.511   2.918  12.236 -0.7320 -0.5418  0.6489
 6670TIP3   OH241424   1.845   4.729  16.821  0.4521  0.6132  0.5392
 6670TIP3    H141425   1.848   4.677  16.902 -0.6373  0.8716  0.7621
 6670TIP3    H241426   1.896   4.807  16.841 -0.0797  0.8272  1.0937
 6671TIP3   OH241427   3.387   2.541  11.419  0.3652  0.1373  0.7901
 6671TIP3    H141428   3.402   2.477  11.349  0.9435 -0.5119  1.4980
 6671TIP3    H241429   3.311   2.507  11.466 -0.0528  0.6011  0.4648
 6672TIP3   OH241430   1.473   6.497   4.811 -0.4697  0.4479 -0.4051
 6672TIP3    H141431   1.413   6.461   4.745  0.1893 -1.4854 -0.0267
 6672TIP3    H241432   1.555   6.513   4.763  0.3317 -1.8904  0.0324
 6673TIP3   OH241433   1.318   0.819   1.098  0.4422 -0.5506  0.1015
 6673TIP3    H141434   1.298   0.739   1.049  0.0794 -0.1656 -0.3862
 6673TIP3    H241435   1.411   0.814   1.116  0.2927 -1.4266  0.6916
 6674TIP3   OH241436   3.481   2.625   6.010 -0.4574 -0.4598 -0.4702
 6674TIP3    H141437   3.435   2.658   6.088 -0.8375  0.4358 -1.0600
 6674TIP3    H241438   3.546   2.564   6.045 -1.0588 -0.5706  0.5013
 6675TIP3   OH241439   5.499   2.440   6.606  0.5810  0.0552  0.2388
 6675TIP3    H141440   5.546   2.374   6.554  0.0891 -0.3659  0.3122
 6675TIP3    H241441   5.445   2.486   6.541  0.5553  0.0544  0.2594
 6676TIP3   OH241442   5.111   6.217   2.515 -0.3873  0.4141  0.3595
 6676TIP3    H141443   5.091   6.163   2.592 -1.5692 -2.4536 -1.7642
 6676TIP3    H241444   5.143   6.154   2.449  0.5894  2.7280 -1.5303
 6677TIP3   OH241445   3.001   6.193  13.883 -0.3482 -0.0363  0.2736
 6677TIP3    H141446   3.008   6.288  13.897 -0.8510  0.0432  0.0127
 6677TIP3    H241447   3.028   6.180  13.792  0.7472 -0.2807  0.6164
 6678TIP3   OH241448   3.009   4.288  16.275 -0.4444 -0.0017 -0.4341
 6678TIP3    H141449   3.103   4.308  16.268  0.6994 -3.7447  1.3388
 6678TIP3    H241450   2.970   4.367  16.310  2.0679  1.6522 -1.1149
 6679TIP3   OH241451   0.212   0.464   5.782  0.1945  0.3676  0.4547
 6679TIP3    H141452   0.117   0.456   5.768  0.6218 -1.6871 -1.9656
 6679TIP3    H241453   0.241   0.527   5.716  0.8722 -1.4346 -1.0458
 6680TIP3   OH241454   1.256   0.045  12.652 -0.3527 -0.7646 -0.0167
 6680TIP3    H141455   1.178   0.038  12.597 -0.3453 -0.7832 -0.0247
 6680TIP3    H241456   1.265   0.138  12.670  0.3956 -0.6020 -1.1217
 6681TIP3   OH241457   5.492   5.892  11.888 -0.5568  0.2432 -0.1965
 6681TIP3    H141458   5.570   5.838  11.903  1.3453  2.1835 -2.4254
 6681TIP3    H241459   5.464   5.869  11.799 -1.4765  0.8729 -0.0799
 6682TIP3   OH241460   6.430   3.198  15.806 -0.0753 -0.2477  0.5380
 6682TIP3    H141461   6.345   3.156  15.789 -0.1611 -0.4713  1.4661
 6682TIP3    H241462   6.425   3.226  15.897  0.8882 -0.3391  0.6310
 6683TIP3   OH241463   3.413   6.394   5.948 -0.3238 -0.2227 -0.0746
 6683TIP3    H141464   3.463   6.420   5.870 -2.1872  0.5131 -1.0987
 6683TIP3    H241465   3.406   6.299   5.941 -0.1877 -0.1964 -0.6307
 6684TIP3   OH241466   5.522   4.744   1.763  0.4354 -0.5934 -0.1448
 6684TIP3    H141467   5.519   4.656   1.801 -0.1002 -0.4823  0.0756
 6684TIP3    H241468   5.486   4.733   1.675  1.0573 -0.7284 -0.3865
 6685TIP3   OH241469   5.379   1.957  16.378 -0.0337 -0.5432 -0.1487
 6685TIP3    H141470   5.329   2.021  16.327  1.9343  0.8594 -0.4265
 6685TIP3    H241471   5.324   1.940  16.454 -2.1483 -1.1798 -1.7051
 6686TIP3   OH241472   4.214   5.334   2.071  0.2792 -0.0091  0.4204
 6686TIP3    H141473   4.283   5.387   2.030 -0.1243  0.6622  0.6055
 6686TIP3    H241474   4.216   5.360   2.163  0.9558 -1.2687  0.7962
 6687TIP3   OH241475   4.447   1.541   5.449 -0.4983  0.5390 -0.0940
 6687TIP3    H141476   4.434   1.455   5.410 -0.6183 -0.1564  1.4009
 6687TIP3    H241477   4.414   1.603   5.383  0.3344 -0.4836 -1.5298
 6688TIP3   OH241478   0.817   6.217  17.165 -0.1152  0.1152 -0.7841
 6688TIP3    H141479   0.743   6.211  17.226  0.0350  0.2293 -0.5911
 6688TIP3    H241480   0.783   6.181  17.083 -0.3269 -0.0127 -0.6419
 6689TIP3   OH241481   3.612   2.024   5.280  0.5608 -0.2462 -0.3206
 6689TIP3    H141482   3.590   1.980   5.197 -0.7370  0.3552 -0.3148
 6689TIP3    H241483   3.542   2.088   5.292  2.0881  1.4239 -0.0113
 6690TIP3   OH241484   0.500   0.248  14.007  0.2822  0.2096 -0.2096
 6690TIP3    H141485   0.482   0.341  13.991  0.5910  0.1565 -0.9187
 6690TIP3    H241486   0.536   0.246  14.095  0.5630  0.8110 -0.2994
 6691TIP3   OH241487   3.553   1.846  16.516  0.3770  0.0502  0.5636
 6691TIP3    H141488   3.487   1.839  16.585 -0.5452  1.4806 -0.1277
 6691TIP3    H241489   3.502   1.845  16.434  1.2815  0.4254 -0.0206
 6692TIP3   OH241490   4.490   4.466   4.761 -0.5118 -0.5452 -0.2784
 6692TIP3    H141491   4.475   4.464   4.666 -1.5821  1.1859 -0.1817
 6692TIP3    H241492   4.487   4.374   4.788  2.9148 -1.4511 -2.3325
 6693TIP3   OH241493   3.826   5.024   1.049 -0.1303 -0.1373  0.8759
 6693TIP3    H141494   3.819   4.931   1.069 -0.6670 -0.6377 -1.3172
 6693TIP3    H241495   3.751   5.064   1.094 -0.3515 -0.8802  1.1796
 6694TIP3   OH241496   6.669   1.969  15.722  0.2486 -0.1559  0.2114
 6694TIP3    H141497   6.738   1.970  15.788 -0.0892 -0.3661  0.5711
 6694TIP3    H241498   6.688   2.045  15.667  0.3654  0.1955  0.7216
 6695TIP3   OH241499   1.234   1.134  12.310  0.0825  0.0879 -0.5126
 6695TIP3    H141500   1.289   1.062  12.279  1.1255  1.2228 -1.4104
 6695TIP3    H241501   1.149   1.119  12.268  0.4316 -0.3453 -1.0779
 6696TIP3   OH241502   3.215   3.876  12.336  0.5092  0.2448  1.2849
 6696TIP3    H141503   3.152   3.886  12.264  2.4285  0.9602 -0.4065
 6696TIP3    H241504   3.263   3.796  12.315  1.2941  0.6250  1.5928
 6697TIP3   OH241505   0.871   1.408   5.353 -0.4682  0.1890 -0.5478
 6697TIP3    H141506   0.874   1.503   5.350  1.3802  0.1589 -1.0834
 6697TIP3    H241507   0.807   1.387   5.422  1.0001  1.8537  1.4393
 6698TIP3   OH241508   6.238   6.202   2.076 -0.0282 -0.5715 -0.2225
 6698TIP3    H141509   6.274   6.213   1.988 -2.2959  2.1223 -0.9779
 6698TIP3    H241510   6.202   6.114   2.077  1.9852 -1.4698 -1.1421
 6699TIP3   OH241511   6.502   2.014  12.323 -0.4607  0.6733 -0.2815
 6699TIP3    H141512   6.491   1.951  12.251 -1.6438  0.2258  0.2692
 6699TIP3    H241513   6.415   2.024  12.360  0.1873  0.5365  1.3931
 6700TIP3   OH241514   5.037   4.411   3.213  0.3210  0.3950 -0.0420
 6700TIP3    H141515   5.116   4.460   3.237  1.2703 -1.1516  0.1744
 6700TIP3    H241516   5.038   4.335   3.272 -1.1017  0.1121 -0.3462
 6701TIP3   OH241517   2.218   3.390  15.489  0.2290 -0.1355 -0.1842
 6701TIP3    H141518   2.177   3.428  15.411 -0.5240  0.9113  0.6969
 6701TIP3    H241519   2.144   3.362  15.543  0.7341 -0.2610  0.4453
 6702TIP3   OH241520   1.327   5.600   4.171 -0.3716 -0.2267  0.8707
 6702TIP3    H141521   1.386   5.632   4.102  0.0919 -0.7556  1.0063
 6702TIP3    H241522   1.385   5.584   4.246 -0.2630 -2.8881  0.3186
 6703TIP3   OH241523   6.558   2.060   0.232  0.3553 -0.5485 -0.7702
 6703TIP3    H141524   6.550   2.134   0.293 -0.3479 -1.8748  0.8330
 6703TIP3    H241525   6.514   2.090   0.153  0.5399  0.9303 -0.3568
 6704TIP3   OH241526   5.989   4.714  14.365 -0.3659  0.0841 -0.2633
 6704TIP3    H141527   6.045   4.682  14.436 -0.4046 -0.0206 -0.2798
 6704TIP3    H241528   5.950   4.635  14.327 -2.2923  0.2472  1.2053
 6705TIP3   OH241529   1.305   3.695  14.356  0.2899 -0.5625  0.6875
 6705TIP3    H141530   1.397   3.682  14.376  0.5295 -0.6997 -0.4497
 6705TIP3    H241531   1.260   3.682  14.439  1.3567  0.2879  1.4157
 6706TIP3   OH241532   0.261   2.383  13.938 -0.4061 -0.1876  0.6329
 6706TIP3    H141533   0.216   2.300  13.921 -0.8002  0.1624 -0.0777
 6706TIP3    H241534   0.194   2.450  13.924  0.2345  0.3238 -0.0318
 6707TIP3   OH241535   4.390   5.385  12.458  1.0547 -0.1726 -0.1262
 6707TIP3    H141536   4.374   5.353  12.547 -0.8035 -1.3702 -0.8396
 6707TIP3    H241537   4.483   5.365  12.442  0.8999 -1.8038  0.8193
 6708TIP3   OH241538   2.394   0.718  13.663  0.2590 -0.0216 -0.0353
 6708TIP3    H141539   2.423   0.780  13.730  1.5527 -0.4164 -0.1958
 6708TIP3    H241540   2.308   0.750  13.636  0.5889  1.2953  0.3956
 6709TIP3   OH241541   2.324   3.724  15.360  0.2898  0.1846  0.0331
 6709TIP3    H141542   2.293   3.641  15.324 -1.6994  0.6384  0.5700
 6709TIP3    H241543   2.271   3.737  15.438 -0.4435  2.6305 -0.7924
 6710TIP3   OH241544   4.600   1.504   3.188  0.2491  0.3327 -0.5078
 6710TIP3    H141545   4.517   1.518   3.234 -0.2675 -0.1830 -1.2776
 6710TIP3    H241546   4.662   1.481   3.258 -0.8865 -2.0699 -0.2014
 6711TIP3   OH241547   3.606   2.339   3.309 -0.3215 -0.2083 -0.1327
 6711TIP3    H141548   3.574   2.328   3.399 -2.0059 -0.6558 -0.7497
 6711TIP3    H241549   3.583   2.257   3.266 -1.8203  0.9541 -1.6258
 6712TIP3   OH241550   4.325   6.101  11.286  0.4367  0.1770  0.4363
 6712TIP3    H141551   4.287   6.022  11.249  0.3333 -0.1962  1.3024
 6712TIP3    H241552   4.417   6.079  11.299  0.6986  0.6613 -0.5386
 6713TIP3   OH241553   5.845   5.774   4.077  0.1028  0.3293  0.2478
 6713TIP3    H141554   5.940   5.763   4.084 -0.0181 -1.6410 -0.5177
 6713TIP3    H241555   5.834   5.861   4.036  1.5901  0.3843 -0.0944
 6714TIP3   OH241556   4.856   0.663   3.927  0.0967 -0.2287 -0.3112
 6714TIP3    H141557   4.838   0.576   3.890  1.2713 -0.2019 -1.0198
 6714TIP3    H241558   4.859   0.649   4.022  1.5413 -1.2649 -0.4664
 6715TIP3   OH241559   6.743   4.403   5.858  0.3795  0.0024 -0.1440
 6715TIP3    H141560   6.737   4.413   5.953  0.7089 -0.1180 -0.1091
 6715TIP3    H241561   6.762   4.311   5.844 -1.3654 -0.3460 -0.4157
 6716TIP3   OH241562   3.560   3.703   1.614 -0.6571  0.1407 -0.1273
 6716TIP3    H141563   3.564   3.692   1.519 -0.3234 -0.2181 -0.0747
 6716TIP3    H241564   3.538   3.616   1.647 -0.1010  0.1099  0.1663
 6717TIP3   OH241565   6.592   5.811   6.548  0.2606 -0.0667 -0.5810
 6717TIP3    H141566   6.619   5.894   6.588 -3.5572  0.5144  1.3495
 6717TIP3    H241567   6.588   5.749   6.621  0.8919 -1.3616 -1.5978
 6718TIP3   OH241568   5.931   6.604  12.947 -1.1765  0.7735 -0.0308
 6718TIP3    H141569   5.960   6.677  13.001  0.1302 -0.7879  1.5123
 6718TIP3    H241570   6.007   6.581  12.894 -1.0279 -0.4628  0.6889
 6719TIP3   OH241571   6.196   4.551   0.305 -0.1906 -0.2018  0.5143
 6719TIP3    H141572   6.172   4.478   0.248  0.8840  0.9257 -1.4985
 6719TIP3    H241573   6.115   4.573   0.351 -0.6742 -2.2633  0.7531
 6720TIP3   OH241574   1.356   4.611   5.348  0.1205  0.2056  0.3622
 6720TIP3    H141575   1.306   4.568   5.418  0.4403  0.1631  0.5653
 6720TIP3    H241576   1.403   4.540   5.305 -0.6612  0.1236 -0.3909
 6721TIP3   OH241577   5.397   5.924  13.973  0.0455 -0.1714  0.1505
 6721TIP3    H141578   5.450   5.922  14.053 -0.3724  0.2262  0.4454
 6721TIP3    H241579   5.403   6.015  13.943 -0.9225  0.0147  0.4985
 6722TIP3   OH241580   5.569   3.918  12.689  0.0178 -0.0779  0.2541
 6722TIP3    H141581   5.607   3.992  12.643 -0.7813 -0.7452 -1.5881
 6722TIP3    H241582   5.477   3.916  12.660 -0.5072 -0.5828  1.8509
 6723TIP3   OH241583   1.381   6.174   3.279 -0.3049 -0.4673 -0.6539
 6723TIP3    H141584   1.341   6.259   3.297  2.1451  1.4186 -3.1175
 6723TIP3    H241585   1.331   6.139   3.205 -0.3238 -0.3700 -0.6870
 6724TIP3   OH241586   0.218   4.266   5.485  0.1966 -0.2378 -0.5563
 6724TIP3    H141587   0.294   4.285   5.539 -0.2870  2.4605 -0.6547
 6724TIP3    H241588   0.158   4.219   5.543  0.3446  1.1939  0.8474
 6725TIP3   OH241589   3.974   6.512   4.134  0.5339  0.1135 -0.1585
 6725TIP3    H141590   3.921   6.433   4.139  0.6042 -0.1198 -2.0501
 6725TIP3    H241591   4.052   6.493   4.185 -0.7635  0.1330  1.9395
 6726TIP3   OH241592   5.610   6.734   2.162  0.8501 -0.4806  0.0285
 6726TIP3    H141593   5.533   6.775   2.200  2.3349  1.4509  1.1746
 6726TIP3    H241594   5.576   6.676   2.093 -1.6279 -0.4520  1.1414
 6727TIP3   OH241595   0.995   4.521  11.220  0.2642 -0.0539  0.0551
 6727TIP3    H141596   1.072   4.469  11.244  0.4030 -0.3166 -0.9117
 6727TIP3    H241597   1.014   4.609  11.252  0.5199 -0.3492  0.7238
 6728TIP3   OH241598   1.122   1.538   1.020 -0.2973 -0.3337 -0.2424
 6728TIP3    H141599   1.092   1.481   1.091 -0.9898 -1.0540 -1.0876
 6728TIP3    H241600   1.216   1.521   1.013 -0.5081 -1.4264 -0.5182
 6729TIP3   OH241601   4.330   3.110  14.600  0.3273  0.1850  0.3824
 6729TIP3    H141602   4.319   3.048  14.672  0.6047 -0.8813 -0.4477
 6729TIP3    H241603   4.265   3.178  14.615 -1.4742 -1.4305  0.1787
 6730TIP3   OH241604   3.037   6.162  15.357  0.0041 -0.0375 -0.3893
 6730TIP3    H141605   2.973   6.175  15.427 -0.8001  0.1987 -1.1340
 6730TIP3    H241606   3.080   6.080  15.379 -1.4539 -0.8814 -0.4983
 6731TIP3   OH241607   0.320   1.547   5.830  0.9458 -0.5829  0.1397
 6731TIP3    H141608   0.303   1.523   5.739 -0.7987  0.5227  0.1131
 6731TIP3    H241609   0.238   1.528   5.875  1.4066 -0.0385  1.2369
 6732TIP3   OH241610   6.208   5.500   4.286 -0.1911  0.2432 -0.3423
 6732TIP3    H141611   6.160   5.561   4.342  0.5019  2.0175 -1.5736
 6732TIP3    H241612   6.216   5.420   4.338 -1.0944  1.2112  1.3671
 6733TIP3   OH241613   2.839   0.817  17.094  0.0515  0.7793 -0.2699
 6733TIP3    H141614   2.848   0.911  17.106  0.9404  0.4150  2.7028
 6733TIP3    H241615   2.905   0.779  17.152 -0.5010 -1.6870 -1.1398
 6734TIP3   OH241616   2.252   5.504  15.506  0.4296 -0.5825  0.2325
 6734TIP3    H141617   2.301   5.431  15.545  1.4939 -0.4396 -0.7881
 6734TIP3    H241618   2.161   5.476  15.510  0.7233 -1.5312  0.7809
 6735TIP3   OH241619   0.467   1.060  14.819  0.3748  0.3708  0.2491
 6735TIP3    H141620   0.375   1.052  14.844  0.3741 -0.8948 -0.0772
 6735TIP3    H241621   0.465   1.075  14.725  0.5010  0.8351  0.3156
 6736TIP3   OH241622   1.822   4.634  15.471  0.2848 -0.5419 -0.0620
 6736TIP3    H141623   1.879   4.693  15.521 -1.3707  1.0077  0.1102
 6736TIP3    H241624   1.837   4.657  15.380 -0.4522  0.2720  0.0113
 6737TIP3   OH241625   6.528   0.658  14.032 -0.0166  0.1245  0.1884
 6737TIP3    H141626   6.533   0.577  13.980  0.3536  0.2471  0.0293
 6737TIP3    H241627   6.500   0.725  13.969 -2.2088 -0.2245  0.7079
 6738TIP3   OH241628   1.165   1.096   1.022 -0.3846  0.0531 -0.0102
 6738TIP3    H141629   1.117   1.139   0.952  0.8178 -0.1642 -0.9886
 6738TIP3    H241630   1.201   1.017   0.982 -1.5783 -1.3066  1.4482
 6739TIP3   OH241631   4.978   4.363   0.597 -0.2892  0.3159 -0.1216
 6739TIP3    H141632   5.044   4.313   0.548  0.5672  0.1078  1.1721
 6739TIP3    H241633   4.967   4.314   0.679  0.4207  2.0909  1.1049
 6740TIP3   OH241634   5.101   4.178   0.214 -0.2660  0.1328 -0.2805
 6740TIP3    H141635   5.156   4.133   0.278 -0.5569 -1.0113 -0.8040
 6740TIP3    H241636   5.162   4.207   0.147  0.0418  1.3468  0.4989
 6741TIP3   OH241637   0.816   5.991   4.555  0.3561 -0.3375  0.7235
 6741TIP3    H141638   0.833   5.897   4.563  3.0582 -0.0129 -0.2099
 6741TIP3    H241639   0.902   6.032   4.563 -0.4860  1.9091 -0.7779
 6742TIP3   OH241640   4.486   4.913   5.324 -0.3827 -0.3383 -0.0990
 6742TIP3    H141641   4.393   4.932   5.334 -0.4984 -0.5628 -0.6907
 6742TIP3    H241642   4.521   4.989   5.276 -0.3267 -0.3963 -0.1509
 6743TIP3   OH241643   3.621   2.319  13.466 -0.3536  0.2314  0.0936
 6743TIP3    H141644   3.659   2.390  13.414 -0.4876  0.5085  0.3719
 6743TIP3    H241645   3.568   2.364  13.532  0.1831 -0.1041  0.7564
 6744TIP3   OH241646   2.310   3.153  17.135  0.0469  0.2203 -0.6389
 6744TIP3    H141647   2.340   3.205  17.061  1.4635 -1.1439 -1.0700
 6744TIP3    H241648   2.241   3.097  17.099 -1.3544  1.5868 -0.2137
 6745TIP3   OH241649   4.938   0.106   2.281  0.0998  0.2939 -0.4085
 6745TIP3    H141650   4.981   0.185   2.248  0.7746 -0.2294 -0.8006
 6745TIP3    H241651   4.847   0.134   2.296 -0.1687  0.6818 -2.3511
 6746TIP3   OH241652   1.841   3.391   0.943  0.1957 -0.2455 -0.0155
 6746TIP3    H141653   1.896   3.445   0.886  1.4342  0.2328  1.5752
 6746TIP3    H241654   1.841   3.305   0.903  1.9999 -0.2136 -0.1437
 6747TIP3   OH241655   5.359   6.523  12.307  0.4228  0.2965 -0.1302
 6747TIP3    H141656   5.378   6.523  12.401  1.9556 -0.5616 -0.4066
 6747TIP3    H241657   5.351   6.430  12.285  1.2699  0.4279 -1.0481
 6748TIP3   OH241658   1.077   1.465  11.780  0.5439  0.0191  0.0599
 6748TIP3    H141659   1.046   1.465  11.870 -1.0554 -1.5826 -0.4195
 6748TIP3    H241660   1.008   1.508  11.730  2.2727  2.6769 -0.2290
 6749TIP3   OH241661   5.659   5.176  11.967  0.0068  0.1782 -0.2194
 6749TIP3    H141662   5.676   5.084  11.990 -2.3496 -0.0472  1.0031
 6749TIP3    H241663   5.617   5.171  11.881 -1.1360 -0.0341  0.3314
 6750TIP3   OH241664   5.451   6.398   6.334 -0.3817  0.2952 -0.2184
 6750TIP3    H141665   5.543   6.386   6.361 -0.8056  0.5330  1.4728
 6750TIP3    H241666   5.429   6.318   6.287  1.1026  0.8437 -1.9840
 6751TIP3   OH241667   0.357   3.673   3.295 -0.3138  0.5995 -0.0837
 6751TIP3    H141668   0.290   3.739   3.311 -0.3378  0.5987 -0.1847
 6751TIP3    H241669   0.439   3.723   3.293 -0.4847  0.8552 -1.7917
 6752TIP3   OH241670   4.331   6.694  11.521  0.3292  0.2369 -0.5959
 6752TIP3    H141671   4.335   6.678  11.615  0.2798 -1.0326 -0.7985
 6752TIP3    H241672   4.361   6.613  11.481 -2.1043 -0.2097 -1.7231
 6753TIP3   OH241673   4.075   5.004  11.411  0.0124  0.3092 -0.4351
 6753TIP3    H141674   4.016   5.078  11.429  0.4443  0.7333 -0.7557
 6753TIP3    H241675   4.022   4.927  11.433 -0.6905  0.6766 -0.7828
 6754TIP3   OH241676   6.704   4.660   0.144 -0.1474  0.1821  0.0466
 6754TIP3    H141677   6.735   4.750   0.129  0.5800 -0.3729 -1.9792
 6754TIP3    H241678   6.609   4.668   0.148 -0.0335  1.2270  1.3889
 6755TIP3   OH241679   1.828   4.660  10.676 -0.0290 -0.5445  0.8313
 6755TIP3    H141680   1.803   4.569  10.691  1.3973 -0.7869  1.9252
 6755TIP3    H241681   1.830   4.668  10.580 -1.1843 -1.3481  0.7146
 6756TIP3   OH241682   4.397   3.309  16.096 -0.4016  0.0877 -0.3876
 6756TIP3    H141683   4.332   3.377  16.111  0.4794  0.5467  1.6915
 6756TIP3    H241684   4.383   3.247  16.168  0.8529 -0.2722 -0.4368
 6757TIP3   OH241685   5.567   1.633  11.380  0.1582 -0.0368 -0.4733
 6757TIP3    H141686   5.655   1.663  11.356  0.5619 -1.6924 -1.1487
 6757TIP3    H241687   5.570   1.538  11.371 -1.4743 -0.1974  0.3033
 6758TIP3   OH241688   1.016   4.843   3.326 -0.0675 -0.1464 -0.1308
 6758TIP3    H141689   1.003   4.818   3.417  1.4309 -0.5598 -0.0106
 6758TIP3    H241690   0.962   4.781   3.276  0.5343 -1.1050  0.3786
 6759TIP3   OH241691   3.812   4.280   1.768  0.1103  0.2980  0.2039
 6759TIP3    H141692   3.854   4.195   1.759  1.5225  1.0039 -0.1930
 6759TIP3    H241693   3.774   4.279   1.856  1.0991 -0.3273  0.6420
 6760TIP3   OH241694   0.793   1.606   1.865  0.8902  0.4108  0.5137
 6760TIP3    H141695   0.728   1.614   1.794  0.5020  0.4668  0.8732
 6760TIP3    H241696   0.741   1.582   1.942  1.2518  0.8214  0.8879
 6761TIP3   OH241697   1.657   2.855  13.571  0.4703  0.1420  0.3803
 6761TIP3    H141698   1.595   2.880  13.502 -1.9107  0.4417  2.4936
 6761TIP3    H241699   1.724   2.923  13.568 -0.6034  1.2169 -0.4292
 6762TIP3   OH241700   2.332   1.829   1.268 -0.1136 -0.0411 -0.1781
 6762TIP3    H141701   2.315   1.909   1.218 -1.2465  0.7414  1.3404
 6762TIP3    H241702   2.361   1.860   1.354  3.7635 -1.3567 -0.8580
 6763TIP3   OH241703   4.385   1.314   5.314 -0.0146  0.4595 -0.0322
 6763TIP3    H141704   4.333   1.259   5.373 -1.0989  2.3918  0.8963
 6763TIP3    H241705   4.340   1.308   5.230 -0.0207 -0.1719  0.0090
 6764TIP3   OH241706   2.541   1.559   3.558 -0.3195  0.5203 -0.0423
 6764TIP3    H141707   2.456   1.576   3.598 -1.1897 -1.7602 -0.7330
 6764TIP3    H241708   2.590   1.640   3.570 -2.4911  1.8327  0.5932
 6765TIP3   OH241709   6.622   0.359   5.054  0.0573  0.5501 -0.2719
 6765TIP3    H141710   6.620   0.455   5.059 -0.2620  0.6548 -2.0728
 6765TIP3    H241711   6.680   0.340   4.981 -0.5129 -0.6223 -0.4327
 6766TIP3   OH241712   0.618   2.795   0.561 -0.0179 -0.2603 -0.5765
 6766TIP3    H141713   0.551   2.764   0.623  2.0240 -0.3383  1.7060
 6766TIP3    H241714   0.613   2.732   0.489  0.4519 -2.9353  1.5360
 6767TIP3   OH241715   2.975   6.655   0.121  0.0153 -0.2804 -0.3645
 6767TIP3    H141716   2.911   6.687   0.185  2.4043 -0.2096  2.1844
 6767TIP3    H241717   2.969   6.717   0.048 -2.5528 -0.1342 -0.1290
 6768TIP3   OH241718   0.642   2.027  13.705 -0.1587 -0.3005 -0.1676
 6768TIP3    H141719   0.733   2.055  13.719  0.4176 -1.4606 -1.3584
 6768TIP3    H241720   0.626   1.963  13.775 -0.0081 -0.2125 -0.0527
 6769TIP3   OH241721   0.689   0.368   1.421  0.1932 -0.0966  0.3982
 6769TIP3    H141722   0.671   0.348   1.513  0.3916 -1.1145  0.2317
 6769TIP3    H241723   0.785   0.371   1.416  0.1772  0.1629  0.2712
 6770TIP3   OH241724   2.898   1.261   3.061  0.3741 -0.6310  0.1709
 6770TIP3    H141725   2.890   1.300   3.149  0.0155  2.2456 -1.0162
 6770TIP3    H241726   2.965   1.313   3.018  0.1354 -1.6124 -1.4717
 6771TIP3   OH241727   5.758   2.874   1.310 -0.1029  0.1122  0.0719
 6771TIP3    H141728   5.694   2.838   1.248 -1.6655  1.3884  0.8708
 6771TIP3    H241729   5.715   2.870   1.395  1.5211 -0.4413  0.9120
 6772TIP3   OH241730   3.436   6.025  16.000 -0.4960  0.3654 -0.4938
 6772TIP3    H141731   3.506   6.052  15.940  0.2374  0.5398  0.4140
 6772TIP3    H241732   3.376   5.974  15.945  0.9116 -0.7468 -1.0757
 6773TIP3   OH241733   5.406   6.569   5.514 -0.0835 -0.0161 -0.9853
 6773TIP3    H141734   5.319   6.564   5.554 -0.4497  3.2042 -1.1121
 6773TIP3    H241735   5.464   6.590   5.587  0.5118 -1.4137 -1.0268
 6774TIP3   OH241736   1.232   4.157  15.489  0.0643 -0.4316  1.1327
 6774TIP3    H141737   1.187   4.224  15.541 -0.8966 -0.8704  0.8864
 6774TIP3    H241738   1.288   4.111  15.552  1.3661  1.0982  1.1623
 6775TIP3   OH241739   2.787   4.609   5.488  0.2621  0.1798  0.0608
 6775TIP3    H141740   2.844   4.553   5.540  1.0767  0.8082 -0.1339
 6775TIP3    H241741   2.717   4.551   5.458  1.9308 -1.1661 -1.4919
 6776TIP3   OH241742   2.403   4.881  11.606 -0.2707  0.1755  0.7816
 6776TIP3    H141743   2.391   4.796  11.649  0.0613 -0.2887 -0.0091
 6776TIP3    H241744   2.325   4.892  11.551  0.3377 -0.3135 -0.2201
 6777TIP3   OH241745   3.385   0.386   4.858 -0.3513  0.5044 -0.5723
 6777TIP3    H141746   3.305   0.401   4.808 -1.2513 -0.2004  0.6010
 6777TIP3    H241747   3.421   0.474   4.873 -2.9657  1.2805  2.1143
 6778TIP3   OH241748   0.571   0.959  15.237 -0.2017 -0.7036 -0.2237
 6778TIP3    H141749   0.480   0.935  15.254 -0.1008 -0.9501 -0.0403
 6778TIP3    H241750   0.565   1.048  15.200 -0.5018 -0.6397 -0.0271
 6779TIP3   OH241751   2.657   2.001   4.260  0.0026  0.1445 -0.0267
 6779TIP3    H141752   2.588   2.056   4.223 -1.0384 -1.2809 -0.2871
 6779TIP3    H241753   2.707   1.970   4.184  1.9124  2.3087  0.2313
 6780TIP3   OH241754   1.895   4.033  16.225 -0.3145 -0.2234  0.7130
 6780TIP3    H141755   1.978   4.023  16.271 -0.1346  1.4149  0.8254
 6780TIP3    H241756   1.902   4.118  16.182 -1.9560 -0.0061  0.7978
 6781TIP3   OH241757   1.257   4.791   1.338  0.1585 -0.0141  0.3957
 6781TIP3    H141758   1.316   4.741   1.394 -1.6899 -0.8959  1.6433
 6781TIP3    H241759   1.236   4.731   1.266  1.0860  0.4571 -0.2855
 6782TIP3   OH241760   0.817   4.015  12.131 -0.6441 -0.0553  0.3391
 6782TIP3    H141761   0.877   4.046  12.198  0.9640 -0.9071 -0.6269
 6782TIP3    H241762   0.771   3.942  12.172 -0.4311  0.0889  0.8401
 6783TIP3   OH241763   5.459   4.167   4.975 -0.0860  0.3343 -0.1939
 6783TIP3    H141764   5.497   4.117   4.902  1.5724  0.1956  0.7174
 6783TIP3    H241765   5.535   4.197   5.025 -1.1811  0.4974  1.4290
 6784TIP3   OH241766   1.767   4.519  14.531 -0.0633  0.3586 -0.0134
 6784TIP3    H141767   1.783   4.556  14.444 -0.8784 -0.6372 -0.6115
 6784TIP3    H241768   1.786   4.590  14.591 -0.9874  1.5550 -1.0886
 6785TIP3   OH241769   1.434   0.601   0.165 -0.1810  0.3036 -0.6627
 6785TIP3    H141770   1.451   0.688   0.130 -0.6965  0.3437 -0.8221
 6785TIP3    H241771   1.352   0.610   0.214  1.1946  0.5887  1.7718
 6786TIP3   OH241772   2.484   0.605  14.542 -0.2876 -0.0305  0.3213
 6786TIP3    H141773   2.504   0.678  14.600 -1.4507  0.4695  0.1108
 6786TIP3    H241774   2.422   0.640  14.479  0.1738 -0.8465 -0.6191
 6787TIP3   OH241775   1.379   6.149   4.560  0.1835  0.1347  0.8590
 6787TIP3    H141776   1.432   6.228   4.554 -0.0951  0.3018  0.5999
 6787TIP3    H241777   1.389   6.106   4.475  0.6357 -0.3051  1.1267
 6788TIP3   OH241778   4.864   1.697   3.719  0.2525 -0.1970 -0.4345
 6788TIP3    H141779   4.827   1.781   3.748  0.2073  0.0966 -1.2934
 6788TIP3    H241780   4.794   1.656   3.668  0.2344 -0.8185  0.0783
 6789TIP3   OH241781   1.499   1.077   5.122 -0.1920 -0.5376  0.9379
 6789TIP3    H141782   1.534   1.125   5.047  0.2049 -4.3294 -1.6113
 6789TIP3    H241783   1.404   1.085   5.115 -0.1723  2.0331  2.3082
 6790TIP3   OH241784   2.190   1.857   0.890 -0.1243 -0.0521  0.4166
 6790TIP3    H141785   2.113   1.801   0.888 -1.5807  1.8570  0.3913
 6790TIP3    H241786   2.248   1.822   0.822 -0.8277 -1.6592  0.6067
 6791TIP3   OH241787   0.335   4.178  12.621 -0.1850 -0.5911  0.1552
 6791TIP3    H141788   0.395   4.235  12.670  1.9314 -1.5646 -1.1894
 6791TIP3    H241789   0.314   4.108  12.683 -0.3470  0.0235  0.8107
 6792TIP3   OH241790   3.459   4.788  12.700  0.4254 -0.4471  0.6643
 6792TIP3    H141791   3.395   4.828  12.642  0.7807  0.1618  0.6772
 6792TIP3    H241792   3.413   4.715  12.741 -0.7320  0.8574  1.7921
 6793TIP3   OH241793   3.533   2.503   3.757 -0.0027  0.1361  0.3202
 6793TIP3    H141794   3.485   2.581   3.729 -1.8564 -0.4500  1.5793
 6793TIP3    H241795   3.492   2.431   3.709 -0.8650 -0.4461  1.8249
 6794TIP3   OH241796   2.005   1.008   1.407  0.6677  0.4143 -0.4574
 6794TIP3    H141797   2.004   1.064   1.330  1.6644 -0.1177 -0.8752
 6794TIP3    H241798   2.000   1.069   1.481  0.9037  1.0006 -0.9153
 6795TIP3   OH241799   2.483   1.587  10.456  0.1229 -0.3170 -0.1209
 6795TIP3    H141800   2.555   1.649  10.468  0.0178  0.6430 -3.5790
 6795TIP3    H241801   2.525   1.502  10.446  0.4575 -0.3900  1.5772
 6796TIP3   OH241802   3.843   5.473   5.707  0.5523  0.3317 -0.1577
 6796TIP3    H141803   3.757   5.460   5.747  0.4492 -0.6977 -0.6813
 6796TIP3    H241804   3.898   5.503   5.779  0.1575 -0.6273  0.5670
 6797TIP3   OH241805   6.579   1.608  14.457  0.2351  0.0235  0.5379
 6797TIP3    H141806   6.544   1.561  14.381  1.5467  1.0896 -0.7744
 6797TIP3    H241807   6.672   1.616  14.440  0.6770 -0.2191  2.5821
 6798TIP3   OH241808   4.300   5.957  15.896  0.2883  0.2276  0.1229
 6798TIP3    H141809   4.380   6.006  15.914  2.1290 -2.5767  0.2495
 6798TIP3    H241810   4.325   5.893  15.829 -2.1645 -0.0618 -0.6204
 6799TIP3   OH241811   5.931   2.795  11.237 -0.1317  0.2014 -0.0232
 6799TIP3    H141812   5.850   2.801  11.286 -0.3316  0.6495 -0.4089
 6799TIP3    H241813   5.946   2.883  11.203 -0.1618 -0.1616 -1.0244
 6800TIP3   OH241814   2.490   2.431  11.054  0.2485  0.4530  0.3083
 6800TIP3    H141815   2.423   2.366  11.077 -1.0053  0.8257 -2.0219
 6800TIP3    H241816   2.460   2.512  11.094  0.4084  0.2171  0.9373
 6801TIP3   OH241817   5.405   4.438   4.955  0.0593 -0.6366 -0.0489
 6801TIP3    H141818   5.406   4.343   4.958  1.0562 -0.7698 -2.5655
 6801TIP3    H241819   5.427   4.460   4.864 -2.6972  1.9564 -0.2449
 6802TIP3   OH241820   2.583   3.207  15.706  0.0251  0.0593 -0.5564
 6802TIP3    H141821   2.519   3.230  15.774 -0.6402 -0.1321 -1.1094
 6802TIP3    H241822   2.665   3.195  15.754 -0.1772  1.0720  0.0597
 6803TIP3   OH241823   0.779   4.746  13.884 -0.1449  0.1382  0.1749
 6803TIP3    H141824   0.773   4.718  13.976 -0.4772 -1.4037 -0.2984
 6803TIP3    H241825   0.872   4.736  13.863  0.3768  2.6133  0.9418
 6804TIP3   OH241826   4.521   0.292   6.081 -0.0345  0.1234  0.2443
 6804TIP3    H141827   4.601   0.344   6.076 -0.0443  0.0976 -0.1822
 6804TIP3    H241828   4.514   0.250   5.996 -0.4997  0.1226  0.2811
 6805TIP3   OH241829   4.930   0.338  15.238  0.4022 -0.0834 -0.0722
 6805TIP3    H141830   4.925   0.397  15.313  2.2086 -1.0561  0.8907
 6805TIP3    H241831   4.841   0.305  15.227 -0.0019  0.4607  1.3100
 6806TIP3   OH241832   2.790   4.487  11.838  0.0707 -0.1486  0.2559
 6806TIP3    H141833   2.868   4.448  11.799 -0.6339 -0.4108 -0.9490
 6806TIP3    H241834   2.811   4.580  11.847  1.4353 -0.5854  2.3210
 6807TIP3   OH241835   1.359   6.323   3.972  0.7729  0.2397 -0.3153
 6807TIP3    H141836   1.352   6.337   3.877 -1.1507  0.2603 -0.2081
 6807TIP3    H241837   1.381   6.230   3.981  1.4361  0.3466 -0.7843
 6808TIP3   OH241838   0.602   4.841   5.501  0.4659  0.9376  0.6870
 6808TIP3    H141839   0.688   4.870   5.532  1.5800 -1.4151  0.0507
 6808TIP3    H241840   0.606   4.746   5.506 -1.8169  0.7378 -0.1870
 6809TIP3   OH241841   3.035   0.918  13.373  0.1004  0.0908  0.1067
 6809TIP3    H141842   3.096   0.949  13.306 -0.7034  1.0986 -0.1809
 6809TIP3    H241843   2.978   0.993  13.391 -0.5529 -0.5802  0.9396
 6810TIP3   OH241844   2.535   1.513  11.514 -0.1183 -0.1662 -0.0540
 6810TIP3    H141845   2.457   1.559  11.483  0.0729  0.7916  0.8621
 6810TIP3    H241846   2.582   1.490  11.434 -0.5257  0.6832 -0.5504
 6811TIP3   OH241847   2.680   5.644   6.350  0.3681 -0.4452  0.3462
 6811TIP3    H141848   2.736   5.651   6.273 -1.2967 -0.4340 -0.9134
 6811TIP3    H241849   2.698   5.724   6.400 -1.0478  1.3550 -1.8287
 6812TIP3   OH241850   6.438   5.871   0.590  0.0750 -0.5099 -0.4630
 6812TIP3    H141851   6.512   5.840   0.641 -1.2149 -0.9813  1.1923
 6812TIP3    H241852   6.373   5.898   0.654 -1.3523 -0.4552 -1.8485
 6813TIP3   OH241853   5.251   1.241   2.986  0.1986 -0.4765  0.3277
 6813TIP3    H141854   5.271   1.334   2.995  1.4917 -0.7348  0.4500
 6813TIP3    H241855   5.178   1.225   3.045 -1.9102  0.9881 -1.7127
 6814TIP3   OH241856   3.687   2.099  12.258 -0.3151 -0.2195  0.0870
 6814TIP3    H141857   3.650   2.039  12.323 -1.5015 -0.0943 -0.4508
 6814TIP3    H241858   3.621   2.103  12.189  0.3866  0.6020 -0.5521
 6815TIP3   OH241859   3.027   4.593  12.880 -0.0601 -0.0313  0.0637
 6815TIP3    H141860   3.068   4.680  12.881 -0.0462 -0.0047 -1.3511
 6815TIP3    H241861   2.939   4.608  12.914  0.0293  0.4919  0.0732
 6816TIP3   OH241862   3.000   1.589  11.649 -0.5797 -0.4463  0.8260
 6816TIP3    H141863   3.044   1.569  11.732  0.8690 -1.7893 -0.1962
 6816TIP3    H241864   3.070   1.627  11.594 -0.8516 -1.9029 -0.5883
 6817TIP3   OH241865   6.478   2.534  15.506  1.0639 -1.0757  0.4327
 6817TIP3    H141866   6.500   2.613  15.457 -1.4173 -0.1996  0.6163
 6817TIP3    H241867   6.563   2.502  15.538  2.2944  0.6224 -0.9386
 6818TIP3   OH241868   0.827   3.022   1.055 -0.0499 -0.0066  0.1348
 6818TIP3    H141869   0.809   2.962   0.983 -0.3696  0.6471 -0.3404
 6818TIP3    H241870   0.751   3.013   1.113 -1.4138  1.8624 -1.2648
 6819TIP3   OH241871   0.371   2.688   5.608 -0.0006  0.3340 -0.1649
 6819TIP3    H141872   0.385   2.613   5.550 -2.0861  0.7524 -1.3102
 6819TIP3    H241873   0.428   2.756   5.572  2.3136 -0.7722  1.2011
 6820TIP3   OH241874   5.516   6.405  15.306  0.7138 -0.1555 -0.4517
 6820TIP3    H141875   5.446   6.388  15.369  1.5835  1.2339  0.9669
 6820TIP3    H241876   5.583   6.340  15.327  0.7342 -0.1095 -0.3730
 6821TIP3   OH241877   1.119   4.324  12.595 -1.0532 -0.3184  0.5110
 6821TIP3    H141878   1.089   4.357  12.680 -0.9228  0.1801  0.3670
 6821TIP3    H241879   1.060   4.252  12.575  0.6885 -2.4859  2.4497
 6822TIP3   OH241880   3.432   2.920   4.570 -0.1979  0.2794 -0.6010
 6822TIP3    H141881   3.344   2.956   4.559 -0.4540 -0.5066 -1.2286
 6822TIP3    H241882   3.478   2.944   4.489  0.0289  0.3226 -0.4591
 6823TIP3   OH241883   5.103   4.796  15.154 -0.5798 -0.8099 -0.2140
 6823TIP3    H141884   5.042   4.839  15.094  2.3085  0.9029 -2.1990
 6823TIP3    H241885   5.105   4.705  15.125  0.2497 -0.1579 -2.4300
 6824TIP3   OH241886   2.163   4.075  17.093  0.0803  0.0773 -0.0570
 6824TIP3    H141887   2.099   4.039  17.154  1.1513 -1.5273  0.2103
 6824TIP3    H241888   2.179   4.003  17.031 -0.0074  1.2156 -1.4446
 6825TIP3   OH241889   6.191   5.432   0.496 -0.4672 -0.3118 -0.1873
 6825TIP3    H141890   6.130   5.451   0.566 -0.8872 -1.6237 -0.1683
 6825TIP3    H241891   6.237   5.353   0.525 -0.3005 -0.5909 -1.1633
 6826TIP3   OH241892   6.525   6.470  15.209 -0.4320  0.4086 -0.1707
 6826TIP3    H141893   6.549   6.422  15.288 -0.1661  1.5271  0.4468
 6826TIP3    H241894   6.585   6.545  15.208 -0.1522  0.1908 -1.6598
 6827TIP3   OH241895   4.942   5.558  14.022 -0.3033  0.4964  0.1600
 6827TIP3    H141896   5.020   5.609  14.000 -0.8229  1.3624  0.2790
 6827TIP3    H241897   4.956   5.531  14.113  0.7606 -1.0759 -0.4147
 6828TIP3   OH241898   2.318   5.722   4.964 -0.2256 -0.3734  0.2819
 6828TIP3    H141899   2.270   5.780   4.905  1.3123 -0.2435 -0.8969
 6828TIP3    H241900   2.340   5.645   4.912  0.2600 -0.7275  0.9778
 6829TIP3   OH241901   2.921   1.565  13.913 -0.3597  0.2170 -0.2847
 6829TIP3    H141902   2.889   1.519  13.990 -2.2297  1.3616 -0.3248
 6829TIP3    H241903   2.878   1.522  13.839  0.2054  0.1274 -0.5696
 6830TIP3   OH241904   6.001   4.095  11.442 -0.1538  0.6939 -0.4535
 6830TIP3    H141905   6.003   4.018  11.500 -0.8796 -0.1548 -1.5046
 6830TIP3    H241906   6.076   4.148  11.469  0.2693 -0.3094  0.4066
 6831TIP3   OH241907   1.457   0.030   5.676  0.3096 -0.2524  0.3890
 6831TIP3    H141908   1.468   0.123   5.697 -0.3774  0.0810 -0.6648
 6831TIP3    H241909   1.369   0.024   5.639  0.8605 -1.0776 -0.8482
 6832TIP3   OH241910   4.302   6.452   3.551  0.3540 -0.1635  0.5119
 6832TIP3    H141911   4.341   6.376   3.593  1.1153  0.3443  0.7477
 6832TIP3    H241912   4.290   6.515   3.622  0.6545  0.3052  0.1505
 6833TIP3   OH241913   2.534   4.509   5.422  0.7420 -0.4227  0.0619
 6833TIP3    H141914   2.484   4.456   5.485  2.3429 -1.4342  0.5514
 6833TIP3    H241915   2.578   4.445   5.366  2.7311  0.3249  0.6601
 6834TIP3   OH241916   3.656   1.664   6.057  0.3631  0.0462 -0.3313
 6834TIP3    H141917   3.600   1.610   6.112  0.7613 -1.0249 -0.9419
 6834TIP3    H241918   3.719   1.703   6.119  0.6171 -0.8957  0.0306
 6835TIP3   OH241919   4.954   0.929  16.629 -0.9101  0.1473 -0.1044
 6835TIP3    H141920   5.042   0.911  16.665 -0.6779  0.3320 -0.5714
 6835TIP3    H241921   4.922   1.002  16.682 -1.3377 -0.7756  0.9608
 6836TIP3   OH241922   2.383   5.136  13.839 -0.2831 -0.1824  0.1998
 6836TIP3    H141923   2.321   5.065  13.822 -0.4249 -0.1746  0.6875
 6836TIP3    H241924   2.461   5.111  13.789 -0.6621 -0.2040 -0.3950
 6837TIP3   OH241925   0.845   5.723   6.278 -1.0796  0.0173 -0.0997
 6837TIP3    H141926   0.774   5.680   6.326 -1.0216  0.3180  0.2589
 6837TIP3    H241927   0.924   5.675   6.306 -1.1064 -0.1321 -0.2795
 6838TIP3   OH241928   5.916   6.795  13.801  0.5048  0.9000  0.2201
 6838TIP3    H141929   5.983   6.745  13.847  0.4497  1.6688  1.1848
 6838TIP3    H241930   5.947   6.801  13.711  0.8310 -0.2842  0.2384
 6839TIP3   OH241931   6.778   5.634  13.235 -0.1061  0.3028  0.2091
 6839TIP3    H141932   6.723   5.697  13.188 -0.5649 -0.2299  0.0244
 6839TIP3    H241933   6.837   5.688  13.288 -0.7739  0.8768  0.3744
 6840TIP3   OH241934   6.209   2.907  11.406 -0.1392 -0.7921 -0.3421
 6840TIP3    H141935   6.206   2.972  11.336  2.1965 -0.9291 -0.6629
 6840TIP3    H241936   6.208   2.822  11.361 -1.6449 -0.9848 -0.0053
 6841TIP3   OH241937   4.074   3.158   3.945 -0.3941 -0.2003  0.4659
 6841TIP3    H141938   4.045   3.245   3.916  2.9814  0.6915 -0.6335
 6841TIP3    H241939   4.089   3.168   4.039  0.0269  0.4223  0.3356
 6842TIP3   OH241940   5.341   4.740  14.897 -0.0712  0.0051  0.3936
 6842TIP3    H141941   5.306   4.663  14.853  0.2345  0.0465  0.0680
 6842TIP3    H241942   5.276   4.809  14.880  0.3849  0.2101 -0.6327
 6843TIP3   OH241943   2.381   2.568   3.922  0.0706  0.3157 -0.2930
 6843TIP3    H141944   2.396   2.663   3.921 -0.5968  0.4287 -0.2210
 6843TIP3    H241945   2.312   2.555   3.857  1.5291 -0.3774 -1.7542
 6844TIP3   OH241946   2.928   5.062  15.787  0.5969 -0.2411  0.3879
 6844TIP3    H141947   2.948   4.974  15.754  1.2256 -0.0074  0.1307
 6844TIP3    H241948   2.871   5.100  15.720  2.4322  0.4880 -0.8331
 6845TIP3   OH241949   4.165   4.575   0.309 -0.1977 -0.2547  0.1774
 6845TIP3    H141950   4.250   4.608   0.281 -0.5218  1.6195  1.2167
 6845TIP3    H241951   4.183   4.488   0.344  1.2581  0.0553  0.2609
 6846TIP3   OH241952   2.565   2.156   3.898 -0.4174  0.1071  0.2078
 6846TIP3    H141953   2.515   2.117   3.827 -0.8948  1.7540 -0.4126
 6846TIP3    H241954   2.558   2.093   3.970 -0.0678 -1.5142 -1.1171
 6847TIP3   OH241955   1.079   4.366   1.806  0.1602  0.2932 -0.2700
 6847TIP3    H141956   1.011   4.401   1.863  0.1239 -0.0295 -0.1147
 6847TIP3    H241957   1.066   4.412   1.723 -2.1971 -1.8566 -1.2368
 6848TIP3   OH241958   5.657   5.554   3.165 -0.1842 -0.0520 -0.7102
 6848TIP3    H141959   5.581   5.527   3.217 -0.4679  1.6674 -0.1690
 6848TIP3    H241960   5.668   5.484   3.101 -0.4688 -1.7428  0.9914
 6849TIP3   OH241961   4.904   6.620   2.144  0.5552  0.0501  0.2736
 6849TIP3    H141962   4.929   6.661   2.227 -0.4812 -4.5298  3.2519
 6849TIP3    H241963   4.812   6.644   2.133 -0.5999 -2.3897  2.9724
 6850TIP3   OH241964   1.092   3.110  16.582  0.1751  0.2155  0.3854
 6850TIP3    H141965   1.105   3.178  16.647  0.0221  1.0717 -0.4638
 6850TIP3    H241966   1.173   3.110  16.530 -0.1823  0.3834 -0.1847
 6851TIP3   OH241967   5.342   6.070   1.429  0.5943  0.3911  0.2227
 6851TIP3    H141968   5.295   6.014   1.490  3.0181 -0.4747  1.4210
 6851TIP3    H241969   5.382   6.010   1.367  0.3636  1.0825 -0.6173
 6852TIP3   OH241970   6.550   0.360  12.512  0.5022 -0.2195 -0.3692
 6852TIP3    H141971   6.540   0.452  12.536  2.2071  0.1288 -0.8182
 6852TIP3    H241972   6.562   0.361  12.417  0.5974 -0.8922 -0.3677
 6853TIP3   OH241973   4.175   3.881  11.432  0.1023 -0.0131  0.3552
 6853TIP3    H141974   4.269   3.890  11.442  0.8071 -0.0917 -4.1544
 6853TIP3    H241975   4.157   3.788  11.445  0.8268 -0.1785  0.1759
 6854TIP3   OH241976   2.963   5.132   5.097 -0.1338 -0.1014 -0.2475
 6854TIP3    H141977   3.002   5.106   5.180  0.4734  0.1671 -0.4409
 6854TIP3    H241978   2.954   5.051   5.047  0.6289 -0.1111 -0.3821
 6855TIP3   OH241979   3.399   3.729   4.878  0.1726  0.1005 -0.3171
 6855TIP3    H141980   3.383   3.641   4.912  1.9717 -0.8217 -1.6631
 6855TIP3    H241981   3.326   3.745   4.818 -0.8987  0.1236  0.9544
 6856TIP3   OH241982   3.077   6.202   4.787 -0.9105  0.0886 -0.1283
 6856TIP3    H141983   3.117   6.239   4.865  2.1767 -1.0735 -0.9826
 6856TIP3    H241984   3.000   6.256   4.770 -0.8672  1.2286  2.8586
 6857TIP3   OH241985   0.337   6.402  14.935  0.1390  0.1873 -0.0855
 6857TIP3    H141986   0.403   6.382  14.869 -0.2018 -0.1336 -0.3382
 6857TIP3    H241987   0.376   6.469  14.990  0.5769  0.1752 -0.3831
 6858TIP3   OH241988   1.670   0.870  15.450  0.4590 -0.1760  0.1073
 6858TIP3    H141989   1.701   0.808  15.385  2.1185  1.2638 -0.5747
 6858TIP3    H241990   1.579   0.887  15.428  0.0377 -2.1698  0.2011
 6859TIP3   OH241991   5.743   6.408   5.908 -0.5864  0.7690  0.2991
 6859TIP3    H141992   5.687   6.361   5.969 -0.1991 -1.1620 -0.7435
 6859TIP3    H241993   5.723   6.369   5.823  0.9666  1.3605 -0.3683
 6860TIP3   OH241994   5.278   0.800  14.993  0.0519 -0.6926  0.2376
 6860TIP3    H141995   5.361   0.753  14.990  1.7356  2.0863 -0.4721
 6860TIP3    H241996   5.252   0.796  15.085  1.0219 -1.5154  0.4975
 6861TIP3   OH241997   4.302   1.357  14.369  0.2841 -0.5761 -0.2246
 6861TIP3    H141998   4.346   1.400  14.442 -1.9736 -0.9404  1.4469
 6861TIP3    H241999   4.308   1.419  14.297  0.0671  1.0802  1.1270
 6862TIP3   OH242000   2.692   0.644  14.309  0.1904  0.7634 -0.5271
 6862TIP3    H142001   2.787   0.651  14.295  0.4385  0.4261  0.8401
 6862TIP3    H242002   2.683   0.591  14.388 -1.1795 -0.1241 -1.2331
 6863TIP3   OH242003   3.510   5.003  15.817  0.4459 -0.5901  0.5129
 6863TIP3    H142004   3.548   4.916  15.808 -0.9511 -1.1285 -0.4610
 6863TIP3    H242005   3.419   4.993  15.790  0.4659  1.3307 -0.4345
 6864TIP3   OH242006   3.056   5.314  16.172 -0.0837 -0.4667  0.5478
 6864TIP3    H142007   3.144   5.316  16.134  0.5416 -2.1274  1.7805
 6864TIP3    H242008   3.062   5.368  16.251 -0.4038  0.1071  0.1805
 6865TIP3   OH242009   5.591   1.898   3.662  0.3749  0.0659 -0.0934
 6865TIP3    H142010   5.511   1.951   3.661  0.7001  0.6583  1.4707
 6865TIP3    H242011   5.571   1.823   3.605 -1.3718  0.1006  0.3931
 6866TIP3   OH242012   0.014   5.186  11.190 -0.9070 -0.0308 -0.4291
 6866TIP3    H142013   0.021   5.091  11.194 -2.5520 -0.1343  0.8390
 6866TIP3    H242014  -0.039   5.203  11.112 -0.5588 -0.1520 -0.6913
 6867TIP3   OH242015   3.480   3.015   1.728 -0.0860  0.6630 -0.6683
 6867TIP3    H142016   3.416   3.011   1.657  0.7622 -0.6612 -1.3924
 6867TIP3    H242017   3.471   2.932   1.775  0.9614  0.5298 -0.6654
 6868TIP3   OH242018   5.488   3.142  16.965  1.2060  0.2037  0.2978
 6868TIP3    H142019   5.527   3.179  16.886  0.3254 -0.3927 -0.4310
 6868TIP3    H242020   5.472   3.051  16.944  0.2915  0.2101  0.9038
 6869TIP3   OH242021   4.915   5.708  14.305 -0.4737  0.5130  0.1291
 6869TIP3    H142022   4.938   5.792  14.345 -2.0634  1.0242  0.0454
 6869TIP3    H242023   4.879   5.731  14.219  0.1501 -0.3534 -0.3838
 6870TIP3   OH242024   3.743   5.385   3.689  0.4185  0.4740 -0.1231
 6870TIP3    H142025   3.715   5.305   3.645  1.8911  0.4471 -1.1021
 6870TIP3    H242026   3.664   5.419   3.730 -0.4653 -0.9016 -0.6084
 6871TIP3   OH242027   0.107   5.511   1.288 -0.2640  0.1458  0.0069
 6871TIP3    H142028   0.054   5.431   1.278  0.4770 -0.3665  0.1189
 6871TIP3    H242029   0.170   5.507   1.217  0.3782  0.1587  0.5705
 6872TIP3   OH242030   1.164   3.145  10.716  0.4024  0.2263 -0.4612
 6872TIP3    H142031   1.160   3.053  10.741  0.5811  0.0637 -1.0184
 6872TIP3    H242032   1.090   3.186  10.761  0.1938 -0.2319 -0.3869
 6873TIP3   OH242033   0.978   6.711  12.279 -0.2546 -0.1372 -0.2872
 6873TIP3    H142034   0.934   6.641  12.327 -0.8352  0.5596  0.2170
 6873TIP3    H242035   1.070   6.685  12.279  0.1750  0.7987  3.0790
 6874TIP3   OH242036   6.537   0.510  16.165 -0.0882  0.8854  0.2998
 6874TIP3    H142037   6.553   0.550  16.080 -0.1605 -0.2838 -0.2791
 6874TIP3    H242038   6.622   0.512  16.209  1.0407 -2.2659 -1.4480
 6875TIP3   OH242039   5.186   3.248  11.429  0.1996  0.3657  0.8603
 6875TIP3    H142040   5.124   3.290  11.370 -1.5428  0.8974  2.9238
 6875TIP3    H242041   5.197   3.310  11.501  1.5111 -0.6217  1.5635
 6876TIP3   OH242042   0.569   5.335  14.396 -0.1337  0.0822  0.0797
 6876TIP3    H142043   0.585   5.346  14.489 -2.4641  0.3439  0.5185
 6876TIP3    H242044   0.651   5.300  14.361  1.3659  1.5870  1.8869
 6877TIP3   OH242045   6.486   6.349   3.093  0.1063  0.3310  0.0054
 6877TIP3    H142046   6.504   6.299   3.172  0.8700  0.1562 -0.2660
 6877TIP3    H242047   6.561   6.331   3.036  1.0011  2.6855  0.3409
 6878TIP3   OH242048   4.152   3.924  15.515 -0.6143 -0.4221  0.0626
 6878TIP3    H142049   4.098   3.966  15.449  1.4212  0.4140 -1.1713
 6878TIP3    H242050   4.114   3.951  15.599 -1.2454  1.3014 -0.7382
 6879TIP3   OH242051   4.429   5.413  14.792  0.7774 -0.1895 -0.9393
 6879TIP3    H142052   4.482   5.388  14.716 -0.7157  0.6191 -2.3188
 6879TIP3    H242053   4.468   5.494  14.824  1.8837 -0.9428 -0.3300
 6880TIP3   OH242054   3.182   2.658   0.279 -0.0188  0.2159 -0.2318
 6880TIP3    H142055   3.231   2.577   0.292 -0.1793  0.1844  0.1814
 6880TIP3    H242056   3.220   2.720   0.340 -0.5606  0.1622  0.1684
 6881TIP3   OH242057   4.731   1.388   6.360  0.2716  0.6267 -0.1058
 6881TIP3    H142058   4.817   1.347   6.369 -0.0993 -0.2603 -0.5134
 6881TIP3    H242059   4.688   1.372   6.444  1.3206  3.1082  1.0163
 6882TIP3   OH242060   5.967   2.849  16.205  0.3014 -0.3670  0.5186
 6882TIP3    H142061   5.978   2.873  16.113  1.0706  1.0488  0.9493
 6882TIP3    H242062   6.016   2.767  16.214 -0.5496 -1.0124 -0.5246
 6883TIP3   OH242063   5.804   0.894  15.954  0.4815  0.0573  0.5335
 6883TIP3    H142064   5.799   0.804  15.921 -1.3429  0.1174  0.5390
 6883TIP3    H242065   5.880   0.895  16.012 -0.5980 -2.0263  2.0993
 6884TIP3   OH242066   4.755   0.812   5.887  0.0703 -0.4108  0.4459
 6884TIP3    H142067   4.850   0.799   5.892  0.0783 -1.7640 -1.7491
 6884TIP3    H242068   4.720   0.768   5.964  1.1779 -0.1443  1.1298
 6885TIP3   OH242069   6.499   6.664   3.727  0.1349 -0.2136  0.0257
 6885TIP3    H142070   6.441   6.740   3.732 -1.3945 -1.4209  1.5534
 6885TIP3    H242071   6.565   6.680   3.794 -0.1420 -0.2091  0.2971
 6886TIP3   OH242072   1.989   0.808  16.593 -0.2993 -0.3435  0.3323
 6886TIP3    H142073   2.049   0.754  16.645 -0.9548 -2.1659 -0.6799
 6886TIP3    H242074   1.916   0.826  16.652 -0.7453 -1.8524  0.3053
 6887TIP3   OH242075   5.815   3.540  11.927  1.0543 -0.2172 -0.1672
 6887TIP3    H142076   5.746   3.486  11.888  1.9261 -2.1044  0.7652
 6887TIP3    H242077   5.774   3.625  11.941  0.0531 -0.1159 -3.0562
 6888TIP3   OH242078   0.749   3.300  11.787 -0.0865 -0.9115 -0.5086
 6888TIP3    H142079   0.836   3.271  11.813 -0.2994 -2.1096 -1.0696
 6888TIP3    H242080   0.730   3.373  11.846  2.2635  1.0411 -1.9707
 6889TIP3   OH242081   3.806   1.630   4.055 -0.1252 -0.2228 -0.3313
 6889TIP3    H142082   3.822   1.617   4.148 -0.1896 -2.3016 -0.5661
 6889TIP3    H242083   3.735   1.569   4.034 -0.6610  0.7868 -1.5901
 6890TIP3   OH242084   5.182   1.970  11.288  0.8721  0.3534  0.1249
 6890TIP3    H142085   5.127   2.012  11.354  1.3057  1.6234 -0.2909
 6890TIP3    H242086   5.220   1.894  11.333  1.7380  1.6032  1.5795
 6891TIP3   OH242087   0.305   2.702   0.079  0.5938  0.7058  0.4593
 6891TIP3    H142088   0.249   2.649   0.022 -0.3795  1.3043  0.8299
 6891TIP3    H242089   0.389   2.657   0.079 -0.3820 -1.2594  1.2909
 6892TIP3   OH242090   3.620   3.712  12.724 -0.0081 -0.2286  0.2508
 6892TIP3    H142091   3.598   3.730  12.633  1.3361 -1.9088 -0.4709
 6892TIP3    H242092   3.710   3.744  12.734  0.3646 -1.3098  0.5413
 6893TIP3   OH242093   4.480   2.703  15.700  0.3803 -0.1364 -0.4717
 6893TIP3    H142094   4.536   2.750  15.762  0.6027 -0.3027 -0.5435
 6893TIP3    H242095   4.421   2.770  15.665  0.1112 -0.0832  0.0744
 6894TIP3   OH242096   3.514   3.364  11.273  0.1253  0.3399  0.4409
 6894TIP3    H142097   3.466   3.424  11.329  1.1843  1.1372  0.5207
 6894TIP3    H242098   3.554   3.420  11.206  1.5580 -0.1890  0.8196
 6895TIP3   OH242099   2.018   3.188   3.463  0.1430 -0.5902 -0.2393
 6895TIP3    H142100   2.055   3.259   3.412 -2.7725  1.4575  0.2422
 6895TIP3    H242101   1.974   3.132   3.398 -0.9563  0.3165 -0.3051
 6896TIP3   OH242102   4.069   2.235   0.861  0.6014  0.2420  0.0255
 6896TIP3    H142103   3.976   2.235   0.836  0.3848 -0.3217  0.7949
 6896TIP3    H242104   4.107   2.306   0.810 -0.4309  1.0716  0.3613
 6897TIP3   OH242105   1.734   6.600  12.906  0.0860 -0.4288  0.0089
 6897TIP3    H142106   1.737   6.687  12.865 -1.7582  0.0103  0.7211
 6897TIP3    H242107   1.716   6.540  12.834 -0.7924  0.0598 -0.1960
 6898TIP3   OH242108   1.919   4.433  11.205 -0.0320  0.5818 -0.3916
 6898TIP3    H142109   1.987   4.375  11.238  1.3307  2.4449  0.1897
 6898TIP3    H242110   1.927   4.427  11.110  0.2481 -0.0051 -0.3328
 6899TIP3   OH242111   1.982   0.725   1.623 -0.4469 -0.2187  0.1972
 6899TIP3    H142112   2.057   0.679   1.660 -1.8188 -0.2429  3.2156
 6899TIP3    H242113   2.008   0.817   1.623 -0.5118 -0.1787  1.6256
 6900TIP3   OH242114   2.689   4.494   4.600  0.4533  0.0755 -0.4759
 6900TIP3    H142115   2.713   4.430   4.667 -1.3966 -0.8333 -0.5956
 6900TIP3    H242116   2.630   4.555   4.644  2.8995  2.3416 -0.1301
 6901TIP3   OH242117   1.427   2.062  14.137  0.4081  0.2529 -0.4289
 6901TIP3    H142118   1.492   2.012  14.088 -0.4107  0.7614 -2.1486
 6901TIP3    H242119   1.353   2.070  14.076 -0.9500  0.3606  1.1619
 6902TIP3   OH242120   1.027   6.058   0.042  0.1523 -0.2876  0.2199
 6902TIP3    H142121   0.949   6.095  -0.001 -0.0307 -2.3993 -1.4293
 6902TIP3    H242122   1.095   6.124   0.027 -0.6165  0.3121 -0.8680
 6903TIP3   OH242123   0.590   5.331   4.726  0.2203  0.2587  0.2432
 6903TIP3    H142124   0.572   5.383   4.805 -1.3419  1.3784 -0.7767
 6903TIP3    H242125   0.663   5.376   4.684 -1.1614  1.7537 -0.6655
 6904TIP3   OH242126   6.148   0.888  16.625 -0.9910  0.0434  0.3105
 6904TIP3    H142127   6.188   0.924  16.545  1.8761 -0.4319  1.3864
 6904TIP3    H242128   6.067   0.938  16.637 -1.5045  0.1377 -2.8363
 6905TIP3   OH242129   0.058   3.856  15.546  0.0329  0.8020 -0.8604
 6905TIP3    H142130  -0.029   3.855  15.586 -0.1862  0.1339 -1.3518
 6905TIP3    H242131   0.088   3.765  15.550  0.6308  0.9886 -0.8846
 6906TIP3   OH242132   1.087   5.186  13.631 -0.5014  0.2447 -0.0675
 6906TIP3    H142133   0.995   5.167  13.646 -0.2639  0.0236  1.2499
 6906TIP3    H242134   1.125   5.194  13.719  1.1702 -1.8071 -0.5243
 6907TIP3   OH242135   3.229   1.092  13.620  0.4163  0.4211  0.0419
 6907TIP3    H142136   3.282   1.140  13.556 -1.1538 -1.3475 -2.7967
 6907TIP3    H242137   3.212   1.156  13.689  3.2293  2.0847 -0.6070
 6908TIP3   OH242138   6.583   5.012  17.007 -0.1662  0.1662 -0.4283
 6908TIP3    H142139   6.617   5.100  17.024 -1.6786  0.8179 -0.6097
 6908TIP3    H242140   6.657   4.954  17.023  0.9215  1.4869 -0.4950
 6909TIP3   OH242141   1.533   0.079  10.467  0.4088 -0.0665 -0.1635
 6909TIP3    H142142   1.558   0.045  10.381  0.3007  0.2740 -0.3343
 6909TIP3    H242143   1.604   0.139  10.490 -0.5815  1.5066 -1.0051
 6910TIP3   OH242144   2.712   6.772  12.759  0.0166 -0.3466 -0.0646
 6910TIP3    H142145   2.778   6.820  12.810  1.0449 -0.3462 -1.3480
 6910TIP3    H242146   2.721   6.681  12.788  0.1344 -0.2423  0.2296
 6911TIP3   OH242147   0.920   6.122  15.296  0.6178  0.2535 -0.4761
 6911TIP3    H142148   0.917   6.212  15.330 -1.9490  0.3055 -0.6729
 6911TIP3    H242149   0.952   6.131  15.207  0.8747  0.9162 -0.3194
 6912TIP3   OH242150   6.267   5.120   2.307 -0.0953  0.3492  0.7271
 6912TIP3    H142151   6.328   5.165   2.248 -0.3567 -1.1778 -0.7778
 6912TIP3    H242152   6.181   5.135   2.268 -0.6315  1.6186  2.2772
 6913TIP3   OH242153   2.929   5.989   5.288 -0.2111  0.0748  0.0928
 6913TIP3    H142154   2.972   5.997   5.203 -0.5851  0.7246 -0.0423
 6913TIP3    H242155   2.895   6.077   5.306 -1.1628 -0.3429  0.3727
 6914TIP3   OH242156   3.761   0.853   3.780 -0.1068 -0.4444  0.1800
 6914TIP3    H142157   3.792   0.929   3.731  0.9297 -0.4312  0.8361
 6914TIP3    H242158   3.693   0.889   3.838  1.1145  0.2116  1.2540
 6915TIP3   OH242159   1.844   4.123   3.007 -0.3280 -0.1865 -0.8887
 6915TIP3    H142160   1.759   4.143   2.967  0.3348 -0.1721 -2.3635
 6915TIP3    H242161   1.905   4.121   2.933  1.6384  3.3236  0.3696
 6916TIP3   OH242162   4.450   0.345   3.308 -0.3266  0.1278  0.3050
 6916TIP3    H142163   4.540   0.360   3.276  0.2332  0.7132  2.0561
 6916TIP3    H242164   4.412   0.433   3.315 -0.7850 -0.0670  0.2720
 6917TIP3   OH242165   2.483   3.271   5.193  0.4639 -0.6714 -0.2882
 6917TIP3    H142166   2.535   3.351   5.202 -0.3930 -0.2914  1.9944
 6917TIP3    H242167   2.503   3.220   5.272 -0.9357 -1.5387 -0.4561
 6918TIP3   OH242168   4.859   4.942   6.146 -0.1662 -0.2879 -0.1255
 6918TIP3    H142169   4.792   4.951   6.213 -0.6410  2.5000 -0.8819
 6918TIP3    H242170   4.937   4.915   6.194 -1.3871 -2.2047  0.9485
 6919TIP3   OH242171   0.582   4.658  14.395  0.0186 -0.3689  0.2964
 6919TIP3    H142172   0.634   4.640  14.473 -1.2164  0.6837  1.4065
 6919TIP3    H242173   0.491   4.657  14.426 -0.4957  0.1752 -1.1113
 6920TIP3   OH242174   6.046   5.379  14.108  0.4661  0.4064 -0.3198
 6920TIP3    H142175   5.950   5.376  14.108  0.4368  1.0276 -1.3342
 6920TIP3    H242176   6.068   5.450  14.168  0.3063  0.1313  0.0734
 6921TIP3   OH242177   5.300   3.876   3.344 -0.2262  0.6247  0.6292
 6921TIP3    H142178   5.297   3.784   3.370 -0.0028  0.1906 -0.8338
 6921TIP3    H242179   5.257   3.922   3.416  3.6489 -0.0570  3.7637
 6922TIP3   OH242180   5.961   2.336  15.679  0.0681  0.0454  0.3458
 6922TIP3    H142181   5.988   2.387  15.755 -0.1897  1.2942 -0.3722
 6922TIP3    H242182   5.908   2.264  15.715  0.3515  0.3456  1.3672
 6923TIP3   OH242183   4.020   1.271  12.990  0.0687 -0.3263 -0.1253
 6923TIP3    H142184   3.966   1.285  13.068 -0.4063  0.3498 -0.5641
 6923TIP3    H242185   4.067   1.189  13.008  1.1750  0.6068  1.5433
 6924TIP3   OH242186   1.556   0.983   5.385 -0.3722  0.2423 -0.0019
 6924TIP3    H142187   1.523   1.028   5.307 -0.1781 -0.0664 -0.2675
 6924TIP3    H242188   1.541   0.890   5.366  1.3708  0.0133 -0.4928
 6925TIP3   OH242189   1.420   2.188  12.981 -0.2213  0.6400  0.1422
 6925TIP3    H142190   1.480   2.257  13.009 -1.6836  1.2142  2.1185
 6925TIP3    H242191   1.472   2.108  12.984  0.7317  1.2602  0.6964
 6926TIP3   OH242192   3.784   5.448   0.839 -0.9874 -0.1252  0.4073
 6926TIP3    H142193   3.827   5.533   0.849 -0.8066 -0.0881 -0.6060
 6926TIP3    H242194   3.793   5.427   0.746 -0.4989 -1.5283  0.7392
 6927TIP3   OH242195   0.191   3.261   5.949 -0.1192  0.2074 -0.5674
 6927TIP3    H142196   0.279   3.240   5.977 -0.4189 -1.0876 -0.5445
 6927TIP3    H242197   0.188   3.234   5.857 -0.9001 -1.1536 -0.1823
 6928TIP3   OH242198   3.119   2.078  12.907 -0.0671 -0.6442  0.4312
 6928TIP3    H142199   3.077   2.146  12.854  2.1600 -0.4945 -1.2704
 6928TIP3    H242200   3.046   2.028  12.942 -1.7078  0.2513 -1.4646
 6929TIP3   OH242201   3.964   4.753   3.360  0.0140 -0.5227 -0.1641
 6929TIP3    H142202   4.011   4.808   3.297  0.5679 -0.3763  0.3694
 6929TIP3    H242203   3.905   4.700   3.306  1.6270 -1.5699 -0.9563
 6930TIP3   OH242204   3.900   0.758   2.910 -0.3700  0.4939 -0.1295
 6930TIP3    H142205   3.992   0.785   2.913 -0.2149 -0.0158 -0.1141
 6930TIP3    H242206   3.877   0.763   2.817 -0.0352 -0.2981 -0.2644
 6931TIP3   OH242207   3.928   0.368  14.399 -0.0200  0.1285  0.1870
 6931TIP3    H142208   3.841   0.373  14.438 -0.3507  0.6339 -0.5896
 6931TIP3    H242209   3.947   0.275  14.394 -0.7105 -0.0066 -0.0546
 6932TIP3   OH242210   2.534   3.946  16.630 -0.0717  0.5924  0.5631
 6932TIP3    H142211   2.622   3.913  16.646 -1.2620 -2.3401  1.8715
 6932TIP3    H242212   2.525   3.946  16.535  1.3444  0.9572  0.4175
 6933TIP3   OH242213   0.438   2.785  14.848 -0.2052  0.0980  0.0808
 6933TIP3    H142214   0.477   2.868  14.874  0.3090 -0.3564  0.8206
 6933TIP3    H242215   0.401   2.801  14.761 -2.9534  1.9865  1.4798
 6934TIP3   OH242216   4.859   4.636  14.621 -0.6134 -0.4301 -0.8375
 6934TIP3    H142217   4.826   4.722  14.649 -0.4541 -0.0927 -1.6703
 6934TIP3    H242218   4.944   4.654  14.582 -0.1902 -1.0885 -0.2530
 6935TIP3   OH242219   4.361   6.332  16.457 -0.0860 -0.0824 -0.0614
 6935TIP3    H142220   4.448   6.368  16.443 -0.0831  0.0346  0.2544
 6935TIP3    H242221   4.337   6.359  16.546 -1.3568  1.7861 -0.9084
 6936TIP3   OH242222   0.862   1.105  17.181  0.0839  0.3748  0.6157
 6936TIP3    H142223   0.815   1.172  17.131  0.1311 -0.4124 -0.5424
 6936TIP3    H242224   0.930   1.153  17.228 -0.2920  1.2164  0.3222
 6937TIP3   OH242225   2.131   2.070  16.670 -0.2986  0.3799 -0.5130
 6937TIP3    H142226   2.059   2.042  16.614 -0.4451  0.8353 -0.5585
 6937TIP3    H242227   2.092   2.079  16.757 -0.3156  0.6886 -0.5502
 6938TIP3   OH242228   0.420   5.882  16.684 -0.1084  0.2003 -0.5253
 6938TIP3    H142229   0.394   5.819  16.617  1.3519  0.2620 -1.1982
 6938TIP3    H242230   0.514   5.868  16.693  0.0857  1.7067 -0.0746
 6939TIP3   OH242231   0.342   1.504  11.845 -0.1704 -0.2140  0.3590
 6939TIP3    H142232   0.290   1.510  11.765  2.2653 -0.3864 -1.3281
 6939TIP3    H242233   0.317   1.581  11.896 -0.6573  0.7364 -1.2680
 6940TIP3   OH242234   6.652   1.806  12.507 -0.3708  0.0259  0.3594
 6940TIP3    H142235   6.635   1.870  12.439  0.1430 -0.0550  0.1546
 6940TIP3    H242236   6.685   1.729  12.460 -0.2803 -0.1280  0.6719
 6941TIP3   OH242237   0.217   6.616  12.004 -0.0774  0.3119 -0.6625
 6941TIP3    H142238   0.304   6.599  12.040  0.0121 -1.3514 -1.5532
 6941TIP3    H242239   0.226   6.598  11.911 -1.2674  0.5805 -0.8461
 6942TIP3   OH242240   5.570   3.218  13.850  0.6946  0.7030 -0.3453
 6942TIP3    H142241   5.613   3.303  13.846  1.0888  0.5724  0.7701
 6942TIP3    H242242   5.483   3.234  13.814  0.5822  1.7127  0.3222
 6943TIP3   OH242243   1.299   2.490   3.082 -0.4723  0.0537 -0.1879
 6943TIP3    H142244   1.206   2.477   3.063 -0.6667 -0.2533  0.9087
 6943TIP3    H242245   1.301   2.527   3.170  0.5094 -1.6626  0.5667
 6944TIP3   OH242246   0.444   1.900  15.761  0.5005 -0.0522  0.1849
 6944TIP3    H142247   0.471   1.935  15.846 -0.0359  0.9198 -0.0229
 6944TIP3    H242248   0.469   1.808  15.764 -0.5961 -0.3419  1.8728
 6945TIP3   OH242249   5.088   4.287  15.311 -1.0482  0.1888  0.6014
 6945TIP3    H142250   4.994   4.277  15.318 -0.8942 -0.4377  2.1115
 6945TIP3    H242251   5.116   4.320  15.397  0.2952 -1.3083  0.7898
 6946TIP3   OH242252   4.023   3.622  11.231 -0.2611  0.1574  0.2241
 6946TIP3    H142253   4.117   3.606  11.233 -0.5885 -1.9066  0.8025
 6946TIP3    H242254   3.999   3.636  11.322 -0.6956 -0.4536  0.2024
 6947TIP3   OH242255   3.890   5.004   5.372 -0.3290  0.2217  0.2106
 6947TIP3    H142256   3.817   5.067   5.368 -1.2646 -0.8608 -0.3422
 6947TIP3    H242257   3.948   5.040   5.440 -0.1569  2.3534 -0.9597
 6948TIP3   OH242258   5.651   0.920  11.806  0.4602 -0.2012 -0.0569
 6948TIP3    H142259   5.638   0.987  11.872 -0.0538  0.1074 -0.4618
 6948TIP3    H242260   5.570   0.919  11.755  0.0257 -1.8605  0.5801
 6949TIP3   OH242261   3.731   3.558  10.394  0.0103  0.3843  0.0070
 6949TIP3    H142262   3.699   3.479  10.437 -0.7247  0.6933  0.0456
 6949TIP3    H242263   3.818   3.535  10.363  0.5622  0.1476  1.6341
 6950TIP3   OH242264   6.795   4.823   0.600  0.4678  0.4649 -0.4341
 6950TIP3    H142265   6.724   4.770   0.564 -1.1838 -0.7665  4.0162
 6950TIP3    H242266   6.871   4.765   0.598  0.7847  0.8818 -2.8641
 6951TIP3   OH242267   1.799   2.741   6.308 -0.0883 -0.1971  0.3210
 6951TIP3    H142268   1.752   2.722   6.389  0.6939  0.4236  0.9369
 6951TIP3    H242269   1.872   2.797   6.335 -0.2744  0.6868 -0.9226
 6952TIP3   OH242270   4.977   2.465  12.359 -0.2379  0.5178  0.1093
 6952TIP3    H142271   5.072   2.461  12.373 -0.2394  0.3439  0.0661
 6952TIP3    H242272   4.955   2.557  12.375 -0.3959  0.1560  2.3375
 6953TIP3   OH242273   0.320   4.320   6.194 -0.0624  0.1292  0.1954
 6953TIP3    H142274   0.238   4.277   6.218  0.4398 -1.0196 -0.0676
 6953TIP3    H242275   0.339   4.378   6.267 -1.4547  0.9548 -0.0456
 6954TIP3   OH242276   4.345   2.459  15.701  0.9464 -0.9615 -0.1992
 6954TIP3    H142277   4.285   2.467  15.775  0.5617 -1.3479 -0.4625
 6954TIP3    H242278   4.400   2.537  15.705 -0.4080  0.0515 -0.7048
 6955TIP3   OH242279   6.789   1.868  12.185  0.0982 -0.3891  0.4169
 6955TIP3    H142280   6.696   1.851  12.170  0.1699 -1.6772  1.2505
 6955TIP3    H242281   6.824   1.890  12.098 -0.4524 -2.6931 -0.4671
 6956TIP3   OH242282   1.225   5.634  14.061  0.1394 -0.0295  0.3524
 6956TIP3    H142283   1.203   5.550  14.100 -0.3689  0.3062  0.8180
 6956TIP3    H242284   1.150   5.690  14.083  1.4990  1.2018  2.0505
 6957TIP3   OH242285   5.669   1.686   5.102 -0.2047 -0.4224 -0.2285
 6957TIP3    H142286   5.673   1.594   5.078 -1.0109 -0.5395  0.0833
 6957TIP3    H242287   5.577   1.709   5.098 -0.0830  0.2053  0.3231
 6958TIP3   OH242288   0.984   5.420  11.106 -0.0454  0.2560 -0.0297
 6958TIP3    H142289   0.990   5.439  11.012 -0.2256  1.4509  0.1836
 6958TIP3    H242290   0.891   5.430  11.127 -0.2023 -1.2002  0.0533
 6959TIP3   OH242291   4.428   2.848  10.924  0.4830 -0.1434  0.3961
 6959TIP3    H142292   4.491   2.781  10.950  1.4987  0.2857 -0.8464
 6959TIP3    H242293   4.396   2.819  10.838 -1.8747 -0.9108  1.4404
 6960TIP3   OH242294   4.716   1.417   5.079  0.1390 -0.3738  0.2272
 6960TIP3    H142295   4.695   1.510   5.085  0.1539 -0.3345 -0.2857
 6960TIP3    H242296   4.710   1.397   4.985  1.1286 -0.6549  0.2087
 6961TIP3   OH242297   0.692   3.634  11.939  0.5238  0.6123  0.0447
 6961TIP3    H142298   0.647   3.657  11.858  0.2567  0.3169  0.1069
 6961TIP3    H242299   0.777   3.678  11.933  0.1678  1.3019  0.0017
 6962TIP3   OH242300   5.637   5.988  14.126 -0.2074 -0.3131 -0.6289
 6962TIP3    H142301   5.690   6.024  14.055  0.2860 -1.1153 -0.6791
 6962TIP3    H242302   5.690   5.998  14.204  0.1267 -1.3311 -0.7175
 6963TIP3   OH242303   4.598   0.361   2.937  0.0274 -0.7369  0.0859
 6963TIP3    H142304   4.594   0.445   2.982  1.9127  0.5977 -2.0035
 6963TIP3    H242305   4.674   0.317   2.974  0.6413 -0.3230 -0.6604
 6964TIP3   OH242306   1.822   6.394   3.279  0.4984  0.3145 -0.0157
 6964TIP3    H142307   1.782   6.310   3.261 -0.2035  0.4797  0.7309
 6964TIP3    H242308   1.817   6.442   3.196 -2.3387  0.9400  0.4134
 6965TIP3   OH242309   3.719   4.817  10.788 -0.0715 -0.4330 -0.2265
 6965TIP3    H142310   3.741   4.910  10.789  1.3142 -0.7438  0.1887
 6965TIP3    H242311   3.788   4.775  10.840 -1.0033 -1.6262  0.0986
 6966TIP3   OH242312   5.014   3.977   1.696  0.0973 -0.1688 -0.3059
 6966TIP3    H142313   5.062   3.898   1.674 -0.1255 -0.5774  0.6183
 6966TIP3    H242314   5.033   3.992   1.788 -1.3201 -0.2041  0.0219
 6967TIP3   OH242315   0.599   2.583   5.258 -0.0921 -0.4351 -0.4374
 6967TIP3    H142316   0.661   2.512   5.241 -0.1494 -0.5553 -0.1422
 6967TIP3    H242317   0.579   2.576   5.351  0.7472  0.6437 -0.1486
 6968TIP3   OH242318   3.080   6.121   2.053  0.4028  0.4288  0.4987
 6968TIP3    H142319   3.001   6.166   2.022 -0.4133 -1.8278 -0.9252
 6968TIP3    H242320   3.096   6.053   1.988  2.3160 -0.5390  1.8825
 6969TIP3   OH242321   0.840   0.735   6.471 -0.2659 -0.2163  0.0849
 6969TIP3    H142322   0.846   0.645   6.502  0.2987 -0.5887 -1.0551
 6969TIP3    H242323   0.746   0.751   6.462 -0.3676 -0.7071  0.2435
 6970TIP3   OH242324   6.296   6.346   2.327 -0.1242 -0.3220 -0.0337
 6970TIP3    H142325   6.280   6.251   2.330 -0.9681 -0.1654  1.7347
 6970TIP3    H242326   6.264   6.372   2.241 -3.2302 -1.1601  0.7089
 6971TIP3   OH242327   0.637   1.076   2.035  0.2607 -0.2552 -0.0842
 6971TIP3    H142328   0.672   0.990   2.010  0.1737 -0.1836 -0.4643
 6971TIP3    H242329   0.714   1.132   2.044  0.3163 -0.3692  0.1443
 6972TIP3   OH242330   3.624   0.496   2.899  0.2713  0.2638  0.0886
 6972TIP3    H142331   3.596   0.423   2.954  1.4069 -0.6588 -0.5435
 6972TIP3    H242332   3.546   0.518   2.848 -0.1522 -0.3137  0.4729
 6973TIP3   OH242333   5.328   1.041   4.989 -0.1032  0.0783  0.8579
 6973TIP3    H142334   5.255   1.017   5.047 -0.7116  1.8250  0.8730
 6973TIP3    H242335   5.295   1.115   4.938  1.9536  1.5557  1.5321
 6974TIP3   OH242336   6.143   2.761   0.847 -0.1081  0.0115 -0.6080
 6974TIP3    H142337   6.050   2.751   0.828 -0.0072  0.1132 -1.1766
 6974TIP3    H242338   6.148   2.765   0.942 -0.9741  2.6042 -0.5917
 6975TIP3   OH242339   2.190   6.214   1.134 -0.1859 -0.4400  0.1710
 6975TIP3    H142340   2.208   6.120   1.141 -0.2998 -0.5155 -0.4918
 6975TIP3    H242341   2.270   6.256   1.167  0.0943 -0.7703 -0.0813
 6976TIP3   OH242342   6.052   1.858   5.800  0.2452  0.7872 -0.3583
 6976TIP3    H142343   6.114   1.881   5.869  1.6308  0.3391 -1.4274
 6976TIP3    H242344   5.975   1.827   5.848  1.7230 -0.9861  1.0213
 6977TIP3   OH242345   1.773   3.943  12.324 -0.0195  0.6576 -0.6630
 6977TIP3    H142346   1.687   3.938  12.283  0.0616 -0.8690 -0.7055
 6977TIP3    H242347   1.832   3.899  12.262  0.3674 -0.3251  0.3610
 6978TIP3   OH242348   6.221   3.156   5.876 -0.0851  0.3612  0.5665
 6978TIP3    H142349   6.230   3.218   5.803  0.0841  0.7112  0.8810
 6978TIP3    H242350   6.309   3.148   5.911 -0.0368 -0.3517  0.2973
 6979TIP3   OH242351   2.690   0.046  13.677 -0.4147 -0.3439 -0.6390
 6979TIP3    H142352   2.781   0.067  13.700 -1.4840  0.8215  3.4738
 6979TIP3    H242353   2.689  -0.049  13.667  1.0146 -0.5876  1.0482
 6980TIP3   OH242354   5.173   3.246   4.459 -0.0291 -0.0943  0.5659
 6980TIP3    H142355   5.107   3.210   4.518  0.9023 -1.4858  0.8083
 6980TIP3    H242356   5.142   3.223   4.372 -0.1503 -0.2130  0.6398
 6981TIP3   OH242357   4.597   3.722   4.073 -0.2510  0.0292 -0.4161
 6981TIP3    H142358   4.669   3.749   4.131 -0.6823 -0.2205  0.2471
 6981TIP3    H242359   4.632   3.647   4.025  0.3703  0.6997 -1.0432
 6982TIP3   OH242360   1.262   1.819   5.245 -0.1870 -0.1805 -0.2453
 6982TIP3    H142361   1.197   1.885   5.272  0.6417  0.0799  1.2545
 6982TIP3    H242362   1.232   1.738   5.287  0.4913 -0.0357  0.5432
 6983TIP3   OH242363   0.864   3.338   5.961  0.2172  0.0261 -0.0475
 6983TIP3    H142364   0.907   3.409   6.009 -1.1610  0.0164  1.3031
 6983TIP3    H242365   0.771   3.353   5.976 -0.1093 -2.3071  0.6594
 6984TIP3   OH242366   5.674   5.036   0.881 -0.8048  0.0451  0.2049
 6984TIP3    H142367   5.661   5.070   0.792 -0.2105 -0.5516 -0.1180
 6984TIP3    H242368   5.769   5.037   0.893 -0.8472 -0.4954  0.5945
 6985TIP3   OH242369   4.747   5.200   2.902  0.0677  0.1417 -0.1125
 6985TIP3    H142370   4.711   5.125   2.950 -1.9245  2.4481  2.2483
 6985TIP3    H242371   4.754   5.169   2.811 -1.1050 -2.7252  0.6694
 6986TIP3   OH242372   5.212   4.155   1.660  0.0894  0.4408  0.3593
 6986TIP3    H142373   5.143   4.091   1.644 -0.8326  1.1976  1.1882
 6986TIP3    H242374   5.292   4.103   1.666 -0.2264 -0.3529 -1.6492
 6987TIP3   OH242375   4.632   3.074  15.204  0.0935 -0.0249  0.2288
 6987TIP3    H142376   4.648   3.166  15.182  2.3825  0.0044  1.6607
 6987TIP3    H242377   4.546   3.055  15.167  0.6030  1.9715 -2.2851
 6988TIP3   OH242378   0.379   4.364   5.681 -0.3145  0.1984  0.3323
 6988TIP3    H142379   0.356   4.308   5.756 -1.1580  0.2163  0.0970
 6988TIP3    H242380   0.440   4.428   5.716 -1.6893  1.0226  1.3355
 6989TIP3   OH242381   1.949   6.092   3.346 -0.4991 -0.5323  0.1953
 6989TIP3    H142382   1.870   6.119   3.392  0.3684  0.5924  1.0752
 6989TIP3    H242383   2.011   6.070   3.416  0.3181 -0.3390 -0.4576
 6990TIP3   OH242384   1.457   5.642   5.615  0.0002  0.8552 -0.0863
 6990TIP3    H142385   1.478   5.672   5.703 -0.4010  0.9021 -0.0040
 6990TIP3    H242386   1.376   5.688   5.593 -0.2210  0.3965 -0.2476
 6991TIP3   OH242387   1.379   4.311   6.319 -0.1916 -0.9027  0.3410
 6991TIP3    H142388   1.293   4.353   6.328 -1.0958 -2.1448 -1.5378
 6991TIP3    H242389   1.359   4.217   6.320  1.0608 -1.2069 -0.6982
 6992TIP3   OH242390   0.594   1.768  11.012 -0.6162  0.0174  0.3522
 6992TIP3    H142391   0.570   1.858  10.988  1.0353  0.6173  0.8368
 6992TIP3    H242392   0.525   1.740  11.071 -1.3267  0.8449 -0.0603
 6993TIP3   OH242393   6.427   5.733   1.607 -0.0241  0.5833  0.1107
 6993TIP3    H142394   6.456   5.762   1.521 -2.4099  1.7384 -0.3961
 6993TIP3    H242395   6.331   5.739   1.604 -0.2043  0.5656  2.7938
 6994TIP3   OH242396   5.641   3.096   0.748  0.4074  0.4248 -0.5414
 6994TIP3    H142397   5.719   3.103   0.803  0.5144 -0.6370 -0.5440
 6994TIP3    H242398   5.671   3.051   0.669 -0.2528 -0.1877 -0.4461
 6995TIP3   OH242399   6.458   6.649  11.043  0.2445  0.1048  0.8497
 6995TIP3    H142400   6.444   6.681  10.954 -0.7710  1.1611  1.3573
 6995TIP3    H242401   6.498   6.563  11.032  0.1920  0.2464 -0.6213
 6996TIP3   OH242402   5.158   4.681   3.329  0.1497 -0.0856 -0.2044
 6996TIP3    H142403   5.186   4.739   3.399  0.0053 -2.4686  1.9814
 6996TIP3    H242404   5.221   4.697   3.258  0.4860  2.1873  0.5255
 6997TIP3   OH242405   5.427   4.377   4.638 -0.2261  0.3967 -0.4896
 6997TIP3    H142406   5.359   4.427   4.593 -0.7600  1.3486  1.3047
 6997TIP3    H242407   5.422   4.289   4.599 -0.9413  1.0450 -1.9482
 6998TIP3   OH242408   1.353   5.581  12.487  0.5085  0.1488 -0.1699
 6998TIP3    H142409   1.424   5.610  12.430  1.0094 -0.8876 -0.0872
 6998TIP3    H242410   1.304   5.517  12.435 -1.1688  1.7468 -0.7008
 6999TIP3   OH242411   1.104   5.426   5.785  0.2339  0.6040 -0.3629
 6999TIP3    H142412   1.059   5.480   5.721  0.2866  2.6297  1.2148
 6999TIP3    H242413   1.079   5.336   5.762  0.3273  1.2167 -3.2069
 7000TIP3   OH242414   6.356   4.726  11.379  0.7097  0.6294 -0.2913
 7000TIP3    H142415   6.379   4.658  11.443  3.5254  2.6537  1.0534
 7000TIP3    H242416   6.398   4.697  11.298 -2.0655 -1.4604 -1.1230
 7001TIP3   OH242417   0.530   1.350   5.821  0.1009  0.7668  0.1378
 7001TIP3    H142418   0.519   1.338   5.726  1.3808  1.6278 -0.1283
 7001TIP3    H242419   0.487   1.433   5.840 -2.0178 -0.3898  0.7044
 7002TIP3   OH242420   0.635   4.912  16.885  0.2114 -0.6695 -0.6340
 7002TIP3    H142421   0.716   4.864  16.904  1.0175  0.3711 -1.2700
 7002TIP3    H242422   0.623   4.970  16.959 -0.8035 -1.8597  0.1703
 7003TIP3   OH242423   0.049   4.246  14.227 -0.3201 -0.1024  0.9492
 7003TIP3    H142424  -0.038   4.211  14.245 -0.4525 -1.1589 -1.3516
 7003TIP3    H242425   0.106   4.169  14.228  0.1053  0.1798 -0.1509
 7004TIP3   OH242426   3.557   4.624  13.160  0.3036 -0.8886  0.5410
 7004TIP3    H142427   3.538   4.570  13.236  0.9164 -1.0237  0.6039
 7004TIP3    H242428   3.473   4.635  13.116  0.0990 -1.5261  0.7709
 7005TIP3   OH242429   4.020   5.826   3.147 -0.3829 -0.0428 -0.1157
 7005TIP3    H142430   3.987   5.798   3.062 -0.7678 -1.5222  0.4836
 7005TIP3    H242431   4.091   5.766   3.167 -1.5397 -0.9991  1.4297
 7006TIP3   OH242432   2.312   2.732  16.058  0.0684 -0.2876 -0.2635
 7006TIP3    H142433   2.398   2.700  16.029 -0.7157 -0.3242 -2.8072
 7006TIP3    H242434   2.275   2.659  16.108  0.5658 -1.2344 -1.2357
 7007TIP3   OH242435   6.309   2.329  15.675 -0.0737 -0.2958  0.1826
 7007TIP3    H142436   6.266   2.280  15.745 -1.8618  1.9537  0.7784
 7007TIP3    H242437   6.365   2.391  15.721 -0.4262  0.4656 -0.4088
 7008TIP3   OH242438   3.886   1.267  13.215 -0.3236  0.0991  0.0397
 7008TIP3    H142439   3.814   1.327  13.229 -1.0943 -0.2352 -2.0858
 7008TIP3    H242440   3.854   1.183  13.248 -0.3070  0.2799  0.5149
 7009TIP3   OH242441   3.921   4.281  13.649 -0.3495 -0.8294  0.4698
 7009TIP3    H142442   4.000   4.325  13.678  0.2678 -2.7029  1.8703
 7009TIP3    H242443   3.947   4.233  13.570 -0.8364  0.6615 -0.6377
 7010TIP3   OH242444   4.097   1.349  16.001  0.1990  0.2305  0.0337
 7010TIP3    H142445   4.022   1.407  16.014  0.9041  0.8412  1.5274
 7010TIP3    H242446   4.080   1.273  16.057  0.2964 -0.0265 -0.2786
 7011TIP3   OH242447   4.670   6.002  16.162 -0.0367  0.6021  0.2170
 7011TIP3    H142448   4.744   5.978  16.217 -0.2308 -1.6261 -0.3916
 7011TIP3    H242449   4.627   5.919  16.141 -1.8074  1.6780 -0.7237
 7012TIP3   OH242450   3.195   2.233   4.992  0.1547  0.2331  0.4345
 7012TIP3    H142451   3.212   2.322   5.024  1.1543  0.5232 -0.8196
 7012TIP3    H242452   3.141   2.193   5.060  0.4707  1.4929  1.4695
 7013TIP3   OH242453   2.001   0.692  14.118 -0.2056  0.6263 -0.7178
 7013TIP3    H142454   2.076   0.746  14.141 -1.1453  1.2713  0.9765
 7013TIP3    H242455   2.035   0.602  14.122  0.5802  0.9237 -0.4450
 7014TIP3   OH242456   2.212   0.278   1.970 -0.0199 -0.5818 -0.7888
 7014TIP3    H142457   2.278   0.292   2.037 -0.6842  0.0369 -0.2536
 7014TIP3    H242458   2.227   0.188   1.940  0.9792 -0.4862 -0.5978
 7015TIP3   OH242459   0.665   0.515  14.530  0.3288 -0.1979 -0.7156
 7015TIP3    H142460   0.760   0.509  14.538  0.3710 -0.3336 -1.2478
 7015TIP3    H242461   0.651   0.591  14.473 -0.0189  1.8798  1.9323
 7016TIP3   OH242462   3.224   5.594   4.643  0.0904 -0.3008 -0.2290
 7016TIP3    H142463   3.245   5.631   4.729 -1.3713  0.7524 -0.3118
 7016TIP3    H242464   3.176   5.514   4.663 -0.1816 -0.0969 -0.0748
 7017TIP3   OH242465   2.972   5.180   3.225 -0.3061 -0.3344  0.3193
 7017TIP3    H142466   3.059   5.206   3.195 -0.5388  1.7770  1.2890
 7017TIP3    H242467   2.943   5.253   3.280 -4.0973  0.7229 -2.6415
 7018TIP3   OH242468   3.812   6.637   5.340  0.6353 -0.2659 -0.5338
 7018TIP3    H142469   3.873   6.612   5.271  0.5930 -0.6601 -0.4315
 7018TIP3    H242470   3.800   6.557   5.392  2.3999  0.5457  1.2648
 7019TIP3   OH242471   6.177   3.006  14.521 -0.0121 -0.2476  0.0926
 7019TIP3    H142472   6.260   2.981  14.479  0.0092  2.1470 -1.5188
 7019TIP3    H242473   6.110   2.956  14.475  0.3436 -0.4376 -0.2242
 7020TIP3   OH242474   1.656   2.301   5.466 -0.7214 -0.1511  0.2722
 7020TIP3    H142475   1.609   2.274   5.387  1.1840  0.2799 -1.0886
 7020TIP3    H242476   1.700   2.222   5.496  0.1443  0.1066 -0.2837
 7021TIP3   OH242477   3.523   4.283  15.659  0.4877  0.6062  0.6495
 7021TIP3    H142478   3.437   4.262  15.695  0.8046  0.1214  1.1469
 7021TIP3    H242479   3.568   4.198  15.654  0.2907  0.5823 -1.3646
 7022TIP3   OH242480   6.793   5.674   0.477  0.1107 -0.4447 -0.5094
 7022TIP3    H142481   6.881   5.674   0.440  0.0869 -0.9954 -0.5761
 7022TIP3    H242482   6.767   5.582   0.477 -0.5347 -0.2685 -0.6596
 7023TIP3   OH242483   1.016   2.464  15.271 -0.1245 -0.1464  0.4297
 7023TIP3    H142484   0.948   2.509  15.221  0.4201 -1.2460 -1.4057
 7023TIP3    H242485   0.968   2.397  15.320 -0.4080 -1.2709 -1.2642
 7024TIP3   OH242486   6.772   3.369  13.139 -0.0816 -0.1052 -0.8924
 7024TIP3    H142487   6.779   3.278  13.169 -0.1008  0.3343  0.5129
 7024TIP3    H242488   6.682   3.394  13.160 -0.4604 -0.1099 -2.3747
 7025TIP3   OH242489   5.746   3.768  13.626 -0.6048 -0.1820 -0.0315
 7025TIP3    H142490   5.754   3.746  13.719  1.6251 -2.1567 -0.6027
 7025TIP3    H242491   5.656   3.745  13.603 -0.2736 -2.7036  0.9522
 7026TIP3   OH242492   4.108   6.009  14.742 -0.0834 -0.0466  0.5018
 7026TIP3    H142493   4.200   6.033  14.731 -0.6360  2.1499  0.1390
 7026TIP3    H242494   4.085   5.964  14.660  0.6194 -0.4864  0.5388
 7027TIP3   OH242495   4.196   0.522   4.371 -0.0717  0.6348 -0.1243
 7027TIP3    H142496   4.189   0.617   4.380 -2.4346  0.4546  0.7437
 7027TIP3    H242497   4.217   0.491   4.460  0.2486  0.2986 -0.3106
 7028TIP3   OH242498   4.086   5.932   3.468 -0.3462 -0.1804  0.3545
 7028TIP3    H142499   3.993   5.953   3.476 -0.4368 -0.6086  0.4181
 7028TIP3    H242500   4.122   6.003   3.415 -0.8210 -0.3333 -0.1738
 7029TIP3   OH242501   0.286   0.987   2.904 -0.3793  0.0136  0.8268
 7029TIP3    H142502   0.229   1.064   2.909 -0.7646 -0.2137  0.2124
 7029TIP3    H242503   0.375   1.022   2.903 -0.5509  0.7104 -2.3300
 7030TIP3   OH242504   5.761   1.152   1.843 -0.8946  0.1432  0.3646
 7030TIP3    H142505   5.667   1.140   1.851 -0.7847 -1.2793 -0.0584
 7030TIP3    H242506   5.797   1.063   1.853  0.1162  0.0082 -3.1564
 7031TIP3   OH242507   4.244   2.206  15.786  0.6093 -0.6354 -0.2337
 7031TIP3    H142508   4.186   2.275  15.818  0.8873 -0.4609 -0.0953
 7031TIP3    H242509   4.186   2.142  15.745  0.3949 -0.0136 -0.9263
 7032TIP3   OH242510   1.282   2.538  12.822  0.2880 -0.1621  0.7386
 7032TIP3    H142511   1.230   2.458  12.821  2.2655 -1.5205 -0.5026
 7032TIP3    H242512   1.252   2.587  12.746  0.1749 -0.4826  0.5755
 7033TIP3   OH242513   2.361   5.208  16.210  0.2600  0.8025  0.3890
 7033TIP3    H142514   2.383   5.293  16.172  0.7840 -0.2967 -1.9466
 7033TIP3    H242515   2.436   5.153  16.190 -0.3425 -0.3873  1.2850
 7034TIP3   OH242516   3.391   2.603  15.417  0.4332 -0.6660  0.0575
 7034TIP3    H142517   3.337   2.558  15.353 -0.9210  0.1856  0.5482
 7034TIP3    H242518   3.368   2.695  15.407  1.0948 -0.3889  0.9483
 7035TIP3   OH242519   5.817   6.101  13.916 -0.1182  0.5717  0.3542
 7035TIP3    H142520   5.859   6.138  13.838 -2.3261 -0.9778 -1.7207
 7035TIP3    H242521   5.860   6.146  13.989  3.9688  0.2594 -1.5309
 7036TIP3   OH242522   2.692   1.970   1.222 -0.4634 -0.2209  0.2747
 7036TIP3    H142523   2.603   2.002   1.220 -0.3021  0.2149 -0.0169
 7036TIP3    H242524   2.728   2.001   1.305 -0.0025  1.2120 -0.4274
 7037TIP3   OH242525   1.937   3.891  16.668  0.6468 -0.2254 -0.0175
 7037TIP3    H142526   1.911   3.954  16.600 -0.6376 -0.7710 -0.0622
 7037TIP3    H242527   1.985   3.823  16.621  1.6343  0.4598 -0.0364
 7038TIP3   OH242528   1.904   1.552   5.324 -0.1852 -0.1573  0.4015
 7038TIP3    H142529   1.993   1.563   5.289  0.3083 -1.9939  0.9445
 7038TIP3    H242530   1.862   1.490   5.265  0.4325 -2.7546  2.4650
 7039TIP3   OH242531   1.218   6.469  10.980  0.0797 -0.0142 -0.4061
 7039TIP3    H142532   1.185   6.476  11.070  0.3950  1.3745 -0.3811
 7039TIP3    H242533   1.177   6.389  10.946 -0.6003 -0.1729  0.7362
 7040TIP3   OH242534   0.619   6.598   1.432  0.6471  0.1527  0.3675
 7040TIP3    H142535   0.701   6.561   1.400  0.9873  0.5018  0.8270
 7040TIP3    H242536   0.618   6.687   1.398  0.1037 -0.0787 -0.2495
 7041TIP3   OH242537   1.010   3.613   3.727 -0.5410  0.2634 -0.2450
 7041TIP3    H142538   1.012   3.543   3.661 -0.6390  1.4656 -1.5868
 7041TIP3    H242539   1.058   3.577   3.801 -1.2941 -1.5235 -0.5639
 7042TIP3   OH242540   4.264   5.656  12.182  0.2656  0.1554  0.2573
 7042TIP3    H142541   4.178   5.620  12.201  0.4122  0.2785  1.2191
 7042TIP3    H242542   4.280   5.635  12.090 -1.0032  0.5765 -0.0704
 7043TIP3   OH242543   3.701   0.562  12.134 -0.1901  0.3638 -0.1256
 7043TIP3    H142544   3.620   0.583  12.086 -1.2062 -0.1129  1.3051
 7043TIP3    H242545   3.694   0.468  12.152 -0.2446  0.6705  1.6287
 7044TIP3   OH242546   3.002   2.895   4.292  0.5973  0.8524  0.1551
 7044TIP3    H142547   2.946   2.889   4.214  1.7317  0.2032 -0.6607
 7044TIP3    H242548   3.000   2.806   4.329  0.6674  0.9583  0.4113
 7045TIP3   OH242549   5.836   1.405  14.400  0.0732  0.4669 -0.0514
 7045TIP3    H142550   5.810   1.495  14.380 -0.0505  0.2753 -0.7867
 7045TIP3    H242551   5.795   1.386  14.484  0.3387  1.1926  0.2510
 7046TIP3   OH242552   1.711   4.906  15.151 -0.0313 -0.0089  0.4219
 7046TIP3    H142553   1.626   4.940  15.123 -0.5748 -1.4647  0.2073
 7046TIP3    H242554   1.765   4.984  15.167 -0.6164  0.9296 -1.8373
 7047TIP3   OH242555   0.903   5.682   5.932 -0.2272  0.1649 -0.2093
 7047TIP3    H142556   0.842   5.755   5.936 -0.1522  0.1890  0.6986
 7047TIP3    H242557   0.922   5.671   5.839 -0.3342  1.2179 -0.3622
 7048TIP3   OH242558   4.103   2.797   1.798 -0.1605 -0.0426 -0.2054
 7048TIP3    H142559   4.142   2.727   1.746 -0.9538 -0.3834 -0.3519
 7048TIP3    H242560   4.175   2.829   1.853  0.5893  0.0675 -1.2294
 7049TIP3   OH242561   3.435   5.814   3.499  0.3199  0.5777 -0.3843
 7049TIP3    H142562   3.430   5.746   3.432 -1.0505 -0.1882  0.4671
 7049TIP3    H242563   3.522   5.853   3.486  0.1255  0.4166 -2.5409
 7050TIP3   OH242564   3.317   3.870  11.222  0.4197 -0.3120 -0.2260
 7050TIP3    H142565   3.270   3.933  11.168 -0.1768  0.4939  1.1882
 7050TIP3    H242566   3.303   3.786  11.179 -0.8281  0.1740 -0.8136
 7051TIP3   OH242567   5.537   2.627  15.527 -0.0107  0.0287 -0.0029
 7051TIP3    H142568   5.612   2.637  15.469  0.8343  0.8590  1.1722
 7051TIP3    H242569   5.557   2.547  15.577  0.2408  0.4018  0.5011
 7052TIP3   OH242570   1.459   5.349   1.078  0.4433  0.1345  0.7193
 7052TIP3    H142571   1.440   5.427   1.131  0.7076  1.7079 -1.3857
 7052TIP3    H242572   1.374   5.310   1.060  0.3997 -0.9637  2.9811
 7053TIP3   OH242573   6.010   6.131  14.952  0.5083  0.4434 -0.2827
 7053TIP3    H142574   5.933   6.116  14.897 -0.1273 -0.5636  0.8396
 7053TIP3    H242575   5.976   6.171  15.032  1.3579  1.4156 -0.3937
 7054TIP3   OH242576   0.783   0.260  10.971 -0.2419 -0.4457 -0.2059
 7054TIP3    H142577   0.788   0.306  11.055 -1.2654 -2.1212  0.8283
 7054TIP3    H242578   0.763   0.329  10.907 -0.7747  0.6922  1.1408
 7055TIP3   OH242579   5.736   1.211   0.148  0.1843  0.2183  0.4342
 7055TIP3    H142580   5.810   1.266   0.121  0.4101 -0.6807 -0.8844
 7055TIP3    H242581   5.771   1.157   0.218  0.9702 -0.5743 -0.5365
 7056TIP3   OH242582   1.766   1.079   1.672  0.2764 -0.3089  0.1168
 7056TIP3    H142583   1.717   1.059   1.593 -1.0228  1.7157  0.3243
 7056TIP3    H242584   1.833   1.141   1.643  1.8144 -1.9022  0.1089
 7057TIP3   OH242585   2.677   0.866  15.844  0.1019  0.3406  0.7200
 7057TIP3    H142586   2.709   0.903  15.927  0.1817  0.3254  0.6962
 7057TIP3    H242587   2.675   0.771  15.860  1.8715  0.1642  0.1026
 7058TIP3   OH242588   3.928   3.800   4.773  0.2142  0.1291 -0.0204
 7058TIP3    H142589   3.977   3.841   4.702 -2.3596  1.4720 -1.1644
 7058TIP3    H242590   3.837   3.802   4.744 -0.7833 -0.6497  2.6984
 7059TIP3   OH242591   1.083   0.814   0.060  0.4037  0.7638 -0.3010
 7059TIP3    H142592   1.008   0.825   0.002  0.5406 -0.2038 -0.6813
 7059TIP3    H242593   1.157   0.850   0.011  1.3030 -3.4472 -2.5455
 7060TIP3   OH242594   2.578   4.411   2.497  0.0930  0.4974  0.2709
 7060TIP3    H142595   2.491   4.380   2.521  0.1868  0.6951  0.8958
 7060TIP3    H242596   2.582   4.500   2.533 -0.1212  1.2001 -1.3791
 7061TIP3   OH242597   0.068   0.613  12.414 -0.7759  0.2383  0.1407
 7061TIP3    H142598   0.000   0.550  12.390  0.7403 -0.8813 -1.5226
 7061TIP3    H242599   0.140   0.560  12.448  0.1508  1.1347 -0.3325
 7062TIP3   OH242600   3.738   6.715  13.336  0.1166 -0.3009  0.0611
 7062TIP3    H142601   3.809   6.733  13.397 -0.0046 -0.1473  0.1584
 7062TIP3    H242602   3.702   6.631  13.364  0.5551 -0.6048 -0.2711
 7063TIP3   OH242603   4.362   3.323  13.451 -0.2515 -0.1996 -0.3623
 7063TIP3    H142604   4.290   3.261  13.441 -1.3058  1.1401 -1.7191
 7063TIP3    H242605   4.337   3.397  13.396  3.1520 -0.5167 -2.6443
 7064TIP3   OH242606   4.695   1.692   0.762 -0.1076 -0.8663  0.8057
 7064TIP3    H142607   4.661   1.734   0.683  0.2897 -0.6855  0.7254
 7064TIP3    H242608   4.688   1.760   0.830 -0.8695 -1.1696  1.0368
 7065TIP3   OH242609   4.899   2.147  14.719 -0.4109  0.0908  0.1471
 7065TIP3    H142610   4.985   2.185  14.699  0.2884 -0.7118  1.5156
 7065TIP3    H242611   4.914   2.053  14.724 -2.0537 -0.4577 -2.8281
 7066TIP3   OH242612   2.610   4.992  10.637 -0.3153 -0.0178  0.1759
 7066TIP3    H142613   2.604   5.087  10.627 -1.1138 -0.0925 -0.0701
 7066TIP3    H242614   2.688   4.968  10.586 -0.1714  0.4838  0.1476
 7067TIP3   OH242615   2.253   1.679  16.825 -0.1259 -0.4436 -0.2095
 7067TIP3    H142616   2.170   1.631  16.823  0.4070 -1.4271  0.4800
 7067TIP3    H242617   2.251   1.734  16.746 -0.2758 -2.4114 -1.6442
 7068TIP3   OH242618   0.215   0.946   3.197 -0.0658 -0.2934 -0.1787
 7068TIP3    H142619   0.236   1.038   3.181  0.6612 -0.2053  1.1808
 7068TIP3    H242620   0.128   0.948   3.237  0.5329 -0.0546  1.1743
 7069TIP3   OH242621   0.055   2.499  16.762 -0.0264  0.1283 -0.2883
 7069TIP3    H142622  -0.031   2.537  16.746  0.1068  0.4302 -0.2919
 7069TIP3    H242623   0.060   2.488  16.857  0.7254  2.0366 -0.0622
 7070TIP3   OH242624   1.783   4.377  16.510  0.3405  0.3019 -0.0110
 7070TIP3    H142625   1.801   4.323  16.434  0.1423 -0.5252  0.5182
 7070TIP3    H242626   1.849   4.446  16.507  2.8224 -1.8612  1.1346
 7071TIP3   OH242627   2.367   0.548  12.999 -0.3499  0.5928 -0.3535
 7071TIP3    H142628   2.301   0.502  12.947 -1.1656  1.6968 -0.3426
 7071TIP3    H242629   2.320   0.573  13.079  0.5044  0.1249  0.3157
 7072TIP3   OH242630   0.051   4.569   1.791  0.7349  0.4870  0.1594
 7072TIP3    H142631  -0.007   4.645   1.794  0.2629  0.0782  2.1403
 7072TIP3    H242632   0.057   4.539   1.881  0.2520 -2.3480 -0.6477
 7073TIP3   OH242633   4.054   0.720  12.441 -0.3394  0.1622  0.4664
 7073TIP3    H142634   4.119   0.651  12.456  0.1105  0.4649 -0.0438
 7073TIP3    H242635   4.101   0.787  12.392 -1.7828 -1.0004 -2.8200
 7074TIP3   OH242636   0.042   1.464  15.145 -0.4388 -0.0298 -0.2619
 7074TIP3    H142637   0.093   1.391  15.181 -1.6319 -0.1193  1.3164
 7074TIP3    H242638   0.106   1.534  15.133  0.0126  0.0840  2.2749
 7075TIP3   OH242639   1.620   2.983   1.149  0.9831  0.6592 -0.3442
 7075TIP3    H142640   1.534   2.941   1.152  0.6554  1.1293 -1.9700
 7075TIP3    H242641   1.630   3.024   1.236 -0.9782  1.6061 -0.4958
 7076TIP3   OH242642   2.627   4.953  11.974  0.0450  0.5543  0.3184
 7076TIP3    H142643   2.594   5.005  11.901  1.5282  2.2887  0.7890
 7076TIP3    H242644   2.678   4.884  11.934  2.1203  2.3720 -0.3792
 7077TIP3   OH242645   2.187   6.455   2.282 -0.5278 -0.3969  0.0748
 7077TIP3    H142646   2.140   6.372   2.287 -0.3035 -0.5318 -0.0069
 7077TIP3    H242647   2.193   6.486   2.372  0.6411 -1.1798  0.2753
 7078TIP3   OH242648   4.690   2.246  12.427 -0.2119  0.6070  0.4846
 7078TIP3    H142649   4.761   2.278  12.482  0.6615  1.0252 -0.8199
 7078TIP3    H242650   4.631   2.200  12.487  1.8347 -0.9177  1.4504
 7079TIP3   OH242651   2.782   4.046   1.484 -0.3593 -0.4793 -0.3925
 7079TIP3    H142652   2.853   3.994   1.522 -0.5285  0.0254  0.6542
 7079TIP3    H242653   2.712   4.044   1.549 -0.4536  0.8631 -0.4055
 7080TIP3   OH242654   3.221   5.273  10.487 -0.3163  0.1010 -0.4790
 7080TIP3    H142655   3.234   5.232  10.402 -2.7468 -0.8583 -0.4847
 7080TIP3    H242656   3.128   5.296  10.489 -0.2059  0.6362  1.6881
 7081TIP3   OH242657   2.535   5.182   0.227  0.3783  1.1508  0.0734
 7081TIP3    H142658   2.583   5.186   0.144  0.2564  0.3583 -0.0440
 7081TIP3    H242659   2.601   5.194   0.294  0.5270  1.4688 -0.1275
 7082TIP3   OH242660   4.155   4.776   1.921 -0.2421 -0.3309  0.3327
 7082TIP3    H142661   4.205   4.733   1.852 -0.6551 -1.0351  0.4662
 7082TIP3    H242662   4.162   4.870   1.901  2.6379 -0.2138  1.3284
 7083TIP3   OH242663   6.662   3.606   0.034 -0.4606  0.6097 -0.2033
 7083TIP3    H142664   6.662   3.557   0.116  1.8534  0.9528  0.0734
 7083TIP3    H242665   6.723   3.558  -0.022 -1.0332  1.1007 -1.2707
 7084TIP3   OH242666   3.152   3.818   3.782  0.4222  0.1940 -0.6360
 7084TIP3    H142667   3.112   3.759   3.846 -0.1957  0.1924 -1.0175
 7084TIP3    H242668   3.097   3.809   3.704  0.7469  0.7393 -0.9283
 7085TIP3   OH242669   1.838   5.006   4.574 -0.2051 -0.4703  0.1245
 7085TIP3    H142670   1.778   5.044   4.509  0.8166 -0.2948 -0.7303
 7085TIP3    H242671   1.842   5.071   4.644  2.1068  1.4623 -1.6489
 7086TIP3   OH242672   6.041   6.181   4.852  0.0778  0.1584  0.2952
 7086TIP3    H142673   5.973   6.222   4.905 -0.1555 -0.4028  0.4384
 7086TIP3    H242674   6.023   6.211   4.763 -1.0648 -0.8956  0.1519
 7087TIP3   OH242675   5.451   5.374   3.305 -0.2502 -0.2913  0.4836
 7087TIP3    H142676   5.364   5.388   3.341 -0.8870  0.2692 -1.1364
 7087TIP3    H242677   5.442   5.299   3.247  0.2773 -0.0881  0.1241
 7088TIP3   OH242678   0.982   4.488  12.817 -0.4058  0.1505 -0.0973
 7088TIP3    H142679   0.918   4.510  12.749 -0.7898 -0.3217  0.1103
 7088TIP3    H242680   0.993   4.569  12.867  1.8030  1.3218 -2.2555
 7089TIP3   OH242681   1.660   6.760  12.444 -0.4266  0.4219  0.1349
 7089TIP3    H142682   1.593   6.747  12.512 -0.1291  0.3043  0.4070
 7089TIP3    H242683   1.741   6.732  12.485 -0.5734 -1.9930 -1.0695
 7090TIP3   OH242684   3.081   1.818  15.900  0.0068  0.1094 -0.2772
 7090TIP3    H142685   3.000   1.868  15.888  0.4626  1.0316  0.3838
 7090TIP3    H242686   3.071   1.742  15.842 -0.9459  0.6729 -0.8741
 7091TIP3   OH242687   4.584   4.972   4.908  0.8046 -0.0429 -0.0745
 7091TIP3    H142688   4.531   5.019   4.844  0.9564  0.1630 -0.0509
 7091TIP3    H242689   4.523   4.913   4.951  0.6138  0.1205 -0.1184
 7092TIP3   OH242690   1.737   1.776   2.402  0.4624  0.6423  0.4537
 7092TIP3    H142691   1.681   1.840   2.447 -1.9723 -0.3903 -0.8913
 7092TIP3    H242692   1.721   1.791   2.309  0.1320 -1.6082  0.0908
 7093TIP3   OH242693   3.219   1.985  11.314 -0.1894  0.4017 -0.0303
 7093TIP3    H142694   3.176   2.059  11.357 -0.3030  0.4725 -0.2639
 7093TIP3    H242695   3.248   2.020  11.230  0.1788  0.3066  0.0587
 7094TIP3   OH242696   1.235   2.743   1.626 -0.0035 -0.3026  0.0711
 7094TIP3    H142697   1.167   2.676   1.632 -0.3392  0.0479  0.2592
 7094TIP3    H242698   1.312   2.697   1.592 -0.3785 -0.6762 -0.2851
 7095TIP3   OH242699   6.710   0.370   2.585  0.2249 -0.8630  0.2915
 7095TIP3    H142700   6.710   0.456   2.543  1.5320 -0.8372  0.3020
 7095TIP3    H242701   6.801   0.342   2.581 -0.2461 -2.4087 -0.0269
 7096TIP3   OH242702   4.388   3.053  15.027  0.2133  0.0637 -0.8521
 7096TIP3    H142703   4.350   2.982  14.975  0.9916 -0.3135 -0.9095
 7096TIP3    H242704   4.425   3.113  14.963 -0.6652  0.6564 -0.8144
 7097TIP3   OH242705   1.380   0.452   5.137  0.1731 -0.3638 -0.2321
 7097TIP3    H142706   1.367   0.400   5.058  1.6547 -1.5091  0.2300
 7097TIP3    H242707   1.435   0.526   5.107  2.5116 -1.8796  0.0206
 7098TIP3   OH242708   3.538   1.565   5.426  0.2706 -0.1963  0.1526
 7098TIP3    H142709   3.483   1.643   5.421 -0.1567 -0.3967  1.3727
 7098TIP3    H242710   3.477   1.494   5.443  0.4414 -1.1302 -2.6844
 7099TIP3   OH242711   0.214   0.746  13.062 -0.2443 -0.3453  0.3972
 7099TIP3    H142712   0.150   0.683  13.094 -0.0917 -0.6389  0.1338
 7099TIP3    H242713   0.189   0.829  13.102 -1.9579 -0.0269 -1.1785
 7100TIP3   OH242714   0.035   0.739   5.839 -0.4204 -0.2251 -0.2289
 7100TIP3    H142715  -0.002   0.691   5.912  1.5545 -0.3448  0.7507
 7100TIP3    H242716   0.125   0.708   5.832  0.0966  1.3573 -1.3017
 7101TIP3   OH242717   4.311   2.170  12.718 -0.6628  0.6882  0.7016
 7101TIP3    H142718   4.245   2.128  12.662  0.8687  0.4205 -0.9975
 7101TIP3    H242719   4.292   2.137  12.806 -1.6852 -0.8081 -0.0237
 7102TIP3   OH242720   5.731   4.224   3.023  0.6321 -0.0130 -0.0268
 7102TIP3    H142721   5.809   4.228   3.077  1.4084 -0.4118 -1.0703
 7102TIP3    H242722   5.708   4.131   3.021  0.2027  0.0854  0.1693
 7103TIP3   OH242723   4.001   0.644   1.653 -0.1506 -0.2186 -0.2056
 7103TIP3    H142724   3.915   0.679   1.628 -0.7394 -1.7769 -0.4809
 7103TIP3    H242725   4.026   0.695   1.730 -1.0531  0.6419 -0.4510
 7104TIP3   OH242726   2.017   4.811  16.220 -0.3767 -0.6655  0.8535
 7104TIP3    H142727   2.093   4.756  16.199 -0.5975 -0.6638  0.0202
 7104TIP3    H242728   1.942   4.761  16.189 -0.7960 -0.9920  2.3210
 7105TIP3   OH242729   4.558   0.557   5.428  0.4884 -0.8462  0.5271
 7105TIP3    H142730   4.547   0.610   5.507  1.1042  0.0290  0.0522
 7105TIP3    H242731   4.638   0.506   5.444  1.4395  0.3883 -0.0593
 7106TIP3   OH242732   0.492   1.011   0.174  0.0888  0.5998 -0.0251
 7106TIP3    H142733   0.414   1.066   0.179 -0.3113  0.1260 -0.7348
 7106TIP3    H242734   0.458   0.922   0.180  0.7144  0.4272  0.9738
 7107TIP3   OH242735   1.361   1.729  11.829  0.0127  0.5394  0.2981
 7107TIP3    H142736   1.274   1.757  11.801 -0.0166  1.5055  1.2785
 7107TIP3    H242737   1.349   1.639  11.858 -0.7134  0.7498  0.6700
 7108TIP3   OH242738   1.399   1.086   6.005  0.7787 -0.8775 -0.1597
 7108TIP3    H142739   1.336   1.151   5.975  2.2501  0.5156 -0.4057
 7108TIP3    H242740   1.449   1.063   5.927 -0.0682 -2.7693 -0.1923
 7109TIP3   OH242741   6.350   0.404  12.959  0.1915 -0.0770  0.2475
 7109TIP3    H142742   6.440   0.430  12.979  0.3812 -0.3594 -0.2379
 7109TIP3    H242743   6.304   0.412  13.043  0.5931  0.3708  0.4277
 7110TIP3   OH242744   0.863   0.884   1.942  0.0576  0.1975  0.0025
 7110TIP3    H142745   0.890   0.975   1.957  1.1252 -0.1035 -0.0188
 7110TIP3    H242746   0.801   0.889   1.870 -0.4757  0.9871  0.4936
 7111TIP3   OH242747   5.751   2.594  15.355 -0.6194  0.3335 -0.4682
 7111TIP3    H142748   5.750   2.571  15.262  0.6902 -1.0391 -0.1913
 7111TIP3    H242749   5.815   2.534  15.393 -2.2901 -0.2248  1.6228
 7112TIP3   OH242750   5.954   2.256   5.407  0.0704 -0.0471  0.5344
 7112TIP3    H142751   5.881   2.258   5.469  1.0237  0.7127  1.6805
 7112TIP3    H242752   5.927   2.194   5.340 -2.0273  0.9238  0.4184
 7113TIP3   OH242753   2.774   1.809   4.788 -0.5476  0.0447  0.3443
 7113TIP3    H142754   2.763   1.733   4.730  1.7878 -0.3900  0.3533
 7113TIP3    H242755   2.842   1.861   4.746 -1.5272  1.7372  0.7841
 7114TIP3   OH242756   1.238   2.897  11.230  0.2338 -0.3517 -0.3648
 7114TIP3    H142757   1.261   2.806  11.246  0.0812 -0.2604  0.4630
 7114TIP3    H242758   1.312   2.947  11.265 -0.5449 -0.1074  1.0494
 7115TIP3   OH242759   1.983   2.424  15.018  0.1383  0.0259 -0.2003
 7115TIP3    H142760   1.982   2.459  14.929  0.3814  1.4669  0.3398
 7115TIP3    H242761   1.894   2.392  15.032 -0.5238  1.7263 -0.2495
 7116TIP3   OH242762   1.407   1.954   0.561 -0.0043 -0.5551  0.0237
 7116TIP3    H142763   1.393   2.004   0.481 -0.6836 -0.7584  0.0116
 7116TIP3    H242764   1.482   1.898   0.541 -0.5594 -1.0622 -0.7053
 7117TIP3   OH242765   2.661   5.954   4.492 -0.1391 -0.4055 -0.2311
 7117TIP3    H142766   2.668   6.039   4.448  0.4275 -0.3491 -0.0250
 7117TIP3    H242767   2.748   5.916   4.487 -0.1927 -0.6203  0.4133
 7118TIP3   OH242768   3.998   1.858  15.372  0.2098 -0.3582 -0.6922
 7118TIP3    H142769   3.950   1.911  15.307  1.2989  0.5172 -0.8031
 7118TIP3    H242770   3.943   1.781  15.384 -1.4167  0.7758 -0.5438
 7119TIP3   OH242771   4.232   6.280  12.994  0.2156 -0.6123  0.2239
 7119TIP3    H142772   4.268   6.240  12.915 -0.5313 -0.1820 -0.3513
 7119TIP3    H242773   4.138   6.285  12.978  0.0508 -0.5319  1.1515
 7120TIP3   OH242774   3.967   5.634   0.567 -0.5254 -0.0146  0.5317
 7120TIP3    H142775   3.921   5.556   0.537  0.9003 -0.1376 -1.5041
 7120TIP3    H242776   3.909   5.672   0.633 -1.9185 -1.9840  0.5162
 7121TIP3   OH242777   1.546   6.495   0.975  0.0837  0.6876 -0.3441
 7121TIP3    H142778   1.469   6.443   0.997 -0.9079  1.5288 -1.6377
 7121TIP3    H242779   1.598   6.439   0.917  0.3563  0.2047  0.3482
 7122TIP3   OH242780   1.955   5.713   1.179  0.3241 -0.5495 -0.3358
 7122TIP3    H142781   1.981   5.671   1.097 -2.0294 -1.8523 -0.4728
 7122TIP3    H242782   2.027   5.693   1.239  0.7259 -2.0973 -1.2740
 7123TIP3   OH242783   1.428   0.075  13.183 -0.5475  0.7005 -0.7486
 7123TIP3    H142784   1.400   0.035  13.101 -0.2788 -0.4445 -0.3052
 7123TIP3    H242785   1.520   0.051  13.192 -0.6481  0.5441  0.0191
 7124TIP3   OH242786   4.645   3.116   0.325  0.2982  0.6319  0.1724
 7124TIP3    H142787   4.737   3.109   0.350 -0.2849 -0.3782  2.2422
 7124TIP3    H242788   4.599   3.137   0.406 -1.3789  0.4520 -0.6782
 7125TIP3   OH242789   6.025   1.431   1.651 -0.2155  0.2347  0.4230
 7125TIP3    H142790   6.059   1.430   1.562  1.4594  3.0178  0.9344
 7125TIP3    H242791   5.930   1.433   1.640 -0.0571 -0.0396 -1.2576
 7126TIP3   OH242792   1.858   5.135   0.550  0.3707  0.8346 -0.4169
 7126TIP3    H142793   1.863   5.221   0.592 -0.2368  0.4343  0.5170
 7126TIP3    H242794   1.764   5.120   0.537  0.0153 -1.3441  3.1237
 7127TIP3   OH242795   2.808   6.504  16.357  0.0036 -0.0256 -0.0413
 7127TIP3    H142796   2.769   6.467  16.436  1.4129 -0.4332  0.4928
 7127TIP3    H242797   2.875   6.441  16.331 -0.1604  0.2948 -1.3496
 7128TIP3   OH242798   3.597   6.366  15.303 -0.1082  0.1754 -0.2336
 7128TIP3    H142799   3.506   6.395  15.294 -0.6480 -0.8446  1.4531
 7128TIP3    H242800   3.591   6.281  15.346  1.6758  0.4090  0.5722
 7129TIP3   OH242801   2.930   1.758  12.510  0.1686  0.5974  0.3068
 7129TIP3    H142802   2.873   1.793  12.442 -0.6658 -0.0155  0.6650
 7129TIP3    H242803   2.974   1.835  12.546  0.8043  0.9052 -1.0603
 7130TIP3   OH242804   4.414   6.353  13.676  0.1348  0.2666 -0.3234
 7130TIP3    H142805   4.360   6.284  13.637 -0.0330 -1.2144  2.3164
 7130TIP3    H242806   4.503   6.318  13.673  0.2015  0.4050  0.0288
 7131TIP3   OH242807   2.660   3.021  13.255  0.6360  0.7437  0.0283
 7131TIP3    H142808   2.651   2.986  13.343  1.4451 -0.5312 -0.3705
 7131TIP3    H242809   2.574   3.007  13.215  1.1526 -1.5879 -0.3781
 7132TIP3   OH242810   5.591   6.376  13.188 -0.1011  0.7545  0.1503
 7132TIP3    H142811   5.641   6.334  13.258 -1.5596  0.7172  1.2277
 7132TIP3    H242812   5.621   6.332  13.108  1.4504  0.6405  0.7482
 7133TIP3   OH242813   6.180   3.258   4.632 -0.0265 -0.0212 -0.4033
 7133TIP3    H142814   6.116   3.190   4.652  1.5354 -1.1116  1.3064
 7133TIP3    H242815   6.141   3.339   4.665 -0.9159 -0.5088 -0.2458
 7134TIP3   OH242816   5.050   0.614  12.048  0.1542  0.2556 -0.0960
 7134TIP3    H142817   5.057   0.521  12.029  2.1876  0.1111  1.1475
 7134TIP3    H242818   4.973   0.621  12.105 -0.7251 -0.4496 -1.1413
 7135TIP3   OH242819   1.638   3.291  12.305  0.4742  0.0504 -0.4585
 7135TIP3    H142820   1.681   3.212  12.273  0.0952 -0.6661  0.7647
 7135TIP3    H242821   1.564   3.304  12.245 -0.3683 -1.4096  0.2096
 7136TIP3   OH242822   3.413   0.877   1.023 -0.0807 -0.5614  0.9082
 7136TIP3    H142823   3.487   0.918   1.066  0.6229  0.0348 -0.7665
 7136TIP3    H242824   3.452   0.826   0.951 -1.2895  0.3226 -0.4420
 7137TIP3   OH242825   0.289   0.973  15.364 -0.5036  0.1400  0.2131
 7137TIP3    H142826   0.268   1.064  15.386 -0.0407  0.0213  1.1754
 7137TIP3    H242827   0.222   0.921  15.406  0.2150 -0.0680  1.1275
 7138TIP3   OH242828   4.799   2.690   4.082  0.1430 -0.4699 -0.4456
 7138TIP3    H142829   4.733   2.725   4.022 -0.2533 -2.2400 -1.1131
 7138TIP3    H242830   4.849   2.766   4.111 -2.3249  0.9693  0.2818
 7139TIP3   OH242831   5.674   3.148  12.273  0.2174 -0.0771 -0.1200
 7139TIP3    H142832   5.587   3.125  12.241  0.2509  0.5044 -0.6596
 7139TIP3    H242833   5.734   3.094  12.222  0.2299  0.3200 -0.5316
 7140TIP3   OH242834   1.464   0.209  11.327  0.1729 -0.3916  0.6710
 7140TIP3    H142835   1.498   0.198  11.415  0.3781  1.1532  0.8203
 7140TIP3    H242836   1.541   0.203  11.270  0.5865  1.7820  0.9016
 7141TIP3   OH242837   5.555   0.557   0.987  0.0603  0.0114 -1.0404
 7141TIP3    H142838   5.627   0.563   1.050 -2.0786 -0.4480  1.6566
 7141TIP3    H242839   5.588   0.500   0.918  1.7926 -1.5675  0.9350
 7142TIP3   OH242840   2.487   6.349   1.157  0.1609  0.3326 -0.7900
 7142TIP3    H142841   2.524   6.365   1.244  2.2770 -0.4195 -1.4997
 7142TIP3    H242842   2.484   6.254   1.149 -2.2838  0.3390 -0.6803
 7143TIP3   OH242843   5.358   5.690   5.378 -0.0526  0.1199  0.5065
 7143TIP3    H142844   5.380   5.723   5.465 -1.2517  0.6935  0.6000
 7143TIP3    H242845   5.441   5.656   5.344  0.2811 -0.8387  2.1747
 7144TIP3   OH242846   5.709   2.912  15.357  0.2126  0.0657  0.3744
 7144TIP3    H142847   5.652   2.847  15.397  0.3630  0.2621  0.9259
 7144TIP3    H242848   5.734   2.875  15.273  0.0838 -0.4695  0.5709
 7145TIP3   OH242849   4.504   4.022   4.871  0.5602 -0.1184 -0.8985
 7145TIP3    H142850   4.460   4.086   4.816 -0.5619  0.2179  0.3197
 7145TIP3    H242851   4.433   3.983   4.923  1.1637 -2.5881 -1.8072
 7146TIP3   OH242852   4.004   6.398  11.588 -0.3092  0.1212  0.1671
 7146TIP3    H142853   4.086   6.354  11.609  0.2008  1.0539  0.1981
 7146TIP3    H242854   3.939   6.328  11.581  0.5180 -0.6346  0.0051
 7147TIP3   OH242855   6.023   0.537   3.605 -0.1853  0.1294  0.1139
 7147TIP3    H142856   6.053   0.601   3.670  0.4080  0.3956 -0.3992
 7147TIP3    H242857   6.029   0.584   3.521 -0.0201 -0.4997 -0.2384
 7148TIP3   OH242858   3.108   6.280   1.705  0.1547  0.1957 -0.7894
 7148TIP3    H142859   3.189   6.272   1.653  0.7437 -0.5011  0.1894
 7148TIP3    H242860   3.098   6.194   1.745 -1.7589 -0.1104 -1.8399
 7149TIP3   OH242861   5.314   3.916  12.599 -0.6236 -0.0843  0.3076
 7149TIP3    H142862   5.318   3.860  12.522  2.0651  1.6034 -0.9203
 7149TIP3    H242863   5.261   3.991  12.573 -0.7094 -0.0759  0.5015
 7150TIP3   OH242864   6.225   2.564   1.358  0.1982  0.2020 -0.0159
 7150TIP3    H142865   6.220   2.659   1.366  0.2397  0.2915 -1.0172
 7150TIP3    H242866   6.202   2.546   1.267  5.6425 -0.2984 -1.6051
 7151TIP3   OH242867   5.042   1.323  13.561  0.7271 -0.1226 -0.6504
 7151TIP3    H142868   5.015   1.325  13.653 -1.8753  2.0064 -1.3226
 7151TIP3    H242869   5.137   1.328  13.564  0.7964 -1.3506  1.9095
 7152TIP3   OH242870   4.237   3.485  17.034 -0.2299  0.9646 -0.3950
 7152TIP3    H142871   4.219   3.500  16.941 -0.0880  0.3661 -0.5220
 7152TIP3    H242872   4.298   3.554  17.059  2.3698 -0.7535 -1.5789
 7153TIP3   OH242873   5.927   0.823   0.133 -0.0722 -0.4100  0.7559
 7153TIP3    H142874   5.922   0.917   0.114 -0.2024 -0.2296  1.6713
 7153TIP3    H242875   5.950   0.784   0.049  0.6154  0.5028  0.4991
 7154TIP3   OH242876   2.622   4.260  11.527 -0.4254  0.0373  0.0217
 7154TIP3    H142877   2.654   4.289  11.612 -0.8955  2.2913 -0.4974
 7154TIP3    H242878   2.619   4.165  11.533  1.5115  0.0291  1.7977
 7155TIP3   OH242879   5.451   6.724  13.448  0.3079 -0.5161 -0.4097
 7155TIP3    H142880   5.418   6.712  13.537  1.2372 -2.0056 -0.2307
 7155TIP3    H242881   5.374   6.748  13.397  0.1204  2.8277  1.1674
 7156TIP3   OH242882   1.138   3.531   5.844 -0.0634  0.2207  0.6572
 7156TIP3    H142883   1.095   3.605   5.801  0.4087  0.5729  0.7900
 7156TIP3    H242884   1.175   3.567   5.924  1.1789  0.1061  0.1503
 7157TIP3   OH242885   1.657   1.407  15.846 -0.0747 -0.1263  0.1873
 7157TIP3    H142886   1.569   1.390  15.879  0.0507 -1.7148 -0.2088
 7157TIP3    H242887   1.652   1.388  15.752  0.1215  2.1536 -0.3499
 7158TIP3   OH242888   2.529   5.278   0.606  0.6578  0.2328 -0.9013
 7158TIP3    H142889   2.438   5.289   0.577  0.5158  0.5851 -0.3389
 7158TIP3    H242890   2.522   5.258   0.699  1.2254  2.5191 -0.3023
 7159TIP3   OH242891   3.336   5.896  12.805 -0.3721  0.1504  0.1651
 7159TIP3    H142892   3.269   5.849  12.854  1.5457 -1.6019  1.2349
 7159TIP3    H242893   3.325   5.866  12.714  0.1574 -1.6384  0.6585
 7160TIP3   OH242894   4.813   2.638  10.806 -0.1175 -0.2249  0.6664
 7160TIP3    H142895   4.891   2.690  10.824 -0.4783  0.8071 -0.6237
 7160TIP3    H242896   4.842   2.571  10.744  0.0885 -0.8867  1.4544
 7161TIP3   OH242897   5.067   5.583   4.518  0.1481  0.2368  0.0014
 7161TIP3    H142898   5.099   5.493   4.530  0.4636 -0.2801 -3.6046
 7161TIP3    H242899   4.972   5.575   4.522  0.0266 -0.8705 -2.7433
 7162TIP3   OH242900   2.087   4.703   0.437 -0.1615  0.3345  0.2800
 7162TIP3    H142901   2.067   4.791   0.469 -0.6100  0.5229 -0.4844
 7162TIP3    H242902   2.060   4.645   0.508 -1.0636  0.7446  0.2854
 7163TIP3   OH242903   1.619   3.914   1.504 -0.3112 -0.0775 -0.1425
 7163TIP3    H142904   1.698   3.861   1.504 -0.3177 -0.0911 -0.9688
 7163TIP3    H242905   1.643   3.994   1.456 -1.4122 -1.0390 -2.4573
 7164TIP3   OH242906   0.360   2.943   2.691  0.4371 -0.4483 -0.3344
 7164TIP3    H142907   0.441   2.901   2.662  1.3009  0.7200  0.3036
 7164TIP3    H242908   0.389   3.012   2.750 -0.7813  2.2573 -2.6819
 7165TIP3   OH242909   3.490   3.072  16.672  0.9518  0.1403  0.1951
 7165TIP3    H142910   3.436   3.066  16.594 -0.1222  4.1261  0.4426
 7165TIP3    H242911   3.437   3.029  16.740 -0.4538  1.1111 -0.2426
 7166TIP3   OH242912   6.756   3.353  14.840  0.0121 -0.3288 -0.0340
 7166TIP3    H142913   6.802   3.349  14.924  0.1870 -0.0106 -0.1141
 7166TIP3    H242914   6.695   3.280  14.843 -0.3910  0.0315  0.6111
 7167TIP3   OH242915   6.437   5.890  14.962  0.0653  0.1391 -0.3710
 7167TIP3    H142916   6.517   5.842  14.984  0.4655  0.1077 -1.8065
 7167TIP3    H242917   6.462   5.947  14.889 -1.1501  0.3616 -0.6334
 7168TIP3   OH242918   0.677   6.216  16.233 -0.0637  0.1041  0.5042
 7168TIP3    H142919   0.586   6.231  16.259 -0.0910 -0.1059  0.5242
 7168TIP3    H242920   0.679   6.240  16.140 -0.0889  0.3201  0.5569
 7169TIP3   OH242921   3.165   6.619   5.661 -0.3606  0.5074 -0.7325
 7169TIP3    H142922   3.135   6.647   5.747 -0.1410  0.4149 -0.6244
 7169TIP3    H242923   3.126   6.682   5.600  0.4926  1.3387 -0.4559
 7170TIP3   OH242924   4.550   3.365  12.739 -0.2238 -0.2306  0.1544
 7170TIP3    H142925   4.483   3.315  12.692  0.0994 -0.9116  0.4101
 7170TIP3    H242926   4.533   3.456  12.715 -1.8116 -0.2921  0.9225
 7171TIP3   OH242927   0.738   4.732   2.547  0.2599  0.0757 -0.3517
 7171TIP3    H142928   0.751   4.736   2.453 -0.0278  0.3138 -0.3833
 7171TIP3    H242929   0.671   4.665   2.560  0.7232 -0.3770 -0.2709
 7172TIP3   OH242930   4.365   2.411  12.620 -0.2424 -0.6173  0.4917
 7172TIP3    H142931   4.301   2.476  12.646  0.4846 -1.1856  4.2609
 7172TIP3    H242932   4.325   2.327  12.643 -0.1596 -1.4202 -1.9789
 7173TIP3   OH242933   1.671   0.935   0.401  0.0202 -0.8417  0.4388
 7173TIP3    H142934   1.601   1.000   0.398  0.0494 -0.6824  2.2561
 7173TIP3    H242935   1.637   0.866   0.458 -0.0594 -2.5232 -1.5412
 7174TIP3   OH242936   2.225   1.260  14.569  0.0981 -0.1493  0.3881
 7174TIP3    H142937   2.248   1.351  14.552  0.9888 -0.6818 -1.5600
 7174TIP3    H242938   2.149   1.264  14.627  0.2674  1.8083  0.5242
 7175TIP3   OH242939   3.919   1.839   0.286  0.1464  0.1523 -0.4628
 7175TIP3    H142940   4.009   1.816   0.308 -0.8117 -0.9152  3.0281
 7175TIP3    H242941   3.876   1.755   0.270 -1.2250  0.0072  2.9486
 7176TIP3   OH242942   1.578   5.097   0.925  0.5742  0.6210 -0.2722
 7176TIP3    H142943   1.519   5.132   0.991  0.7814  1.1700 -0.3700
 7176TIP3    H242944   1.619   5.022   0.966  0.5648  0.8507  0.1614
 7177TIP3   OH242945   3.869   0.110   5.645  0.2202 -0.5956 -0.3657
 7177TIP3    H142946   3.916   0.092   5.563  2.8498  0.2428  0.8425
 7177TIP3    H242947   3.864   0.025   5.688 -1.5301 -1.1221 -1.4654
 7178TIP3   OH242948   0.753   3.947   1.086  0.2462 -0.0502  0.0228
 7178TIP3    H142949   0.659   3.966   1.092  0.3181  0.5168 -0.6288
 7178TIP3    H242950   0.770   3.891   1.162 -0.0590  2.0509  1.7085
 7179TIP3   OH242951   6.182   3.008  10.570  0.2392  0.3760  0.3143
 7179TIP3    H142952   6.130   3.080  10.606  0.1715 -0.1310  1.2382
 7179TIP3    H242953   6.268   3.047  10.555 -0.1000  0.9360 -0.2251
 7180TIP3   OH242954   6.663   0.913   0.359 -0.1117 -0.1485 -0.1228
 7180TIP3    H142955   6.606   0.850   0.404 -1.2657  0.5072 -0.6360
 7180TIP3    H242956   6.687   0.976   0.427 -0.9623  0.2311 -0.1721
 7181TIP3   OH242957   5.197   4.841   5.515  0.3934  0.0523  0.8457
 7181TIP3    H142958   5.246   4.913   5.555  0.2361  1.3723 -1.2265
 7181TIP3    H242959   5.189   4.864   5.423  0.9935 -3.0033 -0.1016
 7182TIP3   OH242960   4.820   1.266   4.344 -0.4316  0.3220 -0.0828
 7182TIP3    H142961   4.731   1.302   4.342 -0.4403  0.2867 -1.6436
 7182TIP3    H242962   4.861   1.307   4.421 -1.4750  1.1271  0.0660
 7183TIP3   OH242963   5.078   4.042   2.624  0.4532 -0.2726 -0.2989
 7183TIP3    H142964   5.110   3.956   2.649  1.6384  0.1688 -0.2132
 7183TIP3    H242965   5.035   4.029   2.540  0.3430 -0.9989 -0.1312
 7184TIP3   OH242966   6.285   2.932   0.012 -0.3970 -0.1684  0.5528
 7184TIP3    H142967   6.227   2.980  -0.047 -1.0624 -0.6344  0.8131
 7184TIP3    H242968   6.374   2.957  -0.016 -0.7124  0.5136  0.1173
 7185TIP3   OH242969   4.431   1.570   4.000 -0.4615  0.2822 -0.0428
 7185TIP3    H142970   4.470   1.483   3.993 -1.6947 -0.2023 -1.2980
 7185TIP3    H242971   4.468   1.606   4.081  1.8405 -0.4839 -0.6830
 7186TIP3   OH242972   1.170   2.385   1.325 -0.5050 -0.4764  0.3887
 7186TIP3    H142973   1.173   2.290   1.326 -2.8018 -0.6179  2.1280
 7186TIP3    H242974   1.210   2.411   1.408  0.7075  0.1476 -0.3640
 7187TIP3   OH242975   2.945   4.682   4.707 -0.4258  0.1462  0.1095
 7187TIP3    H142976   2.941   4.631   4.626 -1.0734 -1.9956  1.4122
 7187TIP3    H242977   2.886   4.756   4.693 -1.0197 -0.5448 -1.1241
 7188TIP3   OH242978   6.750   0.040  12.335  0.1507  0.1131  0.1643
 7188TIP3    H142979   6.655   0.035  12.348  0.2165  0.7478  0.9382
 7188TIP3    H242980   6.763   0.004  12.247 -0.7209 -0.6822  0.3340
 7189TIP3   OH242981   4.843   6.526   0.628 -0.3036  0.1404 -0.2511
 7189TIP3    H142982   4.775   6.496   0.567 -0.9510  1.1265 -0.0498
 7189TIP3    H242983   4.905   6.573   0.573 -0.1061 -0.2361 -0.3513
 7190TIP3   OH242984   4.244   3.355   1.499  0.1028  0.3111  0.0405
 7190TIP3    H142985   4.217   3.436   1.454 -0.4370 -0.7671 -1.6560
 7190TIP3    H242986   4.163   3.323   1.538 -0.8814 -1.8774 -3.3786
 7191TIP3   OH242987   0.005   1.923  12.958 -0.3118  0.0091  0.6775
 7191TIP3    H142988  -0.021   1.965  12.876 -0.5226 -2.5404 -0.6764
 7191TIP3    H242989   0.007   1.994  13.022  0.6808  2.2737 -1.6885
 7192TIP3   OH242990   3.739   4.120   0.671  0.5375 -0.2469 -0.6027
 7192TIP3    H142991   3.758   4.086   0.758 -0.9254 -1.8480 -0.8526
 7192TIP3    H242992   3.768   4.052   0.611 -2.3330 -1.1791 -1.1194
 7193TIP3   OH242993   4.595   2.117   0.192 -0.3453  0.4288  0.0587
 7193TIP3    H142994   4.634   2.032   0.209  1.1574  1.4208  1.9575
 7193TIP3    H242995   4.640   2.149   0.114 -1.2624 -0.6609 -0.9587
 7194TIP3   OH242996   1.327   2.055  14.685  0.0800 -0.1449  0.5675
 7194TIP3    H142997   1.400   2.113  14.667 -1.3039  1.3368 -0.4965
 7194TIP3    H242998   1.309   2.011  14.602 -1.7671  1.3554  0.1222
 7195TIP3   OH242999   2.342   1.595  13.008  0.0235  0.0085  0.4922
 7195TIP3    H143000   2.385   1.560  12.930  0.3237  1.0198  0.1956
 7195TIP3    H243001   2.322   1.518  13.061  0.3655 -0.6366 -0.3027
 7196TIP3   OH243002   6.244   0.435   2.683  0.3193 -0.0004 -0.0102
 7196TIP3    H143003   6.264   0.491   2.758  1.6718  0.9484 -1.0196
 7196TIP3    H243004   6.329   0.402   2.654 -0.3577 -1.8733 -0.0136
 7197TIP3   OH243005   4.958   2.865  11.591 -0.4893 -0.1777  0.0721
 7197TIP3    H143006   4.868   2.850  11.621 -0.3971 -1.4226 -0.2204
 7197TIP3    H243007   4.991   2.933  11.650 -1.6225  0.3261  0.1638
 7198TIP3   OH243008   4.649   4.670  12.898  0.7152 -0.0772 -0.0419
 7198TIP3    H143009   4.677   4.688  12.808  1.6321 -0.3866  0.1746
 7198TIP3    H243010   4.727   4.685  12.951  0.1383  0.2436  0.7228
 7199TIP3   OH243011   4.223   2.246  12.080 -0.6342  0.1160  0.0045
 7199TIP3    H143012   4.274   2.213  12.006  0.5048  0.2362  0.7213
 7199TIP3    H243013   4.275   2.318  12.116 -0.7408 -0.4944  1.4535
 7200TIP3   OH243014   6.764   0.425  10.339  0.4507  0.3885 -0.1611
 7200TIP3    H143015   6.771   0.338  10.299  0.1584 -0.1812  0.9879
 7200TIP3    H243016   6.843   0.471  10.311  2.0365 -1.2060  1.4779
 7201TIP3   OH243017   4.226   0.457   3.093 -0.5890 -0.0164 -0.0572
 7201TIP3    H143018   4.217   0.493   3.004  2.4218 -1.0954 -0.9333
 7201TIP3    H243019   4.230   0.363   3.080  1.9379 -0.1275  0.8809
 7202TIP3   OH243020   3.879   0.335   3.215 -0.7835  0.1154  0.2026
 7202TIP3    H143021   3.873   0.426   3.245 -0.6610 -0.3225  1.6551
 7202TIP3    H243022   3.859   0.339   3.121  2.1186  1.9965 -0.4463
 7203TIP3   OH243023   6.729   6.701   2.128  0.1528  0.4721 -0.5228
 7203TIP3    H143024   6.772   6.763   2.069 -0.4414 -0.7248 -2.3224
 7203TIP3    H243025   6.635   6.711   2.109 -0.0411  0.0076  0.1650
 7204TIP3   OH243026   6.221   3.414   4.217 -0.1323  0.2143  0.3006
 7204TIP3    H143027   6.165   3.461   4.278 -1.9148 -1.3217 -0.0483
 7204TIP3    H243028   6.293   3.381   4.270  0.3048  1.9457  0.8279
 7205TIP3   OH243029   1.555   4.026   4.394 -0.2922  0.1482 -0.3716
 7205TIP3    H143030   1.572   4.026   4.489 -2.8950 -1.0292  0.1699
 7205TIP3    H243031   1.490   4.094   4.381 -0.9603 -0.6100 -1.0870
 7206TIP3   OH243032   0.642   4.043  15.072 -0.4733  0.1675  0.5171
 7206TIP3    H143033   0.608   4.105  15.137 -1.8243 -1.1809  1.1701
 7206TIP3    H243034   0.656   4.095  14.993 -2.2075  1.1826  0.8377
 7207TIP3   OH243035   6.206   1.938  10.566  1.0241 -0.0992  0.0868
 7207TIP3    H143036   6.201   1.958  10.660 -1.8961  3.6014 -0.6506
 7207TIP3    H243037   6.238   2.019  10.526 -0.2372 -0.7224 -2.3298
 7208TIP3   OH243038   0.182   5.094   3.459  0.5147 -0.1686  0.0035
 7208TIP3    H143039   0.240   5.168   3.439  0.0085  0.6576  1.4683
 7208TIP3    H243040   0.241   5.025   3.489  0.8307  0.3204  0.5204
 7209TIP3   OH243041   2.044   3.092  15.885  0.5356  0.1316  0.4237
 7209TIP3    H143042   2.122   3.114  15.835  0.3488 -0.6676 -0.2358
 7209TIP3    H243043   2.043   2.997  15.889  0.2337  0.1561  1.4693
 7210TIP3   OH243044   5.556   3.484  15.571 -0.2760 -0.1141  0.0585
 7210TIP3    H143045   5.472   3.513  15.607  0.1506  0.3795  0.6787
 7210TIP3    H243046   5.599   3.440  15.645  0.5822  0.8408  0.1506
 7211TIP3   OH243047   3.668   1.789   1.844  0.0629 -0.2080 -0.8349
 7211TIP3    H143048   3.612   1.819   1.773 -2.2545 -0.7281  0.6823
 7211TIP3    H243049   3.743   1.748   1.800 -0.0634  1.5950 -2.9245
 7212TIP3   OH243050   1.750   3.868  14.490 -0.3885 -0.4295 -0.3180
 7212TIP3    H143051   1.747   3.856  14.585 -0.6977  0.7352 -0.1601
 7212TIP3    H243052   1.672   3.824  14.458 -1.7292  1.4119  0.2718
 7213TIP3   OH243053   1.485   3.833   3.375 -0.6483 -0.0118 -0.5610
 7213TIP3    H143054   1.512   3.916   3.335 -1.5657 -0.0848 -1.3681
 7213TIP3    H243055   1.392   3.843   3.391 -0.5245 -0.4419  0.4816
 7214TIP3   OH243056   0.553   1.267   4.161  0.7893  0.5693 -0.2771
 7214TIP3    H143057   0.486   1.238   4.223  1.3247  0.6616  0.3495
 7214TIP3    H243058   0.521   1.351   4.129  0.0896  0.1250 -0.7858
 7215TIP3   OH243059   3.443   0.992   2.829 -0.2996 -0.4713 -0.0871
 7215TIP3    H143060   3.507   1.030   2.889  0.2826 -1.0266 -0.3494
 7215TIP3    H243061   3.426   0.905   2.864 -2.9922  0.5750  1.5506
 7216TIP3   OH243062   3.039   2.312  16.739  0.3706  0.3715 -0.0244
 7216TIP3    H143063   2.993   2.302  16.822  0.6085  1.3757  0.2362
 7216TIP3    H243064   2.998   2.388  16.698  0.4533  0.0599 -0.7016
 7217TIP3   OH243065   3.225   5.112  13.737 -0.2117 -0.9352 -0.1411
 7217TIP3    H143066   3.286   5.063  13.793  0.5530  1.1883  0.9879
 7217TIP3    H243067   3.218   5.198  13.778 -1.8827 -0.2233 -1.7720
 7218TIP3   OH243068   3.692   1.759   4.850  0.1347 -0.2805  0.6237
 7218TIP3    H143069   3.677   1.787   4.760  0.1595 -0.0222  0.6987
 7218TIP3    H243070   3.630   1.688   4.863 -1.4023  1.0805  1.0732
 7219TIP3   OH243071   3.174   4.764  15.065 -0.1506  0.1031  0.1024
 7219TIP3    H143072   3.260   4.733  15.093  0.3044  0.8747 -0.3984
 7219TIP3    H243073   3.156   4.839  15.122 -1.4041 -1.2254  1.5532
 7220TIP3   OH243074   4.156   1.337   3.931  0.5158 -0.3521  0.6887
 7220TIP3    H143075   4.080   1.307   3.881  0.4308  2.3099 -0.9408
 7220TIP3    H243076   4.121   1.364   4.015 -0.2104 -0.0203  0.2850
 7221TIP3   OH243077   5.186   2.262   4.566 -0.4624  0.0752  0.5051
 7221TIP3    H143078   5.268   2.306   4.589  0.1418 -0.5974 -0.3323
 7221TIP3    H243079   5.120   2.332   4.568 -0.3190  0.2499  3.3374
 7222TIP3   OH243080   1.009   2.145   0.013 -0.2461 -1.1159 -0.2866
 7222TIP3    H143081   0.942   2.114  -0.048  0.5598 -0.2232 -1.6847
 7222TIP3    H243082   1.075   2.185  -0.043  0.6783 -0.5270  1.1765
 7223TIP3   OH243083   1.919   1.561   4.679 -0.0460 -0.0109  0.2767
 7223TIP3    H143084   1.853   1.495   4.658 -0.6224  0.2560  1.1899
 7223TIP3    H243085   2.003   1.516   4.664 -0.4083 -1.2115  1.5685
 7224TIP3   OH243086   3.244   1.642   5.049  0.4728  0.2713 -0.6430
 7224TIP3    H143087   3.193   1.573   5.091 -1.2777  1.1277 -1.2579
 7224TIP3    H243088   3.181   1.713   5.034  1.5369  0.8780 -2.6544
 7225TIP3   OH243089   5.248   1.305  14.180 -0.4317 -0.3415  0.7576
 7225TIP3    H143090   5.293   1.279  14.100  0.5483 -0.4833  1.3328
 7225TIP3    H243091   5.234   1.399  14.169  0.6541 -0.1511  0.8536
 7226TIP3   OH243092   2.004   2.913  12.647 -0.6296  0.1639 -0.0146
 7226TIP3    H143093   1.943   2.980  12.615 -1.7263 -0.4283  0.7693
 7226TIP3    H243094   2.034   2.946  12.731  0.6584  0.7507 -0.6775
 7227TIP3   OH243095   3.117   1.246   3.542 -0.3679 -0.2424  0.4195
 7227TIP3    H143096   3.167   1.227   3.622  0.9572  0.4491 -0.2135
 7227TIP3    H243097   3.118   1.342   3.536  1.0251 -0.3300 -1.3190
 7228TIP3   OH243098   0.130   2.238   4.882  0.4476  0.8004 -0.1948
 7228TIP3    H143099   0.174   2.246   4.797 -1.0620  1.0961 -0.9797
 7228TIP3    H243100   0.192   2.189   4.936  1.4420  0.5985 -1.4592
 7229TIP3   OH243101   4.171   3.915   1.449  0.1483 -0.0925  0.5963
 7229TIP3    H143102   4.210   3.858   1.515  1.7946 -0.5612 -0.7122
 7229TIP3    H243103   4.242   3.973   1.422 -0.2930 -0.2974 -1.1545
 7230TIP3   OH243104   0.735   4.368  11.497  0.2924 -0.3106 -0.1704
 7230TIP3    H143105   0.821   4.332  11.476 -0.3952 -0.8411 -2.2346
 7230TIP3    H243106   0.689   4.373  11.414 -1.4741  0.5703  0.7897
 7231TIP3   OH243107   3.648   0.330  12.817  0.3475  0.0585  0.4566
 7231TIP3    H143108   3.672   0.239  12.800  2.3686  0.8050 -1.1026
 7231TIP3    H243109   3.618   0.363  12.733 -2.4053  0.3318  1.4620
 7232TIP3   OH243110   6.240   2.547  14.604  0.1002  0.1828  0.2230
 7232TIP3    H143111   6.278   2.533  14.690 -1.1286 -2.3360  0.4471
 7232TIP3    H243112   6.156   2.589  14.621 -0.2958 -0.6271  0.3038
 7233TIP3   OH243113   4.410   2.391  11.598 -0.2719  0.0341  0.0883
 7233TIP3    H143114   4.408   2.335  11.520 -0.9368  1.4182 -0.9564
 7233TIP3    H243115   4.397   2.332  11.671 -0.1390 -1.2636 -0.8941
 7234TIP3   OH243116   2.894   0.675  16.121 -0.4439 -0.2495 -0.3721
 7234TIP3    H143117   2.834   0.743  16.151  1.7076  1.2378  0.8773
 7234TIP3    H243118   2.948   0.655  16.198  0.7176 -1.4339 -1.4356
 7235TIP3   OH243119   5.240   0.620   4.972 -0.3211  0.6744 -0.0804
 7235TIP3    H143120   5.187   0.691   4.933 -0.6083  0.8658  0.6355
 7235TIP3    H243121   5.330   0.642   4.948 -0.3289  1.7001  0.7484
 7236TIP3   OH243122   0.163   6.234   0.207  0.1248 -0.3796 -0.6226
 7236TIP3    H143123   0.092   6.178   0.237  0.9395 -0.3949  1.4182
 7236TIP3    H243124   0.239   6.176   0.200  0.5467  0.1099 -0.2449
 7237TIP3   OH243125   4.879   3.359   3.926 -0.2809  0.0965  0.6423
 7237TIP3    H143126   4.915   3.287   3.978 -0.9796 -1.5051 -0.9912
 7237TIP3    H243127   4.905   3.340   3.836 -0.7953  1.7110  0.1161
 7238TIP3   OH243128   3.913   0.728  14.080 -0.2697  0.0347 -0.1579
 7238TIP3    H143129   3.899   0.636  14.105 -1.8228  0.0003 -1.0279
 7238TIP3    H243130   3.950   0.722  13.992  2.6985  0.2197  0.9591
 7239TIP3   OH243131   5.292   4.407  11.283  0.1686  0.5014 -0.4116
 7239TIP3    H143132   5.227   4.402  11.214  0.6327 -0.1605 -0.8174
 7239TIP3    H243133   5.352   4.335  11.264  0.0375  0.0018  0.9548
 7240TIP3   OH243134   1.554   5.217   0.145 -0.2652 -0.7757 -0.1616
 7240TIP3    H143135   1.501   5.207   0.067  0.2344 -0.9239 -0.4861
 7240TIP3    H243136   1.551   5.132   0.188 -1.9125 -0.2473  0.8858
 7241TIP3   OH243137   1.021   0.097   6.344  0.0757 -0.7828  0.4649
 7241TIP3    H143138   1.066   0.049   6.275 -1.1386  0.1055 -1.0170
 7241TIP3    H243139   1.088   0.115   6.409  1.3694 -1.2989 -0.6860
 7242TIP3   OH243140   3.215   3.730   1.090  0.4636  0.0639  0.3545
 7242TIP3    H143141   3.140   3.671   1.090 -0.2671  0.9595 -0.7032
 7242TIP3    H243142   3.246   3.730   1.181 -0.8774 -0.2281  0.8267
 7243TIP3   OH243143   3.641   3.700  14.032 -0.1443  0.1042 -0.0233
 7243TIP3    H143144   3.662   3.635  14.099  2.2357 -1.3352 -2.0089
 7243TIP3    H243145   3.638   3.783  14.080 -1.0647 -1.1437  2.2299
 7244TIP3   OH243146   5.888   2.741   1.634  0.3953  0.1507  0.5532
 7244TIP3    H143147   5.805   2.694   1.624 -0.8796  2.5013 -0.6696
 7244TIP3    H243148   5.914   2.763   1.545  1.7104  0.5471  1.0088
 7245TIP3   OH243149   3.003   0.249  16.725 -0.1426 -0.4851 -0.3561
 7245TIP3    H143150   3.063   0.258  16.798  1.6404 -0.4350 -1.7498
 7245TIP3    H243151   3.023   0.163  16.688 -2.4504 -1.4213  0.3768
 7246TIP3   OH243152   1.767   4.079   5.947 -0.1426  0.0685  0.3699
 7246TIP3    H143153   1.834   4.019   5.913 -1.3764  0.0259 -2.2285
 7246TIP3    H243154   1.714   4.026   6.005 -0.3148 -0.9926 -0.7201
 7247TIP3   OH243155   2.941   5.429  11.797 -0.7273  0.5445  0.5357
 7247TIP3    H143156   2.859   5.417  11.846 -0.1349 -0.6751  1.2739
 7247TIP3    H243157   2.995   5.483  11.854 -0.0015 -0.9541  1.3112
 7248TIP3   OH243158   0.081   5.998   3.990 -0.6680 -0.2304 -0.5008
 7248TIP3    H143159  -0.003   5.953   4.000 -0.6524 -0.6251 -1.9300
 7248TIP3    H243160   0.066   6.085   4.028 -2.0959  0.1046 -1.7104
 7249TIP3   OH243161   4.801   2.005  11.614  0.0405  0.1822  0.7481
 7249TIP3    H143162   4.828   2.097  11.620 -0.8189  0.3785  2.1177
 7249TIP3    H243163   4.724   2.006  11.558 -1.2085  0.6438  2.3777
 7250TIP3   OH243164   4.575   6.104   1.006 -0.4944 -0.0532 -0.1124
 7250TIP3    H143165   4.483   6.088   1.026 -0.8470  1.0052 -0.8458
 7250TIP3    H243166   4.580   6.198   0.989  0.3957 -0.3528 -1.6978
 7251TIP3   OH243167   5.813   0.189   3.938 -0.1135 -0.4388 -0.1284
 7251TIP3    H143168   5.848   0.257   3.881 -0.6395  1.4657  1.7164
 7251TIP3    H243169   5.735   0.156   3.892  0.0767  0.2743 -0.9811
 7252TIP3   OH243170   1.134   2.840   5.294  0.1457  0.3257  0.4537
 7252TIP3    H143171   1.092   2.924   5.272  0.9095  1.0448  1.6157
 7252TIP3    H243172   1.228   2.860   5.293  0.3900 -0.7963 -0.2962
 7253TIP3   OH243173   5.385   4.287  16.667  0.6756  0.2426  0.1405
 7253TIP3    H143174   5.358   4.287  16.575 -0.8033  3.1011  0.4742
 7253TIP3    H243175   5.460   4.347  16.669  1.0866 -0.2802  0.7307
 7254TIP3   OH243176   2.435   5.344  12.169 -0.3070 -0.2839 -0.1425
 7254TIP3    H143177   2.413   5.330  12.077 -0.8011  0.2474 -0.1043
 7254TIP3    H243178   2.381   5.281  12.217 -0.0311 -0.5779 -0.2090
 7255TIP3   OH243179   2.443   5.344   5.915 -0.0706 -0.2338  0.1430
 7255TIP3    H143180   2.356   5.383   5.918 -0.5397 -1.1757 -0.6357
 7255TIP3    H243181   2.428   5.252   5.893  1.0891 -0.5470  0.5464
 7256TIP3   OH243182   3.812   6.480  12.662 -0.0909  0.1692  0.2681
 7256TIP3    H143183   3.905   6.466  12.648 -0.0222  0.8788 -0.0190
 7256TIP3    H243184   3.807   6.562  12.712 -0.4869 -0.6979  1.7424
 7257TIP3   OH243185   0.242   3.292  13.284  0.1968 -0.8035 -0.4408
 7257TIP3    H143186   0.192   3.212  13.302  1.4935 -1.7208 -0.8013
 7257TIP3    H243187   0.333   3.263  13.279  1.0408  1.0897  1.9962
 7258TIP3   OH243188   6.212   5.825  11.388 -0.3911  0.1883 -0.3932
 7258TIP3    H143189   6.286   5.769  11.412 -1.2020 -0.1964  1.4084
 7258TIP3    H243190   6.241   5.914  11.409 -0.2467  0.0889 -0.1608
 7259TIP3   OH243191   2.801   4.341   3.497 -0.5004 -0.0221  0.2530
 7259TIP3    H143192   2.880   4.382   3.462 -0.0030 -0.2688  1.0564
 7259TIP3    H243193   2.738   4.343   3.425  0.6923 -1.0715 -0.8569
 7260TIP3   OH243194   5.434   2.991   4.905  0.6516  0.2304 -0.4044
 7260TIP3    H143195   5.412   2.980   4.997 -0.5744  1.7519 -0.4662
 7260TIP3    H243196   5.530   2.990   4.903  0.6884 -0.4672  0.7812
 7261TIP3   OH243197   6.258   0.057  14.005  0.5004 -0.9162  0.0820
 7261TIP3    H143198   6.207   0.046  14.085  0.7334 -0.0073  0.3596
 7261TIP3    H243199   6.231  -0.017  13.949 -1.4984 -0.1893  0.0271
 7262TIP3   OH243200   3.385   6.527  16.668 -0.5302 -0.1224  0.0421
 7262TIP3    H143201   3.383   6.435  16.694 -2.0338 -0.4111 -0.9523
 7262TIP3    H243202   3.457   6.532  16.604 -0.2044 -0.5184  0.3727
 7263TIP3   OH243203   3.308   1.933  12.523  0.3913 -0.3621 -0.2222
 7263TIP3    H143204   3.380   1.875  12.496 -0.0334 -0.8972 -0.2285
 7263TIP3    H243205   3.350   2.016  12.543  0.8982 -0.3921 -1.1279
 7264TIP3   OH243206   4.856   0.211   2.674  0.1207 -0.1579 -0.1332
 7264TIP3    H143207   4.839   0.148   2.744 -2.8945 -2.2044 -2.4536
 7264TIP3    H243208   4.926   0.171   2.622  1.5727  0.8265  0.9893
 7265TIP3   OH243209   3.077   0.435  11.986  0.1707 -0.3269  0.1049
 7265TIP3    H143210   3.117   0.521  11.972 -2.9834  1.3159  0.3931
 7265TIP3    H243211   3.042   0.410  11.900 -1.5384  0.1792  0.6105
 7266TIP3   OH243212   3.187   1.863   3.242 -0.0320  0.6989 -0.9899
 7266TIP3    H143213   3.225   1.775   3.239  0.0703  0.7194 -0.4532
 7266TIP3    H243214   3.095   1.849   3.218  0.1427  0.5477 -1.5806
 7267TIP3   OH243215   2.501   5.109   1.769  0.1789  0.1261  0.0403
 7267TIP3    H143216   2.420   5.124   1.817  0.4838 -0.4494  0.7671
 7267TIP3    H243217   2.502   5.175   1.700 -0.7566  0.3261  0.2154
 7268TIP3   OH243218   0.852   3.262   3.237  0.2133  0.3332  0.0003
 7268TIP3    H143219   0.888   3.271   3.148 -1.1608 -2.9644 -1.0199
 7268TIP3    H243220   0.914   3.205   3.282 -0.2736  0.1434  0.4301
 7269TIP3   OH243221   3.960   3.309   5.162  0.2018  0.7800  0.0379
 7269TIP3    H143222   4.046   3.328   5.123 -0.3594  0.9098 -1.1667
 7269TIP3    H243223   3.917   3.253   5.098 -1.5044  2.5680 -0.4612
 7270TIP3   OH243224   1.196   4.574  12.036  0.3209  0.2751  0.1242
 7270TIP3    H143225   1.152   4.507  12.087  2.3733  0.1066  1.8059
 7270TIP3    H243226   1.270   4.601  12.090  2.4507  0.3590 -2.6052
 7271TIP3   OH243227   5.381   6.197  11.403 -0.2048  0.2616 -0.0332
 7271TIP3    H143228   5.466   6.179  11.442  0.8198 -1.3650 -2.7378
 7271TIP3    H243229   5.364   6.122  11.346 -2.5940  1.4096 -1.0001
 7272TIP3   OH243230   4.434   4.596  15.179  0.7594 -0.5673 -0.2813
 7272TIP3    H143231   4.382   4.619  15.256  1.6933  0.7902 -0.0133
 7272TIP3    H243232   4.375   4.613  15.105  0.1488 -1.0359  0.0895
 7273TIP3   OH243233   1.836   1.564   3.032 -0.1024  0.1538  0.6751
 7273TIP3    H143234   1.898   1.547   3.102 -0.1340 -0.4623  0.5670
 7273TIP3    H243235   1.888   1.599   2.960  0.0545  0.0400  0.7334
 7274TIP3   OH243236   0.261   2.919  13.995 -0.0967 -0.1956  0.2201
 7274TIP3    H143237   0.317   2.851  13.959  0.9139  0.1276  1.1090
 7274TIP3    H243238   0.235   2.886  14.081 -4.2923 -1.9575 -1.4702
 7275TIP3   OH243239   3.946   0.024  13.530  0.2832  0.3115 -0.1227
 7275TIP3    H143240   3.917  -0.058  13.571 -0.2229  0.1137 -0.8394
 7275TIP3    H243241   3.986   0.074  13.600  1.5405 -0.9819  0.1489
 7276TIP3   OH243242   3.517   6.785   2.750 -0.0568 -0.2532 -0.3511
 7276TIP3    H143243   3.537   6.703   2.704  1.9117 -0.4131  0.6720
 7276TIP3    H243244   3.469   6.757   2.829 -0.5413 -0.2858 -0.6544
 7277TIP3   OH243245   4.677   1.576   3.497  0.2030  0.0442  0.4236
 7277TIP3    H143246   4.730   1.498   3.512 -0.4932 -0.2485  1.4482
 7277TIP3    H243247   4.616   1.579   3.571  0.3741  1.6957  0.5382
 7278TIP3   OH243248   0.736   1.394   5.112 -0.1099 -0.8378  0.3865
 7278TIP3    H143249   0.798   1.407   5.184 -0.1061 -0.7969  0.3757
 7278TIP3    H243250   0.746   1.472   5.057 -0.0821 -0.8888  0.3186
 7279TIP3   OH243251   3.120   6.475   2.089 -0.2290 -0.0274 -0.0247
 7279TIP3    H143252   3.089   6.480   1.999  1.3336  0.3410 -0.5788
 7279TIP3    H243253   3.055   6.524   2.140 -0.6793  0.5056 -1.0779
 7280TIP3   OH243254   2.146   4.643   3.043 -0.2145  0.0300  0.8640
 7280TIP3    H143255   2.126   4.560   3.001  2.6130  0.4649 -1.6982
 7280TIP3    H243256   2.073   4.701   3.018  0.1492 -0.4306 -1.4799
 7281TIP3   OH243257   2.679   0.059   2.425 -0.2887  0.1359  0.3765
 7281TIP3    H143258   2.639   0.139   2.390  0.7193  0.3506 -0.3308
 7281TIP3    H243259   2.750   0.039   2.364  0.2406 -0.6200  1.2140
 7282TIP3   OH243260   6.287   2.704  13.333 -0.3714 -0.1842 -0.0584
 7282TIP3    H143261   6.248   2.765  13.396  2.6862 -0.7336  2.6286
 7282TIP3    H243262   6.299   2.623  13.382  2.1124 -0.6707 -1.2900
 7283TIP3   OH243263   3.649   1.918  11.744 -0.4304 -0.1205 -0.4503
 7283TIP3    H143264   3.653   2.013  11.748  1.8345 -0.2048  2.3303
 7283TIP3    H243265   3.587   1.893  11.811 -0.3864 -0.6261 -0.5913
 7284TIP3   OH243266   5.097   0.774  12.608 -0.1020 -0.2559 -0.2016
 7284TIP3    H143267   5.177   0.809  12.646  0.1854 -1.9392  0.7988
 7284TIP3    H243268   5.053   0.729  12.680 -1.5083 -0.1329 -0.9442
 7285TIP3   OH243269   1.834   2.619  11.828  0.0044  0.1687 -0.0453
 7285TIP3    H143270   1.741   2.619  11.803  0.3450  1.1858 -1.4371
 7285TIP3    H243271   1.851   2.708  11.858  0.7617  0.2625 -0.7333
 7286TIP3   OH243272   2.818   2.957   0.712  0.2917  0.4646 -0.3496
 7286TIP3    H143273   2.872   2.877   0.707  0.8596  0.6657  1.8293
 7286TIP3    H243274   2.819   2.981   0.804 -1.5532  1.8827 -0.6505
 7287TIP3   OH243275   4.545   5.421   4.595  0.0308 -0.1800  0.2272
 7287TIP3    H143276   4.594   5.351   4.550 -1.3624 -2.1919  1.6513
 7287TIP3    H243277   4.583   5.424   4.683  0.4835  1.3296 -0.0043
 7288TIP3   OH243278   0.785   0.158   3.561  0.1219 -0.3558 -0.5762
 7288TIP3    H143279   0.792   0.075   3.607  0.6504  0.1570  0.2992
 7288TIP3    H243280   0.871   0.169   3.519  1.1220  1.0513  1.6456
 7289TIP3   OH243281   6.460   1.625  16.663  0.4255 -0.1604  0.0153
 7289TIP3    H143282   6.459   1.715  16.630  3.0626  0.5101  1.4890
 7289TIP3    H243283   6.521   1.627  16.736  0.9058 -3.2528 -0.1603
 7290TIP3   OH243284   0.709   0.975  14.904  0.2245 -0.0972 -0.1717
 7290TIP3    H143285   0.624   1.010  14.877 -0.5681 -0.9495  1.0779
 7290TIP3    H243286   0.703   0.881  14.885  1.6383  0.0973 -1.8311
 7291TIP3   OH243287   3.599   0.808  17.095  0.3461  0.3057 -0.2206
 7291TIP3    H143288   3.510   0.773  17.093  0.5346 -0.1756 -0.5173
 7291TIP3    H243289   3.645   0.750  17.157  0.5899  0.2028 -0.4977
 7292TIP3   OH243290   0.179   1.017   2.618 -0.0511  0.6511 -1.2223
 7292TIP3    H143291   0.244   1.001   2.687 -0.3104  1.9499 -0.6500
 7292TIP3    H243292   0.098   0.981   2.654  0.2420 -0.6073 -1.7693
 7293TIP3   OH243293   2.823   3.906  14.367  0.1928  0.4042 -0.1651
 7293TIP3    H143294   2.781   3.939  14.288 -0.4531  0.9579  0.4024
 7293TIP3    H243295   2.911   3.945  14.365 -0.1800  1.2599 -0.0752
 7294TIP3   OH243296   1.333   0.014  11.934 -0.0848  0.3823  0.0552
 7294TIP3    H143297   1.267   0.064  11.982  1.9044  2.2249  1.0075
 7294TIP3    H243298   1.337   0.055  11.848  1.1091  1.5481  0.6324
 7295TIP3   OH243299   2.268   3.504   0.709  0.0359 -0.0857 -0.3752
 7295TIP3    H143300   2.336   3.523   0.644  0.1552 -1.0070 -0.5311
 7295TIP3    H243301   2.317   3.480   0.788 -0.1074  0.1235 -0.2240
 7296TIP3   OH243302   2.364   5.025   2.041  0.5418  0.7171 -0.4470
 7296TIP3    H143303   2.372   4.986   2.128  0.5302  0.6883 -0.4590
 7296TIP3    H243304   2.318   5.108   2.056  0.4090  0.6434 -0.4438
 7297TIP3   OH243305   4.633   2.592   3.007  0.0670  0.0475  0.3053
 7297TIP3    H143306   4.541   2.618   3.003 -0.0728 -0.4942 -0.1553
 7297TIP3    H243307   4.634   2.517   3.068  0.0733 -0.4557 -0.3049
 7298TIP3   OH243308   1.752   6.070  15.189 -0.1442 -0.6324 -0.2279
 7298TIP3    H143309   1.725   6.040  15.276  0.0241  0.1109  0.0894
 7298TIP3    H243310   1.823   6.012  15.165 -2.2713 -2.9982 -1.3131
 7299TIP3   OH243311   6.213   6.597  11.204 -0.0468 -0.0761 -0.5966
 7299TIP3    H143312   6.132   6.588  11.154  0.2604 -0.7016 -0.9908
 7299TIP3    H243313   6.272   6.645  11.145  0.7918 -2.0373 -1.4335
 7300TIP3   OH243314   0.277   2.179  15.758 -0.0113  0.2827 -0.0437
 7300TIP3    H143315   0.245   2.239  15.691  0.3299  1.0059  0.4414
 7300TIP3    H243316   0.371   2.192  15.760 -0.1036  0.8737  1.1473
 7301TIP3   OH243317   5.115   6.195  14.961 -0.4063 -0.3305 -0.6381
 7301TIP3    H143318   5.111   6.237  15.047  0.4910 -0.1376 -0.6816
 7301TIP3    H243319   5.208   6.192  14.939 -0.6383 -0.0902 -1.7448
 7302TIP3   OH243320   1.789   0.275  10.317  0.7051 -0.0997  0.1685
 7302TIP3    H143321   1.783   0.236  10.404 -3.1396 -0.3705 -0.0299
 7302TIP3    H243322   1.786   0.200  10.257 -1.6930  0.1986 -0.1628
 7303TIP3   OH243323   5.784   2.960   3.437  0.1221 -0.2544  0.0445
 7303TIP3    H143324   5.831   2.905   3.500 -2.4749 -0.3483  2.0724
 7303TIP3    H243325   5.771   2.904   3.360 -0.5642 -1.7651  1.2219
 7304TIP3   OH243326   2.882   0.540   3.804  0.3554 -0.4378  0.2919
 7304TIP3    H143327   2.805   0.577   3.762  0.3598 -1.1658 -0.3921
 7304TIP3    H243328   2.943   0.613   3.814 -0.8433  0.4045  1.9073
 7305TIP3   OH243329   0.530   6.681  16.846  0.3397  0.5005  0.0908
 7305TIP3    H143330   0.455   6.699  16.789  1.3236 -0.2212 -1.5093
 7305TIP3    H243331   0.606   6.703  16.792  1.3459 -1.2525  0.7167
 7306TIP3   OH243332   5.608   4.837  13.503  0.4485 -0.4457  0.2607
 7306TIP3    H143333   5.692   4.871  13.533  1.7082 -2.2295 -1.0507
 7306TIP3    H243334   5.560   4.818  13.584  2.0047 -1.0021  1.1081
 7307TIP3   OH243335   4.887   0.777  13.379 -0.1973  0.4457 -0.5749
 7307TIP3    H143336   4.869   0.708  13.315 -2.3870 -0.8824  1.3150
 7307TIP3    H243337   4.847   0.855  13.343 -1.5258 -0.3161 -0.7978
 7308TIP3   OH243338   5.152   3.576  15.355 -0.3205  0.2703  0.3358
 7308TIP3    H143339   5.092   3.505  15.329 -0.3335 -0.2047  1.6087
 7308TIP3    H243340   5.116   3.609  15.437  1.6791 -0.6768  1.6519
 7309TIP3   OH243341   3.612   2.581   1.873 -0.0236  0.3954 -0.2585
 7309TIP3    H143342   3.578   2.506   1.823 -1.1280 -0.4729  1.6740
 7309TIP3    H243343   3.680   2.544   1.928  0.3776  1.0958 -0.2753
 7310TIP3   OH243344   0.499   2.466   3.818  0.1395  0.1984 -0.0973
 7310TIP3    H143345   0.487   2.429   3.905  0.8986 -0.8695 -0.4299
 7310TIP3    H243346   0.594   2.462   3.803  0.0259  0.4386 -0.9451
 7311TIP3   OH243347   2.498   6.090  16.606  0.4980  0.6324  0.1432
 7311TIP3    H143348   2.485   6.168  16.552  0.1640 -0.6773 -1.7912
 7311TIP3    H243349   2.410   6.061  16.629  0.6286  0.9906  1.1596
 7312TIP3   OH243350   3.715   2.442  16.353 -0.5071 -0.1794  0.1113
 7312TIP3    H143351   3.728   2.407  16.264 -3.6749  2.0809 -1.4281
 7312TIP3    H243352   3.752   2.530  16.349 -2.8908  0.8868  0.1285
 7313TIP3   OH243353   1.526   5.673   5.874 -0.1465  0.1830  0.1196
 7313TIP3    H143354   1.547   5.686   5.967 -2.3814 -1.8305  1.0029
 7313TIP3    H243355   1.430   5.676   5.870 -0.1104  0.2699 -2.1689
 7314TIP3   OH243356   3.102   3.565   0.201  0.4982 -0.1802 -0.1374
 7314TIP3    H143357   3.006   3.556   0.200  0.3891  0.4778 -2.0684
 7314TIP3    H243358   3.132   3.506   0.269 -1.3509  0.3114  1.1666
 7315TIP3   OH243359   5.431   4.088   3.233 -0.1732 -0.0239 -0.5291
 7315TIP3    H143360   5.459   4.133   3.313  2.1127 -0.6062 -0.9611
 7315TIP3    H243361   5.383   4.012   3.264 -0.8247  0.6810  0.2450
 7316TIP3   OH243362   0.935   1.884   3.059  0.6579 -0.1910 -0.2096
 7316TIP3    H143363   0.932   1.803   3.111  0.2853 -0.3277 -0.4399
 7316TIP3    H243364   0.990   1.943   3.110  0.0839 -0.2361  0.4747
 7317TIP3   OH243365   5.589   6.437   4.406  0.3912  0.6210  0.4964
 7317TIP3    H143366   5.615   6.477   4.489  0.7677  0.1092  0.6229
 7317TIP3    H243367   5.642   6.483   4.340 -1.2983  2.4255  0.2808
 7318TIP3   OH243368   5.688   6.516  15.001  0.1906  0.8587  0.1082
 7318TIP3    H143369   5.669   6.607  15.022  0.9354  1.2478 -0.8434
 7318TIP3    H243370   5.762   6.520  14.941 -0.4306 -0.3163 -0.7898
 7319TIP3   OH243371   0.448   0.563   5.425  0.1770 -0.2538  0.1232
 7319TIP3    H143372   0.475   0.595   5.339 -1.7125  0.5526 -0.2213
 7319TIP3    H243373   0.451   0.468   5.418  0.3444 -0.1918 -0.7335
 7320TIP3   OH243374   2.198   0.047   2.886  0.7211  0.1962 -0.0762
 7320TIP3    H143375   2.218   0.071   2.977 -0.5949  0.7298  0.0912
 7320TIP3    H243376   2.283   0.021   2.850  1.3031  0.1305  1.2510
 7321TIP3   OH243377   2.485   0.258  16.308  0.0826 -0.3867 -0.3002
 7321TIP3    H143378   2.422   0.197  16.347  0.2645 -0.5260 -0.2222
 7321TIP3    H243379   2.482   0.335  16.366  0.6683 -0.7630  0.2449
 7322TIP3   OH243380   0.589   4.472  11.129 -0.1979  0.4701 -0.1690
 7322TIP3    H143381   0.509   4.443  11.172  0.7388  0.4091  1.6855
 7322TIP3    H243382   0.590   4.567  11.142  0.0588  0.4578 -0.0875
 7323TIP3   OH243383   1.307   4.769   5.125  0.6286  0.7924 -0.2492
 7323TIP3    H143384   1.256   4.745   5.048  0.7135 -0.5550  0.0974
 7323TIP3    H243385   1.289   4.701   5.189  2.1701  0.7611  0.1968
 7324TIP3   OH243386   0.144   1.744   2.900  0.4239 -0.4533  0.0119
 7324TIP3    H143387   0.225   1.792   2.879 -0.0797 -0.3747 -1.9498
 7324TIP3    H243388   0.075   1.795   2.858 -0.1687 -2.7097 -1.9262
 7325TIP3   OH243389   5.673   3.750  12.901  0.5175 -0.7857 -0.6194
 7325TIP3    H143390   5.630   3.777  12.820  1.6988 -1.1389 -1.3928
 7325TIP3    H243391   5.755   3.709  12.872  0.1775 -2.4629  0.6671
 7326TIP3   OH243392   5.545   0.922   6.815  0.0774  0.1989  0.0506
 7326TIP3    H143393   5.565   0.921   6.721  0.2455  1.1789  0.0697
 7326TIP3    H243394   5.504   0.837   6.831  0.9550 -0.3900 -0.7089
 7327TIP3   OH243395   2.208   4.678  15.209  0.0580 -0.1248 -0.8117
 7327TIP3    H143396   2.132   4.646  15.160  0.5590  0.6389 -2.1484
 7327TIP3    H243397   2.278   4.682  15.144  1.1211 -0.3634  0.2920
 7328TIP3   OH243398   0.706   1.102  14.645 -0.1383 -0.0234  0.0307
 7328TIP3    H143399   0.733   1.040  14.713  1.0160 -2.2982 -2.3159
 7328TIP3    H243400   0.763   1.178  14.658  3.7712 -2.4438 -1.3028
 7329TIP3   OH243401   5.585   3.775   0.556  0.6321 -0.3886  0.3645
 7329TIP3    H143402   5.605   3.715   0.628 -2.0782 -0.8846  0.8030
 7329TIP3    H243403   5.536   3.722   0.493  0.4386  0.7309 -0.4626
 7330TIP3   OH243404   3.166   2.948  11.742 -0.1798 -0.4464  0.2024
 7330TIP3    H143405   3.249   2.977  11.779  0.0638  0.4697 -0.9974
 7330TIP3    H243406   3.172   2.852  11.742  1.5572 -0.3845 -1.2990
 7331TIP3   OH243407   4.322   4.473   1.512 -0.5995 -0.1357 -0.0688
 7331TIP3    H143408   4.325   4.568   1.502  0.4272 -0.1123  0.3026
 7331TIP3    H243409   4.364   4.457   1.596  2.6144 -1.1159 -1.6784
 7332TIP3   OH243410   3.749   3.083   3.015  0.5743  0.5199 -0.0904
 7332TIP3    H143411   3.703   3.019   3.069  2.0228 -0.8122 -0.3556
 7332TIP3    H243412   3.708   3.076   2.929  1.0908 -0.5181 -0.2747
 7333TIP3   OH243413   5.484   4.749   0.073  0.0227 -0.2089 -0.0653
 7333TIP3    H143414   5.511   4.830   0.115  0.1243  0.5366 -1.4987
 7333TIP3    H243415   5.555   4.688   0.092  0.3236  0.2658  0.3686
 7334TIP3   OH243416   1.405   5.895   4.371 -0.1354  0.1196 -0.8508
 7334TIP3    H143417   1.335   5.884   4.435  1.3142  2.4302  1.3020
 7334TIP3    H243418   1.379   5.971   4.319 -0.4078 -0.6060 -1.8109
 7335TIP3   OH243419   2.454   2.226  11.699  0.1412  0.5723  0.3437
 7335TIP3    H143420   2.526   2.223  11.762 -0.3503 -0.9470  0.8636
 7335TIP3    H243421   2.393   2.290  11.736 -0.2426 -0.4505  1.5558
 7336TIP3   OH243422   3.577   1.239   1.231 -0.0580 -0.4030  0.2030
 7336TIP3    H143423   3.583   1.311   1.168 -1.3210 -0.9222 -0.5357
 7336TIP3    H243424   3.644   1.259   1.296 -0.0847  1.2117 -0.2258
 7337TIP3   OH243425   0.161   1.818  14.893 -0.2649  0.2162 -0.3827
 7337TIP3    H143426   0.068   1.797  14.902 -0.2877  0.4421 -0.0852
 7337TIP3    H243427   0.204   1.766  14.962 -0.0754 -0.5226 -1.0453
 7338TIP3   OH243428   2.590   3.943   5.541  0.8282 -0.2835 -0.3688
 7338TIP3    H143429   2.641   3.887   5.600  0.5027 -1.1629 -0.9136
 7338TIP3    H243430   2.503   3.903   5.539 -0.3773  1.9622  1.6499
 7339TIP3   OH243431   4.831   0.663  16.627 -0.2715  1.0003  0.1895
 7339TIP3    H143432   4.856   0.754  16.641  1.4950  0.9058 -1.8436
 7339TIP3    H243433   4.749   0.653  16.674 -0.0044  3.3631  1.2784
 7340TIP3   OH243434   1.002   2.313   1.919  0.6137  0.2625  0.1170
 7340TIP3    H143435   0.938   2.316   1.990  0.4493  0.5388 -0.0404
 7340TIP3    H243436   0.963   2.257   1.853 -0.2449  1.7737 -0.7159
 7341TIP3   OH243437   1.194   2.881  12.708  0.2189 -0.0548 -0.4814
 7341TIP3    H143438   1.283   2.916  12.695 -1.1070  3.0963 -2.0219
 7341TIP3    H243439   1.149   2.900  12.626 -1.6860 -2.5559 -0.1336
 7342TIP3   OH243440   4.584   0.776  12.054  0.1748  0.0932  0.0583
 7342TIP3    H143441   4.659   0.808  12.105  0.1393  0.6547 -0.2335
 7342TIP3    H243442   4.508   0.791  12.110  0.2775 -0.4865  0.3590
 7343TIP3   OH243443   3.161   5.717  16.408  0.3127  0.5347  0.0989
 7343TIP3    H143444   3.229   5.766  16.455 -1.2721  2.5571  0.3821
 7343TIP3    H243445   3.081   5.732  16.458 -0.8385  0.2501 -1.5765
 7344TIP3   OH243446   4.289   3.747   4.043 -0.4644  0.2079 -0.0660
 7344TIP3    H143447   4.266   3.771   3.953 -1.9614 -0.0565  0.2292
 7344TIP3    H243448   4.382   3.769   4.050 -0.6689  1.5834 -1.2323
 7345TIP3   OH243449   5.168   1.270  12.245 -0.2741 -0.7156  0.3198
 7345TIP3    H143450   5.259   1.241  12.246 -0.1980 -0.5652 -0.9377
 7345TIP3    H243451   5.133   1.241  12.329  2.1007  3.0390  2.8933
 7346TIP3   OH243452   3.302   2.448  16.172 -0.5150 -0.0031 -0.9922
 7346TIP3    H143453   3.303   2.500  16.092  1.0389  3.4628  1.0300
 7346TIP3    H243454   3.374   2.386  16.161 -0.7555 -0.0610 -2.5088
 7347TIP3   OH243455   6.222   6.498   4.177 -0.1730  0.4365 -0.3204
 7347TIP3    H143456   6.309   6.459   4.167  0.4706  1.8002 -0.2627
 7347TIP3    H243457   6.212   6.553   4.099 -2.0351 -1.5672 -1.5903
 7348TIP3   OH243458   2.600   0.020   3.004  0.4500  0.0422  0.6749
 7348TIP3    H143459   2.586  -0.071   2.979  0.8310 -0.1749  1.2249
 7348TIP3    H243460   2.696   0.030   3.007  0.5099  1.1903 -1.9394
 7349TIP3   OH243461   4.707   5.141   2.035  0.3700  0.2626 -0.1918
 7349TIP3    H143462   4.662   5.202   2.094 -1.7790  0.8276 -2.2595
 7349TIP3    H243463   4.640   5.077   2.011  2.0082 -1.6915  0.2044
 7350TIP3   OH243464   2.203   5.539   1.217  0.4184  0.0222 -0.1400
 7350TIP3    H143465   2.209   5.469   1.151 -2.6384 -0.4541 -0.0522
 7350TIP3    H243466   2.239   5.616   1.173 -1.5060 -0.2785 -2.4506
 7351TIP3   OH243467   3.178   0.701  16.306 -0.2932 -0.1747 -0.0147
 7351TIP3    H143468   3.271   0.679  16.318 -0.6017 -0.6500  1.8935
 7351TIP3    H243469   3.179   0.786  16.261  1.0690 -0.1495  0.0113
 7352TIP3   OH243470   5.721   4.114   1.359 -0.5821 -0.4060 -0.0164
 7352TIP3    H143471   5.643   4.062   1.378 -0.8798 -0.2339 -0.7489
 7352TIP3    H243472   5.691   4.205   1.363 -0.4121 -0.3388 -0.2456
 7353TIP3   OH243473   4.385   0.648   0.607  0.2061 -0.5274 -0.5309
 7353TIP3    H143474   4.333   0.728   0.613  2.1967  0.7942  0.1270
 7353TIP3    H243475   4.433   0.644   0.690  1.5741 -1.3436 -1.3131
 7354TIP3   OH243476   0.107   0.850  12.593 -0.6519 -0.1989 -0.0476
 7354TIP3    H143477   0.111   0.791  12.518 -2.5192  0.0765 -0.4152
 7354TIP3    H243478   0.129   0.936  12.557 -0.0199 -0.3200  0.0474
 7355TIP3   OH243479   1.568   5.764  17.189  0.1589 -0.5091  0.0804
 7355TIP3    H143480   1.507   5.777  17.262  0.2913 -0.1123  0.1232
 7355TIP3    H243481   1.612   5.849  17.180 -0.0625 -0.4696 -0.6440
 7356TIP3   OH243482   3.886   6.705  12.316 -0.2210 -0.2702 -1.2137
 7356TIP3    H143483   3.853   6.782  12.362 -0.2063 -0.7976 -0.2948
 7356TIP3    H243484   3.981   6.711  12.325 -0.1833 -0.0211 -1.7650
 7357TIP3   OH243485   4.600   0.650   3.020 -0.2591  1.0938  0.6063
 7357TIP3    H143486   4.532   0.656   2.952 -0.3094  0.7095  0.6215
 7357TIP3    H243487   4.673   0.699   2.984  0.0055  0.2194 -0.0868
 7358TIP3   OH243488   0.618   0.301  16.038 -0.0353  0.8645 -0.1302
 7358TIP3    H143489   0.605   0.246  16.115  0.0321  1.3422  0.2293
 7358TIP3    H243490   0.585   0.387  16.065 -0.8303  0.8239 -0.9302
 7359TIP3   OH243491   4.227   2.743  15.050  0.2294  0.2392  0.2196
 7359TIP3    H143492   4.280   2.733  14.972  1.1099  0.2835  0.7964
 7359TIP3    H243493   4.275   2.696  15.118 -0.4873  0.2520  0.7500
 7360TIP3   OH243494   0.071   6.617  14.965 -0.6721 -0.0677  0.3787
 7360TIP3    H143495   0.089   6.657  14.880 -0.2857 -0.8387  0.0928
 7360TIP3    H243496   0.144   6.645  15.020  0.1562 -1.1902 -0.1061
 7361TIP3   OH243497   1.549   1.667  16.206  0.2430 -0.2605 -0.0414
 7361TIP3    H143498   1.541   1.760  16.223 -1.4330 -0.1216 -1.3217
 7361TIP3    H243499   1.570   1.628  16.291  0.4500  1.2135  0.6006
 7362TIP3   OH243500   1.711   3.046   6.388 -0.0568  0.4909 -0.0284
 7362TIP3    H143501   1.665   2.963   6.399 -0.0017  0.5750  0.8842
 7362TIP3    H243502   1.803   3.021   6.383 -0.1174  0.4016 -0.9843
 7363TIP3   OH243503   0.289   4.152   2.138  0.6848  0.0360  0.5705
 7363TIP3    H143504   0.195   4.151   2.122  0.9778  0.2537 -1.4319
 7363TIP3    H243505   0.314   4.244   2.133  1.1867 -0.1341 -0.2055
 7364TIP3   OH243506   1.948   6.262  15.238 -0.5336  0.3465  0.0277
 7364TIP3    H143507   1.982   6.213  15.313  0.3985  0.8854 -0.0343
 7364TIP3    H243508   1.864   6.220  15.219  0.1229 -1.0654  0.1404
 7365TIP3   OH243509   0.832   1.634  11.122  0.4558  0.4479 -0.2140
 7365TIP3    H143510   0.761   1.690  11.090 -1.2897 -2.0082 -1.0217
 7365TIP3    H243511   0.873   1.599  11.043  1.1212  0.1628  0.2500
 7366TIP3   OH243512   3.900   0.101  11.622 -0.8233 -0.5527 -0.8539
 7366TIP3    H143513   3.987   0.109  11.660 -1.0898  1.5224 -0.5434
 7366TIP3    H243514   3.875   0.010  11.637 -0.0817 -0.3588  2.0987
 7367TIP3   OH243515   4.781   3.651  14.176  0.5653 -0.3294 -0.3657
 7367TIP3    H143516   4.782   3.700  14.093 -0.9070 -1.8955 -1.3683
 7367TIP3    H243517   4.870   3.616  14.183  1.9504  3.0541  0.8297
 7368TIP3   OH243518   0.556   0.169   6.405  0.3495 -0.6155 -0.4790
 7368TIP3    H143519   0.515   0.234   6.346  0.7987 -1.0896 -1.3338
 7368TIP3    H243520   0.525   0.085   6.372  0.2606 -0.8769  0.2528
 7369TIP3   OH243521   1.334   5.046   5.162 -0.2547 -0.2976  0.5373
 7369TIP3    H143522   1.418   5.021   5.202  0.4749  1.6034  0.2734
 7369TIP3    H243523   1.300   4.964   5.125  0.4256 -1.5433  2.5102
 7370TIP3   OH243524   6.001   4.362   2.141 -0.5447  0.0474 -0.1452
 7370TIP3    H143525   6.050   4.343   2.221 -0.1521 -0.1256 -0.4245
 7370TIP3    H243526   6.040   4.442   2.107 -0.6514  0.0696 -0.2151
 7371TIP3   OH243527   3.830   5.804  12.005  0.0161 -0.1313  0.5546
 7371TIP3    H143528   3.739   5.833  12.000 -0.8660 -2.6236  0.7879
 7371TIP3    H243529   3.852   5.808  12.098 -0.4357 -1.0394  0.7156
 7372TIP3   OH243530   5.914   6.158  11.543  0.0984  0.0411 -0.2837
 7372TIP3    H143531   5.860   6.168  11.465 -1.0166 -0.7543  0.3579
 7372TIP3    H243532   5.967   6.081  11.526  1.1297  0.8761 -0.9530
 7373TIP3   OH243533   5.939   4.056  12.418  0.2361  0.3322 -0.0924
 7373TIP3    H143534   5.937   4.051  12.514  2.7373 -0.2723 -0.0089
 7373TIP3    H243535   5.851   4.087  12.394 -0.6180  0.0249  2.3429
 7374TIP3   OH243536   6.246   2.412   0.443 -0.1611  0.2275 -0.0572
 7374TIP3    H143537   6.198   2.344   0.491 -1.8490  0.5489 -1.1957
 7374TIP3    H243538   6.226   2.493   0.489 -0.8565  0.3776 -0.5993
 7375TIP3   OH243539   0.877   4.118   0.260  0.8968  0.0558  0.0537
 7375TIP3    H143540   0.942   4.088   0.195  1.1047  0.5136  0.0476
 7375TIP3    H243541   0.930   4.147   0.334  0.6252 -2.2815  1.2604
 7376TIP3   OH243542   2.433   1.546  15.785 -0.0368 -0.1750  0.2018
 7376TIP3    H143543   2.480   1.516  15.708  1.5384 -0.9379  1.4128
 7376TIP3    H243544   2.501   1.563  15.850 -1.3989 -0.9401  1.9020
 7377TIP3   OH243545   5.703   2.080  15.105 -0.2077 -0.2929  0.2592
 7377TIP3    H143546   5.721   2.039  15.020 -0.2103  0.2863 -0.0254
 7377TIP3    H243547   5.613   2.055  15.125 -0.4653  0.2036 -0.2730
 7378TIP3   OH243548   3.186   0.148  14.011 -0.3502 -0.2074 -0.2912
 7378TIP3    H143549   3.242   0.193  14.075  0.8408 -1.9833 -0.0117
 7378TIP3    H243550   3.102   0.139  14.055  0.6012 -1.8877  1.3272
 7379TIP3   OH243551   1.547   1.752  12.183  0.3157  0.6217 -0.3895
 7379TIP3    H143552   1.537   1.659  12.162  0.2915  0.4554  0.3262
 7379TIP3    H243553   1.459   1.781  12.209  0.6172  0.4536  0.8735
 7380TIP3   OH243554   0.438   1.404  14.639  0.2953  0.0256  0.6089
 7380TIP3    H143555   0.371   1.441  14.581 -0.4518 -0.0373  1.4126
 7380TIP3    H243556   0.485   1.342  14.584 -0.9408 -0.6467  0.2649
 7381TIP3   OH243557   3.575   3.625   1.320  0.2219 -0.5298  0.0659
 7381TIP3    H143558   3.658   3.602   1.361  1.3707  0.6273 -1.5322
 7381TIP3    H243559   3.542   3.542   1.286  1.1624 -0.8546 -0.0827
 7382TIP3   OH243560   3.531   1.899   0.618 -0.7670 -0.4076 -0.0260
 7382TIP3    H143561   3.468   1.951   0.568 -0.1350 -0.5078 -0.9470
 7382TIP3    H243562   3.562   1.833   0.557 -0.0229 -0.5810  0.5246
 7383TIP3   OH243563   4.870   2.660  14.234 -0.0099  0.0497  0.4104
 7383TIP3    H143564   4.836   2.657  14.324 -1.3018 -1.9770 -0.0716
 7383TIP3    H243565   4.792   2.647  14.179  0.7698  1.1254 -1.0247
 7384TIP3   OH243566   3.178   2.762   4.526 -0.1815  0.2024  0.8243
 7384TIP3    H143567   3.270   2.777   4.502 -0.5867  1.4883 -0.0041
 7384TIP3    H243568   3.143   2.708   4.455  0.1151 -0.9689  1.5409
 7385TIP3   OH243569   1.545   1.144  16.777  0.2702 -0.5965 -0.3100
 7385TIP3    H143570   1.461   1.164  16.735  0.2385 -2.1044 -1.0041
 7385TIP3    H243571   1.526   1.073  16.838  0.7059  0.2847  0.8911
 7386TIP3   OH243572   1.597   5.545  16.751  0.1631 -0.3068  0.0001
 7386TIP3    H143573   1.628   5.543  16.841  2.3075 -0.7301 -0.6934
 7386TIP3    H243574   1.641   5.471  16.709 -1.6131 -0.7496 -1.1594
 7387TIP3   OH243575   0.565   5.703   2.170  0.3248 -0.2224 -0.0417
 7387TIP3    H143576   0.559   5.782   2.224  0.6672  0.6448 -1.2026
 7387TIP3    H243577   0.656   5.675   2.177  0.0962 -0.8020  0.7337
 7388TIP3   OH243578   1.042   1.466  17.094 -0.0466  0.0059 -0.5066
 7388TIP3    H143579   0.959   1.427  17.066 -0.1789  0.6036 -0.9692
 7388TIP3    H243580   1.017   1.530  17.160  0.3071 -1.7431  1.4193
 7389TIP3   OH243581   5.266   4.513   2.687  0.0311  0.0354 -0.4656
 7389TIP3    H143582   5.277   4.420   2.668  1.1394  0.0999 -0.2218
 7389TIP3    H243583   5.345   4.554   2.651  0.6422  0.5732  1.3836
 7390TIP3   OH243584   3.987   5.979   5.025  0.2582 -0.3765 -0.6000
 7390TIP3    H143585   3.910   6.036   5.014  0.5292  0.4608  1.4312
 7390TIP3    H243586   3.975   5.940   5.112  0.7687 -2.4229 -1.4017
 7391TIP3   OH243587   5.067   5.093  10.271 -0.6403  0.4230 -0.4305
 7391TIP3    H143588   5.027   5.172  10.305  1.2120  1.4775 -0.5547
 7391TIP3    H243589   5.146   5.124  10.226 -0.6321 -1.3574 -1.7542
 7392TIP3   OH243590   4.784   1.573  16.430  0.0370  0.0604 -0.1852
 7392TIP3    H143591   4.854   1.515  16.400  1.8741  1.4133  1.3053
 7392TIP3    H243592   4.802   1.657  16.387 -0.1925  0.6423  0.8333
 7393TIP3   OH243593   3.621   5.765   5.987  0.2723  0.3234  0.0231
 7393TIP3    H143594   3.551   5.826   6.012  0.6802 -0.3212  3.2294
 7393TIP3    H243595   3.675   5.813   5.925 -2.3076  1.2619 -1.6522
 7394TIP3   OH243596   3.240   2.945  15.119 -0.2663 -0.0173 -0.1443
 7394TIP3    H143597   3.220   3.014  15.056 -0.8854 -0.3801 -0.3567
 7394TIP3    H243598   3.181   2.873  15.095 -0.2931 -0.2730  0.6615
 7395TIP3   OH243599   2.752   5.949   0.103 -0.1819 -0.0261  0.1084
 7395TIP3    H143600   2.837   5.907   0.113 -0.1036  0.4810  1.8759
 7395TIP3    H243601   2.694   5.878   0.074  0.1699 -1.1795  2.0539
 7396TIP3   OH243602   3.269   4.108  15.565  0.4435 -0.0231 -0.0194
 7396TIP3    H143603   3.272   4.187  15.619  1.0092  0.6383 -0.9853
 7396TIP3    H243604   3.310   4.040  15.620  2.4370  0.9861 -0.1444
 7397TIP3   OH243605   0.286   4.399   0.091 -0.5205 -0.1628 -0.3542
 7397TIP3    H143606   0.305   4.332   0.157  1.0373  0.0115 -0.5951
 7397TIP3    H243607   0.372   4.426   0.059 -1.1772  1.1221 -1.0999
 7398TIP3   OH243608   5.129   0.494   5.339 -0.6591  0.0151  0.3959
 7398TIP3    H143609   5.214   0.537   5.332 -1.0536  0.7088 -0.2717
 7398TIP3    H243610   5.142   0.424   5.404 -0.0045  1.1329  1.5166
 7399TIP3   OH243611   3.792   6.256   5.214 -0.2315 -0.3693 -0.3584
 7399TIP3    H143612   3.825   6.297   5.294 -0.8427  1.6637 -1.0657
 7399TIP3    H243613   3.784   6.329   5.152  2.1864 -2.0993 -2.9929
 7400TIP3   OH243614   2.189   0.930  13.053  0.0360  0.4654 -0.0449
 7400TIP3    H143615   2.123   0.931  13.122  1.0400 -2.8263  1.2077
 7400TIP3    H243616   2.269   0.961  13.095  0.3076 -0.0550 -0.1636
 7401TIP3   OH243617   6.609   6.370   4.773 -0.5276  0.0805 -1.0542
 7401TIP3    H143618   6.656   6.409   4.699  0.0764 -0.5280 -0.9960
 7401TIP3    H243619   6.518   6.365   4.743 -0.4445  0.6213 -1.4270
 7402TIP3   OH243620   6.032   5.272  13.156 -0.4482 -0.3043 -0.1181
 7402TIP3    H143621   6.033   5.318  13.072 -0.5445  0.7539  0.4427
 7402TIP3    H243622   6.124   5.256  13.176 -0.3613  0.4716  0.1181
 7403TIP3   OH243623   6.151   3.279  14.992  0.3505 -0.1477  0.1212
 7403TIP3    H143624   6.059   3.259  15.005  0.4077  0.6260  1.8959
 7403TIP3    H243625   6.196   3.195  15.000 -0.1976 -0.5838 -1.1074
 7404TIP3   OH243626   6.440   2.014  11.668 -0.2428  0.2411 -0.1625
 7404TIP3    H143627   6.352   2.048  11.648 -0.3087 -0.5908 -1.3823
 7404TIP3    H243628   6.498   2.059  11.607  0.1897  0.6985  0.5619
 7405TIP3   OH243629   0.177   3.629   2.796  0.4907 -0.2795 -0.2216
 7405TIP3    H143630   0.218   3.716   2.790  0.6158 -0.3848 -0.9518
 7405TIP3    H243631   0.097   3.645   2.846  0.0251  0.4455 -1.1633
 7406TIP3   OH243632   5.895   3.577  12.483  0.6237 -0.1219 -0.2789
 7406TIP3    H143633   5.855   3.648  12.532  0.2088 -0.3411 -0.2959
 7406TIP3    H243634   5.897   3.608  12.392 -1.4832 -0.9361 -0.6569
 7407TIP3   OH243635   1.312   2.682   4.664 -0.1929 -0.3907 -0.0774
 7407TIP3    H143636   1.367   2.694   4.742 -0.3601  0.6907 -0.1027
 7407TIP3    H243637   1.242   2.747   4.674  0.2710  0.3845 -1.5450
 7408TIP3   OH243638   0.194   0.377  16.924  0.2232 -0.1302 -0.2465
 7408TIP3    H143639   0.142   0.415  16.853  0.5595 -0.8799 -0.8980
 7408TIP3    H243640   0.234   0.453  16.967 -1.0439  0.4372  0.0067
 7409TIP3   OH243641   2.523   2.257   5.424 -0.4222 -0.1211 -0.1155
 7409TIP3    H143642   2.504   2.350   5.417 -1.5336 -0.3242  0.0994
 7409TIP3    H243643   2.461   2.224   5.489  2.2316 -0.3676  2.5328
 7410TIP3   OH243644   5.575   5.655   2.076  0.2041  0.2365  0.1233
 7410TIP3    H143645   5.545   5.725   2.018  1.0531  0.1595 -0.4367
 7410TIP3    H243646   5.669   5.648   2.057  0.9870  1.6099  2.9845
 7411TIP3   OH243647   0.323   5.122   0.280  0.1269  0.1060  0.5102
 7411TIP3    H143648   0.267   5.069   0.337 -2.5001  2.1703  0.0209
 7411TIP3    H243649   0.263   5.163   0.218  2.4729  0.7469 -1.5201
 7412TIP3   OH243650   3.103   4.506  11.272 -0.0353 -0.0730 -0.4633
 7412TIP3    H143651   3.133   4.569  11.206  1.5872  1.1221  1.3061
 7412TIP3    H243652   3.184   4.470  11.310 -0.8010  0.7593  2.1915
 7413TIP3   OH243653   5.348   2.311   2.127 -0.2341 -0.4930 -0.2566
 7413TIP3    H143654   5.294   2.234   2.108 -0.1318 -0.9338  1.1087
 7413TIP3    H243655   5.384   2.336   2.043 -1.8477 -0.7363 -1.0578
 7414TIP3   OH243656   6.281   0.680  13.174  0.5725  0.2947 -0.1940
 7414TIP3    H143657   6.305   0.592  13.147  2.6726  0.6939  0.2362
 7414TIP3    H243658   6.355   0.711  13.226 -1.7404  0.8705  3.0493
 7415TIP3   OH243659   3.145   0.688  11.911 -0.4183 -0.0570 -0.0985
 7415TIP3    H143660   3.165   0.663  11.820 -1.6691 -0.5019 -0.2733
 7415TIP3    H243661   3.179   0.777  11.919  0.7288 -0.4259 -0.6396
 7416TIP3   OH243662   5.860   1.116  17.046 -0.0449 -0.4002  0.2769
 7416TIP3    H143663   5.869   1.021  17.037 -0.7695 -0.6981  2.1599
 7416TIP3    H243664   5.780   1.137  16.998  0.6498 -0.5481 -1.0053
 7417TIP3   OH243665   3.678   5.017  17.100  0.5715  0.0898 -0.9232
 7417TIP3    H143666   3.625   5.047  17.174 -1.6642  0.1575 -2.4496
 7417TIP3    H243667   3.696   4.925  17.119 -0.4279 -0.0359 -0.5463
 7418TIP3   OH243668   0.184   1.522  11.601 -0.5042  0.3768  0.0856
 7418TIP3    H143669   0.189   1.428  11.622  0.6493  0.5979  0.8940
 7418TIP3    H243670   0.099   1.532  11.558 -0.0322 -1.3072 -1.3991
 7419TIP3   OH243671   4.566   0.428  13.477 -0.7454  0.3108  1.1013
 7419TIP3    H143672   4.531   0.365  13.540  0.7938 -0.0822  1.5979
 7419TIP3    H243673   4.660   0.429  13.493 -0.6705  2.4360  0.8236
 7420TIP3   OH243674   2.096   6.762  17.066  0.0029  0.3113 -0.3758
 7420TIP3    H143675   2.129   6.852  17.069  0.0013  0.3173 -0.5749
 7420TIP3    H243676   2.173   6.709  17.046 -0.1312  0.3382 -0.9780
 7421TIP3   OH243677   4.319   1.403   3.165 -0.3872 -0.2264 -0.6019
 7421TIP3    H143678   4.313   1.357   3.249 -0.6291  0.7497 -0.0751
 7421TIP3    H243679   4.233   1.443   3.152  0.2777  1.3961 -0.2609
 7422TIP3   OH243680   5.938   4.000  14.389  0.4412  0.6170  0.1232
 7422TIP3    H143681   5.859   4.022  14.439 -0.6964  1.3208 -1.8834
 7422TIP3    H243682   5.938   3.905  14.382 -0.4502  0.6373 -0.1854
 7423TIP3   OH243683   0.607   6.734   3.117  0.3367  0.0588 -0.0665
 7423TIP3    H143684   0.666   6.734   3.192 -0.0543  1.9939  0.3007
 7423TIP3    H243685   0.636   6.809   3.064 -0.6882 -0.0256 -0.7761
 7424TIP3   OH243686   5.845   0.729  12.359  0.0017 -0.1300  0.2069
 7424TIP3    H143687   5.871   0.814  12.394 -0.8087  0.8701 -1.4959
 7424TIP3    H243688   5.808   0.748  12.273  0.2154 -2.2684 -0.4293
 7425TIP3   OH243689   5.209   5.595   2.622  0.3382 -0.2942  0.0381
 7425TIP3    H143690   5.118   5.590   2.650  0.6219 -0.4514  0.9647
 7425TIP3    H243691   5.207   5.574   2.528 -0.8028  1.7154 -0.4220
 7426TIP3   OH243692   2.173   0.358  15.860  0.5035 -0.5758 -0.2638
 7426TIP3    H143693   2.169   0.358  15.956  0.4865 -0.1952 -0.2594
 7426TIP3    H243694   2.193   0.268  15.836 -1.6512 -1.1694 -0.0142
 7427TIP3   OH243695   0.661   3.926  16.185 -0.5601 -0.0961  0.2747
 7427TIP3    H143696   0.606   4.004  16.190 -2.0190 -1.0737  0.1169
 7427TIP3    H243697   0.701   3.920  16.271 -0.2748  0.9226  0.2310
 7428TIP3   OH243698   3.948   4.428  15.239  0.0046 -0.4605 -0.1954
 7428TIP3    H143699   3.863   4.473  15.239  0.8744  1.3534 -2.1490
 7428TIP3    H243700   3.970   4.419  15.332 -1.2383  1.2084  0.3246
 7429TIP3   OH243701   5.997   0.315  13.286  0.0614 -0.1250  0.1954
 7429TIP3    H143702   5.920   0.259  13.292 -0.5952  0.6958 -0.3280
 7429TIP3    H243703   5.977   0.391  13.340  1.5870 -1.0471  2.1922
 7430TIP3   OH243704   5.368   5.455   4.888  0.3742  0.6208 -0.3360
 7430TIP3    H143705   5.427   5.525   4.915 -0.2998  1.2574 -0.4956
 7430TIP3    H243706   5.304   5.498   4.832  0.8902 -0.4100 -1.7673
 7431TIP3   OH243707   2.356   3.676  12.596 -0.1731 -0.1204 -0.3856
 7431TIP3    H143708   2.312   3.593  12.613  0.5871 -0.7235 -1.2666
 7431TIP3    H243709   2.417   3.657  12.524  0.5794  1.0056 -0.0720
 7432TIP3   OH243710   6.249   3.028  11.174 -0.0773  0.1152 -0.5538
 7432TIP3    H143711   6.192   3.103  11.154  1.4166  1.1790 -0.9763
 7432TIP3    H243712   6.338   3.061  11.161  0.6271 -1.7718 -0.8482
 7433TIP3   OH243713   1.099   1.399   5.800 -0.3640  0.0391  0.6007
 7433TIP3    H143714   1.099   1.477   5.856  0.8854 -0.5882  1.5256
 7433TIP3    H243715   1.073   1.431   5.714  1.6211  1.7820  0.5661
 7434TIP3   OH243716   4.945   5.137   2.194  0.1678  0.1832 -0.2417
 7434TIP3    H143717   4.991   5.215   2.164 -1.0626  1.2935  0.6612
 7434TIP3    H243718   4.860   5.141   2.151  0.1754 -0.7831 -0.3623
 7435TIP3   OH243719   2.024   5.462   2.343  0.2599  0.2112 -0.6819
 7435TIP3    H143720   1.980   5.377   2.343 -0.3659  0.5104  0.4581
 7435TIP3    H243721   1.957   5.524   2.315 -0.0451  0.6470  0.9088
 7436TIP3   OH243722   3.368   3.791   5.655  0.2161  0.3248  0.6606
 7436TIP3    H143723   3.340   3.869   5.608 -0.6446 -0.6552 -0.5054
 7436TIP3    H243724   3.292   3.733   5.652  1.1684 -0.9526  0.6207
 7437TIP3   OH243725   6.249   5.455   2.716 -0.2637  0.0797 -0.7950
 7437TIP3    H143726   6.330   5.462   2.665 -0.4436 -0.2730 -1.1375
 7437TIP3    H243727   6.213   5.370   2.692 -1.1451  0.5692 -1.2598
 7438TIP3   OH243728   2.791   6.628  13.354  0.2495  0.8313  0.8503
 7438TIP3    H143729   2.800   6.595  13.443  0.0039 -0.9502  0.2716
 7438TIP3    H243730   2.710   6.589  13.322 -0.5819  2.8162  0.3739
 7439TIP3   OH243731   1.360   0.525  16.767  0.3652  0.5157 -0.1735
 7439TIP3    H143732   1.379   0.556  16.856 -2.0740 -0.9047  0.9155
 7439TIP3    H243733   1.400   0.438  16.763 -0.7673 -0.0286  0.0752
 7440TIP3   OH243734   5.653   6.731   5.337 -0.1324  0.5717  0.0248
 7440TIP3    H143735   5.599   6.654   5.353 -0.7064  0.0473 -3.5939
 7440TIP3    H243736   5.742   6.698   5.331 -0.4356 -0.0393 -2.0731
 7441TIP3   OH243737   0.693   5.538  12.019  0.2218  0.2523  0.0033
 7441TIP3    H143738   0.731   5.547  12.107 -0.0153 -0.3117  0.1673
 7441TIP3    H243739   0.612   5.589  12.023  0.8722  1.3532 -0.3079
 7442TIP3   OH243740   2.825   1.325  13.799  0.4161  0.3400  0.0624
 7442TIP3    H143741   2.880   1.266  13.850  0.7587  0.3811 -0.2520
 7442TIP3    H243742   2.763   1.267  13.754  1.0033  0.1743 -0.5541
 7443TIP3   OH243743   5.407   4.308  11.855 -0.0945  0.9064 -0.0670
 7443TIP3    H143744   5.450   4.391  11.876  1.5598  0.0682  0.0720
 7443TIP3    H243745   5.389   4.313  11.762  2.1405  0.5499 -0.5709
 7444TIP3   OH243746   3.450   2.768   5.737 -0.2710 -0.5455  0.1277
 7444TIP3    H143747   3.486   2.727   5.658  0.9454  0.5283  0.0936
 7444TIP3    H243748   3.355   2.763   5.725 -0.1753 -2.7072 -0.1703
 7445TIP3   OH243749   2.465   6.644   1.124  0.3792  0.3367 -0.1756
 7445TIP3    H143750   2.505   6.558   1.119  0.8122  0.5201  0.1219
 7445TIP3    H243751   2.475   6.680   1.036 -4.0520 -1.7583 -1.8758
 7446TIP3   OH243752   4.490   6.598   0.763  0.1144 -0.1705  0.5806
 7446TIP3    H143753   4.457   6.672   0.712 -0.7329 -0.3838  0.7946
 7446TIP3    H243754   4.501   6.633   0.851  2.5156  0.4628  0.0965
 7447TIP3   OH243755   3.056   6.681   0.469 -0.4181 -0.3693  0.6009
 7447TIP3    H143756   3.035   6.772   0.490  0.0928 -0.7997  3.3694
 7447TIP3    H243757   2.971   6.636   0.467 -0.5768 -0.0736  0.6272
 7448TIP3   OH243758   2.453   3.331   3.325 -0.3393 -0.6584 -0.1641
 7448TIP3    H143759   2.511   3.363   3.256  1.2110 -1.8972  0.5085
 7448TIP3    H243760   2.498   3.353   3.407 -2.0182  0.5549  0.5037
 7449TIP3   OH243761   1.033   1.587   5.594  0.4216 -0.7989  0.0579
 7449TIP3    H143762   1.085   1.664   5.616 -1.6029  0.8923 -0.7771
 7449TIP3    H243763   0.970   1.618   5.529 -2.2804 -2.4371  1.7142
 7450TIP3   OH243764   2.512   5.442   2.995  0.3825  0.4055  0.7098
 7450TIP3    H143765   2.427   5.403   3.017 -0.3685  0.9568 -1.0812
 7450TIP3    H243766   2.491   5.518   2.942  2.0271 -0.2401 -0.9646
 7451TIP3   OH243767   0.907   0.926   6.269 -0.2862 -0.6434  0.3675
 7451TIP3    H143768   0.922   0.857   6.204 -2.1436  0.6661 -1.5710
 7451TIP3    H243769   0.840   0.890   6.327 -0.7717 -0.7100 -0.2337
 7452TIP3   OH243770   3.635   4.874   4.473 -0.1308  0.5478  0.4695
 7452TIP3    H143771   3.640   4.960   4.431  0.5682  0.0124 -0.5724
 7452TIP3    H243772   3.566   4.828   4.425  0.4502  0.0413  0.1147
 7453TIP3   OH243773   0.555   4.498   4.142  0.3088  0.2556 -0.3294
 7453TIP3    H143774   0.643   4.464   4.130  0.7494  1.3959 -0.4402
 7453TIP3    H243775   0.519   4.504   4.053 -0.7323 -2.2855 -0.1665
 7454TIP3   OH243776   3.708   1.194  13.972 -0.2119 -0.0014  0.5315
 7454TIP3    H143777   3.683   1.249  13.898  0.1125  1.0167  1.1600
 7454TIP3    H243778   3.674   1.107  13.950  2.4971 -0.5281 -2.2750
 7455TIP3   OH243779   2.695   1.476   0.644  0.2560  0.1665 -0.1749
 7455TIP3    H143780   2.614   1.454   0.689  1.4991 -0.7748  1.7445
 7455TIP3    H243781   2.755   1.502   0.714  2.0327 -0.5159 -1.3684
 7456TIP3   OH243782   3.439   0.830   1.464 -0.7065 -0.4725 -0.3615
 7456TIP3    H143783   3.412   0.740   1.481 -1.6343 -0.1024  0.2429
 7456TIP3    H243784   3.365   0.868   1.415 -2.1827  1.0403  2.7270
 7457TIP3   OH243785   3.451   6.441   1.413 -0.3478  0.0798  0.4113
 7457TIP3    H143786   3.409   6.524   1.391  0.9970  0.7971  0.4348
 7457TIP3    H243787   3.534   6.466   1.454 -0.9649 -1.2450  2.6774
 7458TIP3   OH243788   1.416   4.390  12.376 -0.6323  0.0123 -0.1080
 7458TIP3    H143789   1.486   4.336  12.340 -0.6895 -0.6411  0.7524
 7458TIP3    H243790   1.436   4.398  12.469 -1.8512 -0.4261  0.2089
 7459TIP3   OH243791   1.079   0.881  14.518 -0.0338 -1.3177  0.0507
 7459TIP3    H143792   0.996   0.893  14.471  0.1519 -1.2368 -0.2555
 7459TIP3    H243793   1.117   0.968  14.521  0.4110 -1.4847 -0.5014
 7460TIP3   OH243794   2.638   3.928  16.069  0.3361  0.9390 -0.0226
 7460TIP3    H143795   2.599   3.974  15.995  1.7063 -0.1236 -1.4819
 7460TIP3    H243796   2.719   3.977  16.087  1.5740 -0.5313 -1.2928
 7461TIP3   OH243797   2.937   2.201   1.588  0.4770  0.8404 -0.5499
 7461TIP3    H143798   2.984   2.215   1.670  1.1743  2.0505 -1.1259
 7461TIP3    H243799   3.002   2.219   1.520  0.0796 -0.7041 -1.3897
 7462TIP3   OH243800   1.250   5.366  14.706 -0.3398  0.0530 -0.0544
 7462TIP3    H143801   1.252   5.435  14.772 -0.7528  1.2313 -1.2339
 7462TIP3    H243802   1.339   5.330  14.705 -0.3397 -0.0219  1.1516
 7463TIP3   OH243803   3.042   6.111  13.050  0.2267 -0.2844 -0.0980
 7463TIP3    H143804   3.120   6.139  13.099  1.0145 -1.1212 -0.8451
 7463TIP3    H243805   3.075   6.087  12.964 -1.0048  0.2208 -0.7373
 7464TIP3   OH243806   4.630   4.700  15.023 -0.3191 -0.0632  0.1270
 7464TIP3    H143807   4.646   4.646  14.947  0.2995 -0.0326  0.2307
 7464TIP3    H243808   4.566   4.651  15.075 -1.3328  0.2596 -0.7559
 7465TIP3   OH243809   0.743   4.723  14.733  0.3308  0.0196  0.0990
 7465TIP3    H143810   0.804   4.676  14.676 -0.2066  0.0647 -0.5253
 7465TIP3    H243811   0.657   4.695  14.703  0.0252  0.6726  0.3551
 7466TIP3   OH243812   1.937   3.957  10.355  0.2995 -0.1042 -0.3945
 7466TIP3    H143813   1.968   4.026  10.295 -0.5062  0.6977  0.0803
 7466TIP3    H243814   1.848   3.939  10.326 -0.3562  0.8116  0.9887
 7467TIP3   OH243815   4.978   2.313   2.787 -0.0997  0.2017 -0.5489
 7467TIP3    H143816   5.065   2.277   2.772 -0.7739 -1.5881 -0.4493
 7467TIP3    H243817   4.982   2.402   2.752  1.5475 -0.0893 -1.1904
 7468TIP3   OH243818   1.870   6.108  10.452  0.5033 -0.0586 -0.3351
 7468TIP3    H143819   1.851   6.025  10.407 -0.4040  0.1471 -0.3562
 7468TIP3    H243820   1.785   6.137  10.485 -0.2363  3.1887 -4.2538
 7469TIP3   OH243821   6.007   2.534  10.477  0.0816 -0.5110  0.4957
 7469TIP3    H143822   6.023   2.518  10.383  1.0647  1.8112  0.1931
 7469TIP3    H243823   6.055   2.464  10.521  0.4440 -1.0613 -0.7180
 7470TIP3   OH243824   1.336   4.592   0.779  0.1707 -0.0506 -0.2946
 7470TIP3    H143825   1.382   4.642   0.847 -1.0172 -0.6348  0.9888
 7470TIP3    H243826   1.406   4.544   0.734  1.2545  2.1813 -1.1138
 7471TIP3   OH243827   2.745   6.096  12.603  0.0272  0.3314 -0.3382
 7471TIP3    H143828   2.793   6.102  12.685  1.7242  0.4198 -1.2967
 7471TIP3    H243829   2.750   6.004  12.578 -0.0410  0.4003 -0.6105
 7472TIP3   OH243830   5.455   5.439  16.716 -0.5973  0.3136 -0.5582
 7472TIP3    H143831   5.458   5.359  16.770 -0.1951  0.8183  0.1947
 7472TIP3    H243832   5.502   5.416  16.636  2.4278  0.7057  0.9693
 7473TIP3   OH243833   4.530   4.267   1.109  0.0110 -0.1036 -0.0085
 7473TIP3    H143834   4.542   4.216   1.029 -0.7622 -3.1539  1.6875
 7473TIP3    H243835   4.611   4.317   1.117  1.4082 -2.0350 -1.1536
 7474TIP3   OH243836   3.777   3.039  11.356  0.0023  0.0498 -0.7060
 7474TIP3    H143837   3.825   2.992  11.423 -0.3603 -0.6235 -0.9141
 7474TIP3    H243838   3.747   2.972  11.295  0.8490  0.6920 -1.8864
 7475TIP3   OH243839   0.611   1.991  17.099 -0.1951  0.3206 -0.3350
 7475TIP3    H143840   0.674   1.958  17.036 -0.7988 -0.9721 -0.2829
 7475TIP3    H243841   0.665   2.018  17.174  0.3259 -0.5151 -0.3944
 7476TIP3   OH243842   2.834   0.520   0.062  0.1839 -0.1985 -0.2471
 7476TIP3    H143843   2.775   0.567   0.120  1.6485  3.0628 -1.1528
 7476TIP3    H243844   2.807   0.547  -0.026  2.4443  0.8100 -0.7016
 7477TIP3   OH243845   2.659   0.643   3.699 -0.1161  0.7139 -0.5538
 7477TIP3    H143846   2.582   0.699   3.711 -1.1367 -0.3018 -2.0811
 7477TIP3    H243847   2.632   0.577   3.635  2.1787  0.5857 -1.4985
 7478TIP3   OH243848   5.984   3.399   0.283 -0.0715 -0.1138  1.0693
 7478TIP3    H143849   5.920   3.335   0.316 -0.9991 -0.0124 -0.4426
 7478TIP3    H243850   5.931   3.465   0.239  0.9925  0.8589  1.2115
 7479TIP3   OH243851   4.720   3.431  16.752  0.3890  0.6990 -0.2582
 7479TIP3    H143852   4.792   3.378  16.787 -1.7222 -0.6533  2.3800
 7479TIP3    H243853   4.655   3.433  16.822 -2.0591  2.1240 -2.3914
 7480TIP3   OH243854   1.057   6.108  16.657 -0.4103 -0.3483 -0.0497
 7480TIP3    H143855   1.013   6.178  16.610 -0.1333 -0.0485  0.1333
 7480TIP3    H243856   1.087   6.048  16.589 -1.1185 -0.5684 -0.1736
 7481TIP3   OH243857   2.856   6.351  13.523  0.2301  0.2298  0.2421
 7481TIP3    H143858   2.761   6.342  13.537  0.2417 -1.1822 -0.4705
 7481TIP3    H243859   2.868   6.330  13.431  1.3557 -0.5911  0.5637
 7482TIP3   OH243860   6.662   6.646  10.278  0.3322  0.2364 -0.6099
 7482TIP3    H143861   6.645   6.573  10.338 -0.0423 -0.0104 -1.0073
 7482TIP3    H243862   6.674   6.604  10.193  0.0745  0.6457 -0.8504
 7483TIP3   OH243863   0.926   5.984  13.099  0.0259  0.3534  0.1488
 7483TIP3    H143864   0.980   5.909  13.073 -0.1314  0.2981 -0.0237
 7483TIP3    H243865   0.954   6.005  13.188  0.4940  0.4724 -0.0229
 7484TIP3   OH243866   0.347   5.959  13.118  0.2368 -0.5988 -0.3076
 7484TIP3    H143867   0.336   6.045  13.160 -1.4438 -1.5543  1.3504
 7484TIP3    H243868   0.441   5.941  13.125  0.4775  0.7096  0.1395
 7485TIP3   OH243869   4.722   5.505   5.018  0.0151  0.2085 -0.1974
 7485TIP3    H143870   4.648   5.452   5.047  0.1340  0.3183  0.3169
 7485TIP3    H243871   4.710   5.589   5.062  0.7329  0.0488  0.3210
 7486TIP3   OH243872   5.371   3.435   4.448  0.2677 -0.4656 -0.5467
 7486TIP3    H143873   5.448   3.415   4.501  0.5957 -0.9274 -1.1911
 7486TIP3    H243874   5.306   3.369   4.472 -0.2975  0.4920  0.7081
 7487TIP3   OH243875   4.033   4.909   3.808  0.1096 -0.3038 -0.2293
 7487TIP3    H143876   4.118   4.869   3.828  0.7000  0.5229 -0.9884
 7487TIP3    H243877   4.020   4.892   3.715 -1.0379 -1.2719  0.0867
 7488TIP3   OH243878   1.761   0.278   3.048 -0.0808 -0.6584  0.2687
 7488TIP3    H143879   1.761   0.353   3.107  1.5644 -1.2608  1.0809
 7488TIP3    H243880   1.783   0.315   2.963 -0.1259 -0.1093  0.4892
 7489TIP3   OH243881   5.370   4.627  12.516  0.5271 -0.5738 -0.1893
 7489TIP3    H143882   5.370   4.676  12.599  0.8513 -1.8588  0.5901
 7489TIP3    H243883   5.449   4.658  12.471 -1.1374  2.3210 -1.4125
 7490TIP3   OH243884   6.610   4.634   0.496  0.1577  0.0041  0.0895
 7490TIP3    H143885   6.531   4.686   0.482  0.2225 -0.2051 -1.1097
 7490TIP3    H243886   6.612   4.573   0.423  1.6144  0.2403 -0.1027
 7491TIP3   OH243887   6.056   5.662  15.149  0.2060  0.5739 -0.1381
 7491TIP3    H143888   6.087   5.742  15.106  0.5561 -0.3635 -1.7209
 7491TIP3    H243889   5.987   5.692  15.209 -0.9373  1.9073 -1.9960
 7492TIP3   OH243890   5.234   5.397  15.813  0.0538  0.2090 -0.0598
 7492TIP3    H143891   5.141   5.381  15.800 -0.1497  0.3270  1.1927
 7492TIP3    H243892   5.275   5.312  15.796 -0.5551 -0.5150  1.8244
 7493TIP3   OH243893   0.305   2.515  11.350 -0.0597 -0.6489 -0.2910
 7493TIP3    H143894   0.244   2.517  11.423  0.1871 -0.2014 -0.0900
 7493TIP3    H243895   0.269   2.451  11.289 -0.3576 -0.8958  0.1451
 7494TIP3   OH243896   0.141   1.725  16.039 -0.0832  0.8503  0.3177
 7494TIP3    H143897   0.135   1.788  15.968 -1.9132 -1.4021 -1.7071
 7494TIP3    H243898   0.105   1.771  16.115 -1.6843  2.1803 -1.1492
 7495TIP3   OH243899   4.699   4.428  14.453 -0.5938 -0.1955 -0.0613
 7495TIP3    H143900   4.709   4.483  14.531 -0.1882 -0.2876 -0.0446
 7495TIP3    H243901   4.725   4.485  14.380  0.3071 -0.5129  0.0058
 7496TIP3   OH243902   5.409   2.672  10.972  0.1749  0.6682  0.6620
 7496TIP3    H143903   5.438   2.626  11.050 -0.2452  1.4458  1.2969
 7496TIP3    H243904   5.378   2.757  11.004 -1.4124  0.4398 -0.1480
 7497TIP3   OH243905   0.617   5.568   6.373 -0.2385 -0.0437  0.0072
 7497TIP3    H143906   0.582   5.486   6.407  1.1819 -1.4337 -1.6398
 7497TIP3    H243907   0.541   5.614   6.338 -0.7940 -1.9051 -1.4019
 7498TIP3   OH243908   0.425   6.423   2.834  0.4230  0.0590 -0.0531
 7498TIP3    H143909   0.380   6.508   2.837 -0.3744 -0.3366 -0.3569
 7498TIP3    H243910   0.479   6.422   2.913  1.2907  1.2977 -0.6017
 7499TIP3   OH243911   2.663   0.543  12.154 -0.4273  0.0136  0.2699
 7499TIP3    H143912   2.653   0.602  12.079 -0.9360 -0.5892 -0.1461
 7499TIP3    H243913   2.719   0.591  12.215  0.2961  0.3668 -0.6521
 7500TIP3   OH243914   6.244   2.862   6.330 -0.0376 -0.2033 -0.6314
 7500TIP3    H143915   6.181   2.899   6.393 -2.4700 -1.3348 -2.2350
 7500TIP3    H243916   6.273   2.781   6.371 -0.4041 -0.1812 -0.3164
 7501TIP3   OH243917   5.882   5.682  10.554 -0.3294  0.0388  0.2211
 7501TIP3    H143918   5.842   5.627  10.487 -0.6907 -0.2304  0.6541
 7501TIP3    H243919   5.810   5.737  10.586 -0.2631 -0.1543  0.7082
 7502TIP3   OH243920   3.621   4.712   0.206  0.4345 -0.2677  0.4038
 7502TIP3    H143921   3.689   4.649   0.230 -1.6821 -3.1372 -0.6059
 7502TIP3    H243922   3.578   4.734   0.289  0.5468 -0.9688  0.6483
 7503TIP3   OH243923   2.104   6.484  15.333 -0.0596  0.7425  0.0917
 7503TIP3    H143924   2.092   6.391  15.316  1.4598  0.2250  1.5216
 7503TIP3    H243925   2.149   6.517  15.255  0.8394 -0.0928  0.2390
 7504TIP3   OH243926   0.421   6.053  13.427  0.0567 -0.2952  0.5925
 7504TIP3    H143927   0.513   6.031  13.418  0.3368  0.9785  0.1203
 7504TIP3    H243928   0.412   6.088  13.516 -0.1106 -1.0329  0.8682
 7505TIP3   OH243929   0.987   5.485   0.807 -0.4954  0.0872  0.3643
 7505TIP3    H143930   1.030   5.569   0.819 -0.4350 -0.0263  0.9639
 7505TIP3    H243931   1.018   5.455   0.721  1.3166 -0.3748  1.1273
 7506TIP3   OH243932   3.507   5.090  14.524  0.2333  0.5178  0.2055
 7506TIP3    H143933   3.562   5.089  14.602  0.0860  1.2572  0.3253
 7506TIP3    H243934   3.549   5.028  14.465  0.3186 -0.0804  0.8860
 7507TIP3   OH243935   2.302   2.567  13.654  0.5000 -0.1635 -0.3573
 7507TIP3    H143936   2.353   2.608  13.723 -0.3625 -1.3361  1.0338
 7507TIP3    H243937   2.264   2.489  13.695  2.1689 -2.4885 -2.8759
 7508TIP3   OH243938   6.012   1.387   1.154 -0.2350 -0.1601  0.1780
 7508TIP3    H143939   6.011   1.443   1.231  1.2403  0.4278 -0.1916
 7508TIP3    H243940   6.090   1.414   1.106 -0.6745 -1.0765 -1.1062
 7509TIP3   OH243941   1.143   4.823  15.693  0.1405  0.3547 -0.7512
 7509TIP3    H143942   1.083   4.804  15.765  2.6063 -3.1697  0.6679
 7509TIP3    H243943   1.203   4.889  15.729  0.0889  0.1875 -0.3517
 7510TIP3   OH243944   2.634   6.698  14.998  0.2005  0.5001  0.4704
 7510TIP3    H143945   2.680   6.692  14.914 -0.0202  0.2723  0.3622
 7510TIP3    H243946   2.548   6.733  14.975  0.4800  1.3854  0.7307
 7511TIP3   OH243947   0.260   3.011   1.573 -0.1494  0.5288  0.6321
 7511TIP3    H143948   0.181   3.044   1.616 -0.0597 -1.4822  2.5200
 7511TIP3    H243949   0.320   2.992   1.646  1.3161  0.1189 -0.6329
 7512TIP3   OH243950   0.120   3.987  11.755  0.9410 -0.6999  0.3610
 7512TIP3    H143951   0.178   4.050  11.711 -1.6582  0.9553 -0.9658
 7512TIP3    H243952   0.141   3.903  11.714  1.5270  0.0807 -1.0050
 7513TIP3   OH243953   6.624   6.365   1.256  0.0313 -0.4482  1.0518
 7513TIP3    H143954   6.644   6.305   1.184 -0.4709 -1.5786  1.8251
 7513TIP3    H243955   6.536   6.340   1.284 -0.6818  1.4245  0.6666
 7514TIP3   OH243956   1.284   2.270  13.463 -0.3467 -0.2276  0.4772
 7514TIP3    H143957   1.262   2.342  13.404  0.2985  0.1705  0.7069
 7514TIP3    H243958   1.370   2.294  13.498 -0.5346 -0.6654  1.2533
 7515TIP3   OH243959   2.512   5.060   2.439 -0.1030 -0.3912  0.3674
 7515TIP3    H143960   2.520   5.096   2.527 -0.2762  2.2140 -0.5891
 7515TIP3    H243961   2.592   5.009   2.426 -0.3198 -1.2793  2.1664
 7516TIP3   OH243962   5.496   2.236  13.886  0.9637  0.1467  0.4058
 7516TIP3    H143963   5.528   2.322  13.911 -1.3630  0.1729  3.9815
 7516TIP3    H243964   5.446   2.250  13.806  1.1900  1.9412  0.5532
 7517TIP3   OH243965   3.168   5.273  14.695 -0.2389 -0.8998 -0.0962
 7517TIP3    H143966   3.224   5.309  14.627  1.0765 -2.1056  0.2889
 7517TIP3    H243967   3.124   5.198  14.653 -0.7170 -0.6282 -0.0862
 7518TIP3   OH243968   0.646   5.552  11.682 -0.2405  0.1402 -0.5509
 7518TIP3    H143969   0.615   5.587  11.599 -0.0819  0.5207 -0.4539
 7518TIP3    H243970   0.655   5.629  11.739 -0.0824 -0.0822 -0.2697
 7519TIP3   OH243971   5.860   5.576  12.454  0.1797 -0.3674 -0.5940
 7519TIP3    H143972   5.871   5.646  12.390  0.0383 -1.3954 -1.7761
 7519TIP3    H243973   5.946   5.533  12.457  0.5863  0.4516  0.9053
 7520TIP3   OH243974   2.204   0.358   0.200 -0.2267  0.4926 -0.4369
 7520TIP3    H143975   2.121   0.388   0.162  0.1885 -0.0505 -1.8586
 7520TIP3    H243976   2.195   0.262   0.202  0.2409  0.4509 -0.3271
 7521TIP3   OH243977   5.490   4.662  10.620 -0.5504 -0.5195 -0.0550
 7521TIP3    H143978   5.397   4.654  10.639 -0.6135 -1.7502 -0.8191
 7521TIP3    H243979   5.512   4.752  10.644 -1.6823 -0.5561  1.1853
 7522TIP3   OH243980   4.358   3.037  11.178 -0.4977  0.2885  0.1132
 7522TIP3    H143981   4.376   3.010  11.089  0.3494 -0.6068  0.5444
 7522TIP3    H243982   4.332   3.129  11.170  3.0209  1.3599 -0.7361
 7523TIP3   OH243983   4.220   3.285  11.348  0.0573  0.2429  0.2012
 7523TIP3    H143984   4.159   3.292  11.421 -0.4968 -0.4164 -0.1865
 7523TIP3    H243985   4.258   3.373  11.340 -1.0098  0.7245  0.2969
 7524TIP3   OH243986   5.342   0.610  10.954 -0.5580 -0.0849 -0.2092
 7524TIP3    H143987   5.247   0.624  10.954 -0.7163 -1.0773 -0.5976
 7524TIP3    H243988   5.377   0.683  10.904 -0.7666  2.2301  2.7519
 7525TIP3   OH243989   3.661   0.713  16.103 -0.3586  0.5348 -0.2164
 7525TIP3    H143990   3.739   0.747  16.148 -0.8552 -0.3530  1.3604
 7525TIP3    H243991   3.695   0.681  16.019  0.6216  2.0397 -0.4385
 7526TIP3   OH243992   0.278   4.662  16.321 -0.8472  0.1053  0.3733
 7526TIP3    H143993   0.256   4.574  16.352 -2.2035  0.1340 -0.4325
 7526TIP3    H243994   0.218   4.720  16.368 -1.7287  0.3207 -0.9720
 7527TIP3   OH243995   1.108   3.750  11.637  0.2956  0.4011 -0.6919
 7527TIP3    H143996   1.113   3.758  11.542  1.6620  0.2964 -0.6526
 7527TIP3    H243997   1.075   3.834  11.667 -1.7951 -0.1217 -1.3372
 7528TIP3   OH243998   6.085   5.192   2.941  0.2209 -0.3076  0.4176
 7528TIP3    H143999   6.065   5.101   2.964 -1.3100  0.4920  2.5647
 7528TIP3    H244000   6.017   5.215   2.877 -1.1845  0.1192  2.0003
 7529TIP3   OH244001   1.666   6.183  16.190 -0.2137 -0.4975 -0.2613
 7529TIP3    H144002   1.598   6.168  16.123 -0.7646 -0.0086  0.1735
 7529TIP3    H244003   1.707   6.265  16.163 -0.9975  0.1411  0.4454
 7530TIP3   OH244004   0.697   2.467  13.438  0.0213 -0.1847  0.4470
 7530TIP3    H144005   0.774   2.411  13.446  0.4430  0.5378  1.9260
 7530TIP3    H244006   0.623   2.407  13.436  0.3433 -0.8614  3.5368
 7531TIP3   OH244007   5.907   0.226  11.799  0.3406 -0.3738 -1.3156
 7531TIP3    H144008   5.956   0.144  11.796 -0.0487 -0.6085 -1.3289
 7531TIP3    H244009   5.886   0.239  11.891  1.2596  0.2332 -1.1730
 7532TIP3   OH244010   0.839   6.056   0.945 -0.4111  0.0408 -0.5548
 7532TIP3    H144011   0.841   6.066   1.041 -0.1917  1.0901 -0.6492
 7532TIP3    H244012   0.810   5.966   0.930  1.8666 -0.9515  0.5341
 7533TIP3   OH244013   1.438   3.323   0.420 -0.3541 -0.0182  0.2770
 7533TIP3    H144014   1.362   3.379   0.437  0.7227  1.5415  0.1906
 7533TIP3    H244015   1.514   3.378   0.441  0.7731 -1.3354 -0.1696
 7534TIP3   OH244016   2.366   4.467   0.910 -0.1084  0.2775 -0.1318
 7534TIP3    H144017   2.273   4.486   0.922 -0.0972 -0.0497  0.5026
 7534TIP3    H244018   2.369   4.419   0.826 -1.2078 -4.0610  1.9829
 7535TIP3   OH244019   5.255   0.923  13.945 -0.5400  0.5355  0.3199
 7535TIP3    H144020   5.301   0.911  14.028  1.3969 -1.9675 -0.9957
 7535TIP3    H244021   5.202   0.844  13.934  0.3803  0.1094 -1.4605
 7536TIP3   OH244022   5.740   2.268   4.365  0.1739  0.7843  0.5259
 7536TIP3    H144023   5.748   2.363   4.354  0.3833  0.5499 -1.8614
 7536TIP3    H244024   5.693   2.257   4.448 -3.0707  3.0943 -0.8094
 7537TIP3   OH244025   0.672   0.199  16.728 -0.0605  0.0038  0.5070
 7537TIP3    H144026   0.705   0.138  16.662  0.5167  0.5045  0.3295
 7537TIP3    H244027   0.576   0.190  16.722 -0.0271  0.2364 -0.5858
 7538TIP3   OH244028   3.764   3.945   0.423  0.7032  0.3771 -0.0005
 7538TIP3    H144029   3.764   3.934   0.328 -2.1920 -2.7227  0.1517
 7538TIP3    H244030   3.685   3.996   0.441  0.0304 -0.8954  0.7865
 7539TIP3   OH244031   5.461   2.732  11.816  0.6989  0.9192  0.0329
 7539TIP3    H144032   5.482   2.641  11.836 -0.2876  0.8852  1.0230
 7539TIP3    H244033   5.530   2.783  11.859  0.1350  0.7121  1.2302
 7540TIP3   OH244034   6.636   6.488  12.157 -0.7290 -0.3609  0.3827
 7540TIP3    H144035   6.704   6.422  12.170  0.2806  0.5993  0.0706
 7540TIP3    H244036   6.675   6.552  12.098 -2.1625 -0.1512 -0.3909
 7541TIP3   OH244037   5.412   3.988   3.673 -0.4579 -0.3399  0.1859
 7541TIP3    H144038   5.327   4.019   3.641  0.2724  2.4346  0.6723
 7541TIP3    H244039   5.432   4.046   3.747  1.9411 -0.8034 -0.0314
 7542TIP3   OH244040   5.527   0.778  15.212 -0.3359  0.6302  0.1185
 7542TIP3    H144041   5.566   0.812  15.292 -1.0411 -0.2046  0.8322
 7542TIP3    H244042   5.432   0.787  15.226 -0.4721  0.0714 -0.4405
 7543TIP3   OH244043   3.374   5.280  15.804 -0.1865 -0.1774 -0.3337
 7543TIP3    H144044   3.385   5.191  15.838 -1.2907 -0.4825 -0.7287
 7543TIP3    H244045   3.389   5.271  15.710 -0.6544 -0.0183 -0.4243
 7544TIP3   OH244046   5.492   5.895   2.362 -0.5513  0.1483  0.1134
 7544TIP3    H144047   5.505   5.841   2.283 -1.2010  1.5400 -0.9906
 7544TIP3    H244048   5.510   5.836   2.434  0.3120 -1.1209 -1.0852
 7545TIP3   OH244049   6.532   4.889  15.802 -0.1288  0.2142  0.1344
 7545TIP3    H144050   6.493   4.812  15.844 -0.5553 -0.1100 -0.8233
 7545TIP3    H244051   6.457   4.936  15.765  0.2570  0.3323 -0.5091
 7546TIP3   OH244052   2.738   0.169   2.037 -0.1413  0.3154  0.4452
 7546TIP3    H144053   2.789   0.163   1.957 -2.5199  1.6280 -1.3085
 7546TIP3    H244054   2.672   0.100   2.030 -2.5461  2.5140 -0.5763
 7547TIP3   OH244055   6.645   3.451  16.574 -0.2255 -0.0244 -0.5717
 7547TIP3    H144056   6.629   3.487  16.486 -0.0062  2.2870  0.2665
 7547TIP3    H244057   6.567   3.475  16.624  0.7671  1.0563  0.5226
 7548TIP3   OH244058   2.619   5.080   3.797  0.0376  0.1528 -0.0625
 7548TIP3    H144059   2.603   5.159   3.849 -1.3618  0.6903 -1.2369
 7548TIP3    H244060   2.687   5.106   3.735  0.6053 -0.0212  0.4755
 7549TIP3   OH244061   5.461   0.162   3.944 -0.0758  0.2866  0.1852
 7549TIP3    H144062   5.373   0.168   3.908 -0.7583 -0.0337  1.7295
 7549TIP3    H244063   5.511   0.116   3.877 -1.6013 -1.4205  0.1470
 7550TIP3   OH244064   4.045   4.494  13.816  0.4163  0.9915  0.3489
 7550TIP3    H144065   4.048   4.570  13.758  0.4693  0.3302 -0.5317
 7550TIP3    H244066   4.136   4.475  13.837  0.3780  1.4330  0.9214
 7551TIP3   OH244067   0.429   1.151  13.580 -0.5202 -0.0151 -0.2030
 7551TIP3    H144068   0.486   1.216  13.622  0.6324  0.0003 -1.6985
 7551TIP3    H244069   0.463   1.067  13.612  0.9534 -0.0465 -1.7275
 7552TIP3   OH244070   3.381   4.457   1.154  0.2070  0.1902  0.6245
 7552TIP3    H144071   3.357   4.508   1.076 -0.5432 -0.9679  0.0829
 7552TIP3    H244072   3.440   4.389   1.121  1.5414  0.9149  1.4111
 7553TIP3   OH244073   3.073   5.967  17.061  0.0313 -0.1632 -0.0348
 7553TIP3    H144074   3.053   6.061  17.068 -0.4770 -0.3848  2.2451
 7553TIP3    H244075   3.108   5.943  17.147 -0.6168 -2.2398 -0.2965
 7554TIP3   OH244076   2.948   2.787  13.953  0.1852 -0.1616 -0.1560
 7554TIP3    H144077   3.034   2.827  13.941  0.9978 -1.8501 -0.3145
 7554TIP3    H244078   2.939   2.780  14.048 -1.0297  2.4697  0.0067
 7555TIP3   OH244079   1.378   2.891   5.540  0.4203 -0.4092 -0.6040
 7555TIP3    H144080   1.380   2.909   5.446 -0.3410  2.5713 -0.1444
 7555TIP3    H244081   1.449   2.828   5.554  0.8895 -0.5257 -3.0751
 7556TIP3   OH244082   3.311   1.432  16.011 -0.1001  0.3476 -0.0701
 7556TIP3    H144083   3.317   1.398  15.923  0.6789  0.1882  0.0393
 7556TIP3    H244084   3.401   1.431  16.044 -0.3922  0.3145  0.7562
 7557TIP3   OH244085   1.487   3.182   3.174 -0.7340  0.1989 -0.1491
 7557TIP3    H144086   1.558   3.212   3.118 -1.9732  3.4826 -0.1530
 7557TIP3    H244087   1.452   3.105   3.129  1.2581 -0.0456 -1.3753
 7558TIP3   OH244088   6.409   4.413  13.983  0.0105  0.0195  0.0613
 7558TIP3    H144089   6.410   4.439  13.890  0.9820 -2.8971 -0.8602
 7558TIP3    H244090   6.335   4.353  13.990 -0.6162  0.9035  1.4645
 7559TIP3   OH244091   5.538   0.901  16.057 -0.1730  0.3956 -0.1657
 7559TIP3    H144092   5.490   0.970  16.010 -0.2706  0.4690  0.0403
 7559TIP3    H244093   5.628   0.909  16.025 -0.3455  0.0964 -0.7380
 7560TIP3   OH244094   3.176   2.112   3.143 -0.2330 -0.3647 -0.2318
 7560TIP3    H144095   3.196   2.030   3.188  2.5004 -1.3730 -2.8722
 7560TIP3    H244096   3.255   2.166   3.155 -0.7847  0.6500 -0.9911
 7561TIP3   OH244097   6.545   3.333   4.633  0.2123  0.2683  0.1723
 7561TIP3    H144098   6.495   3.296   4.561  1.2217 -3.2142  1.1084
 7561TIP3    H244099   6.597   3.403   4.592 -2.0241  1.0278 -1.6221
 7562TIP3   OH244100   0.397   4.332  10.898 -0.0391 -0.3772  0.0730
 7562TIP3    H144101   0.370   4.419  10.927  0.2509  0.0178 -0.8226
 7562TIP3    H244102   0.325   4.301  10.843 -0.7362 -1.2617  1.4227
 7563TIP3   OH244103   5.866   3.284  11.750 -0.0112  0.6826 -0.3386
 7563TIP3    H144104   5.906   3.291  11.837  0.9059  1.4394 -0.7968
 7563TIP3    H244105   5.933   3.318  11.690 -0.6312  0.1947 -1.3431
 7564TIP3   OH244106   6.129   5.201  14.353 -0.6030 -0.2632 -0.0206
 7564TIP3    H144107   6.164   5.289  14.362 -4.4984  1.3612  1.8124
 7564TIP3    H244108   6.090   5.200  14.265 -0.1245 -0.3539 -0.2338
 7565TIP3   OH244109   5.469   0.126  15.911 -0.0788  0.4294  0.4439
 7565TIP3    H144110   5.416   0.155  15.837  1.4103  2.4908  0.0939
 7565TIP3    H244111   5.426   0.164  15.987  0.4505  1.4907  0.2311
 7566TIP3   OH244112   5.158   3.714  16.168 -0.0367 -0.1629  0.0218
 7566TIP3    H144113   5.086   3.697  16.107 -0.9143  0.3592  0.8729
 7566TIP3    H244114   5.161   3.809  16.175 -0.2847 -0.2160  1.1427
 7567TIP3   OH244115   6.081   5.755  12.585  0.1671  0.3101 -0.1297
 7567TIP3    H144116   6.109   5.688  12.523 -0.7900 -1.1806  0.9759
 7567TIP3    H244117   6.056   5.829  12.531  1.7492 -0.0070 -1.3621
 7568TIP3   OH244118   1.959   3.860  13.659  0.1773  0.1106  0.1912
 7568TIP3    H144119   2.035   3.818  13.699  0.0405 -1.6216 -1.2087
 7568TIP3    H244120   1.892   3.791  13.657 -0.0351  0.2935 -2.2874
 7569TIP3   OH244121   3.410   5.117  16.552 -0.4383 -0.1311 -0.0194
 7569TIP3    H144122   3.489   5.154  16.591  0.4182 -1.4107 -0.4832
 7569TIP3    H244123   3.399   5.032  16.594 -0.6142 -0.6851 -1.1479
 7570TIP3   OH244124   6.011   2.127  13.297 -0.1566  0.4890 -0.2432
 7570TIP3    H144125   5.990   2.039  13.329  1.1611  0.2721  0.0710
 7570TIP3    H244126   5.973   2.130  13.209  4.1816 -2.4039 -2.5872
 7571TIP3   OH244127   4.912   4.958   1.511 -0.6233  0.1175  0.2622
 7571TIP3    H144128   4.881   4.918   1.430  0.0592  1.2669 -0.6131
 7571TIP3    H244129   4.865   5.042   1.516  0.3285  0.6713  0.3180
 7572TIP3   OH244130   6.332   6.410   4.838  0.2584 -0.6270 -0.0034
 7572TIP3    H144131   6.341   6.324   4.879 -2.9108 -0.5985  0.9872
 7572TIP3    H244132   6.290   6.464   4.905  0.2907  1.1196 -1.3218
 7573TIP3   OH244133   2.125   4.988   2.209 -0.1194  0.4269  0.0769
 7573TIP3    H144134   2.178   4.969   2.286  0.6768 -0.0727 -0.5633
 7573TIP3    H244135   2.156   5.074   2.180 -0.7980  0.8576  0.6132
 7574TIP3   OH244136   6.749   4.474  16.594  0.1917 -0.9549 -0.3051
 7574TIP3    H144137   6.730   4.550  16.649  2.2611 -1.8441  1.8277
 7574TIP3    H244138   6.697   4.403  16.631  0.1634 -1.1471 -0.7058
 7575TIP3   OH244139   4.889   0.448  15.583 -0.0923  0.0613  0.0379
 7575TIP3    H144140   4.927   0.518  15.531 -0.4180  0.1295 -0.1145
 7575TIP3    H244141   4.794   0.456  15.569 -0.3014  0.8821  1.6421
 7576TIP3   OH244142   4.510   6.443   3.899 -0.7067 -0.0839 -0.8650
 7576TIP3    H144143   4.577   6.375   3.903  0.2811  0.9144  0.4966
 7576TIP3    H244144   4.429   6.399   3.925 -0.1313 -0.8019 -0.2655
 7577TIP3   OH244145   1.876   3.006   2.149  0.3577 -0.8020  0.6845
 7577TIP3    H144146   1.918   2.954   2.081  0.9010  0.9351 -0.3534
 7577TIP3    H244147   1.783   2.983   2.143  0.6563 -2.0587  0.6423
 7578TIP3   OH244148   0.708   3.772   0.745  0.2517 -0.0121 -0.0869
 7578TIP3    H144149   0.759   3.769   0.664  1.2216 -2.5938  0.5210
 7578TIP3    H244150   0.733   3.693   0.792 -2.3070  0.0243  1.5283
 7579TIP3   OH244151   0.601   1.849   6.499  0.1945  0.4581 -0.5352
 7579TIP3    H144152   0.648   1.813   6.574  0.9102  1.4971 -0.4606
 7579TIP3    H244153   0.573   1.773   6.448 -0.9986 -0.3083  1.1757
 7580TIP3   OH244154   2.152   2.044  14.762  0.1701 -0.2278  0.0760
 7580TIP3    H144155   2.196   2.010  14.684 -0.5302  0.4198 -0.6325
 7580TIP3    H244156   2.218   2.039  14.831  0.8743 -0.6339 -0.5996
 7581TIP3   OH244157   3.738   5.860  15.269  0.0718  0.2885 -0.6014
 7581TIP3    H144158   3.698   5.843  15.354  0.5571  1.0956 -0.2051
 7581TIP3    H244159   3.786   5.942  15.280 -0.1068  0.5659 -1.7404
 7582TIP3   OH244160   6.686   6.302   3.824 -0.4651 -1.1661 -0.0910
 7582TIP3    H144161   6.740   6.276   3.899 -1.3927  1.2662  1.5512
 7582TIP3    H244162   6.736   6.372   3.781 -2.2940  1.4605  1.7323
 7583TIP3   OH244163   3.003   3.912  12.880 -0.0805  0.5423 -0.3397
 7583TIP3    H144164   3.078   3.958  12.843  0.3400 -0.8724 -1.3532
 7583TIP3    H244165   2.997   3.943  12.970 -0.1181  2.8829 -1.0846
 7584TIP3   OH244166   4.067   2.592  16.459 -0.5633  0.4652 -0.5024
 7584TIP3    H144167   3.982   2.624  16.428 -0.0389  0.4815 -2.0217
 7584TIP3    H244168   4.109   2.669  16.496 -1.3942  0.3469  0.7621
 7585TIP3   OH244169   0.919   3.105   2.681  0.0898  0.1781 -0.1449
 7585TIP3    H144170   0.911   3.100   2.585  0.0449 -0.1293 -0.1269
 7585TIP3    H244171   0.884   3.191   2.704  3.5881  1.9970 -0.7780
 7586TIP3   OH244172   6.056   6.468  15.136  0.1859  0.1773 -0.3480
 7586TIP3    H144173   6.137   6.452  15.185  0.2709 -0.2564 -0.6254
 7586TIP3    H244174   6.001   6.391  15.155  0.2179  0.0078 -0.9275
 7587TIP3   OH244175   0.567   3.759  15.746  0.4414 -0.2833  0.0684
 7587TIP3    H144176   0.535   3.696  15.811 -1.7248  0.6197 -0.0623
 7587TIP3    H244177   0.637   3.806  15.792 -1.4558  0.7807  2.0579
 7588TIP3   OH244178   4.309   2.731   4.114 -0.6041  0.1850 -0.1872
 7588TIP3    H144179   4.354   2.659   4.070  1.0495  2.5108 -2.6165
 7588TIP3    H244180   4.352   2.738   4.199  0.9188 -0.1943 -0.8885
 7589TIP3   OH244181   6.624   5.598   2.180 -0.2283  0.8696 -0.1298
 7589TIP3    H144182   6.662   5.510   2.177  0.3298  0.9451  2.4326
 7589TIP3    H244183   6.531   5.584   2.195 -0.4878  0.7392 -1.6930
 7590TIP3   OH244184   0.716   0.499  15.527  0.1587 -0.6631 -0.0211
 7590TIP3    H144185   0.653   0.440  15.487  1.6991 -1.5455 -1.2611
 7590TIP3    H244186   0.667   0.545  15.594 -2.2273 -0.1441 -1.9769
 7591TIP3   OH244187   5.905   5.402   5.514 -0.2642 -0.2929  0.3770
 7591TIP3    H144188   5.895   5.496   5.526 -0.6740 -0.1362 -0.9871
 7591TIP3    H244189   5.996   5.390   5.488 -0.0676 -0.3467  1.0662
 7592TIP3   OH244190   3.624   3.963  16.579 -0.1346  0.6840 -0.0698
 7592TIP3    H144191   3.619   3.887  16.637 -3.0736  0.5110 -0.3506
 7592TIP3    H244192   3.665   4.031  16.631  0.2324 -0.3787  1.0775
 7593TIP3   OH244193   3.421   0.317  11.912  0.0285 -0.5752  0.1273
 7593TIP3    H144194   3.408   0.380  11.982 -0.9609 -0.4852 -0.1275
 7593TIP3    H244195   3.478   0.361  11.849  0.4025 -0.4259  0.5705
 7594TIP3   OH244196   2.049   3.402   4.821  0.3510 -0.4073 -0.4910
 7594TIP3    H144197   2.080   3.358   4.900  0.8184  0.8472  0.0471
 7594TIP3    H244198   2.080   3.347   4.750  1.9159 -0.3682  0.1176
 7595TIP3   OH244199   2.487   1.026  15.251 -0.1821  0.0122  0.7484
 7595TIP3    H144200   2.392   1.024  15.258 -0.2515 -2.5008  0.3045
 7595TIP3    H244201   2.504   1.051  15.161 -0.5782 -2.1144  0.0286
 7596TIP3   OH244202   4.192   2.252  13.968  0.0325  0.1845  0.4994
 7596TIP3    H144203   4.203   2.347  13.962 -2.1086  0.5396  1.1427
 7596TIP3    H244204   4.241   2.217  13.894  1.4388  1.7173  0.6415
 7597TIP3   OH244205   4.063   4.434   0.083 -0.2152  0.4594 -0.2674
 7597TIP3    H144206   4.041   4.353   0.129  1.9806 -0.2206 -0.3189
 7597TIP3    H244207   4.037   4.504   0.143 -0.3841 -0.3286  0.5939
 7598TIP3   OH244208   6.216   3.502  10.668 -0.0565 -0.0906  0.3888
 7598TIP3    H144209   6.138   3.543  10.705 -0.5374  0.3883 -1.0635
 7598TIP3    H244210   6.195   3.409  10.667 -0.6337  0.0347 -0.0003
 7599TIP3   OH244211   4.782   2.527   5.501  0.0144  0.0054 -0.1053
 7599TIP3    H144212   4.742   2.570   5.577  0.0235 -1.2978  0.6609
 7599TIP3    H244213   4.868   2.499   5.532  0.1030 -0.3421 -0.6620
 7600TIP3   OH244214   6.441   0.797  16.408 -0.0832  0.0143  0.2332
 7600TIP3    H144215   6.506   0.844  16.355 -0.5712  0.2936 -0.1323
 7600TIP3    H244216   6.423   0.717  16.359  1.1063 -0.8150  1.0956
 7601TIP3   OH244217   2.823   4.121  14.746 -0.3787  0.2307 -0.3077
 7601TIP3    H144218   2.796   4.035  14.714 -1.1227  1.1454 -2.3248
 7601TIP3    H244219   2.918   4.122  14.737 -0.5573  0.5478 -3.0079
 7602TIP3   OH244220   5.225   4.879  10.622  0.1230  0.1091  0.0361
 7602TIP3    H144221   5.205   4.786  10.630 -1.3651  0.3547 -0.4708
 7602TIP3    H244222   5.259   4.889  10.534  0.2614  0.0486  0.0830
 7603TIP3   OH244223   3.324   5.978  14.200  0.2354  0.0940 -0.4464
 7603TIP3    H144224   3.274   6.058  14.218 -1.5728 -0.5609 -2.1540
 7603TIP3    H244225   3.289   5.946  14.116  2.0902 -1.5785 -0.6551
 7604TIP3   OH244226   5.055   6.142   1.841 -0.1725 -0.1075 -0.2975
 7604TIP3    H144227   5.042   6.215   1.781  1.4671 -0.6319 -1.3474
 7604TIP3    H244228   4.994   6.075   1.810  0.8219 -0.4597 -1.5606
 7605TIP3   OH244229   2.400   1.534  13.690 -0.2400 -0.0766  0.1769
 7605TIP3    H144230   2.375   1.616  13.649 -0.6605  0.2960  1.1351
 7605TIP3    H244231   2.330   1.516  13.752 -0.3978 -1.4323 -0.3749
 7606TIP3   OH244232   2.600   6.288   5.511  0.5092  0.0784  0.6864
 7606TIP3    H144233   2.544   6.221   5.470  0.7751 -1.3702  2.5731
 7606TIP3    H244234   2.584   6.279   5.605  0.6284  2.6637  1.0275
 7607TIP3   OH244235   6.731   3.562   2.455 -0.4473  0.4975 -0.1798
 7607TIP3    H144236   6.731   3.515   2.372  0.7949  1.5231 -0.7986
 7607TIP3    H244237   6.638   3.579   2.473 -0.6911  1.4266 -2.0629
 7608TIP3   OH244238   1.435   3.012   1.451 -0.0983 -0.3045 -0.5273
 7608TIP3    H144239   1.395   2.964   1.377 -1.2858 -1.2245  0.6561
 7608TIP3    H244240   1.505   2.954   1.482  0.7993  0.3525 -1.2756
 7609TIP3   OH244241   1.225   0.602  12.066  0.7172 -0.0085 -0.3742
 7609TIP3    H144242   1.276   0.522  12.064  0.2719 -0.3293  0.5434
 7609TIP3    H244243   1.142   0.577  12.106 -0.0026  0.5980 -1.4346
 7610TIP3   OH244244   5.109   4.407   3.653  0.1331 -0.5588  0.2278
 7610TIP3    H144245   5.132   4.494   3.620  0.7978 -1.5253 -2.1218
 7610TIP3    H244246   5.146   4.403   3.741  1.0794  1.1282 -0.0523
 7611TIP3   OH244247   2.722   4.890  11.459  0.6319 -0.5147 -0.5951
 7611TIP3    H144248   2.802   4.873  11.410 -0.5317 -1.3679 -2.2995
 7611TIP3    H244249   2.686   4.804  11.478 -1.0508 -0.1629 -1.9362
 7612TIP3   OH244250   6.225   4.527   0.788 -0.1278  0.2297 -0.1491
 7612TIP3    H144251   6.190   4.443   0.817  1.1506 -0.8297 -1.4730
 7612TIP3    H244252   6.174   4.548   0.710  0.1828  0.1796 -0.3687
 7613TIP3   OH244253   3.216   6.658  15.102  0.8632  0.4742  0.0213
 7613TIP3    H144254   3.301   6.652  15.057  1.3601 -0.0105  0.9763
 7613TIP3    H244255   3.178   6.571  15.092  1.0463  0.3166  0.6458
 7614TIP3   OH244256   1.981   2.098   0.102 -0.1307 -0.1045  0.3810
 7614TIP3    H144257   2.003   2.160   0.032 -1.8906 -1.2421 -1.3087
 7614TIP3    H244258   2.059   2.093   0.156  1.8564 -0.1594 -2.2904
 7615TIP3   OH244259   1.295   1.115   4.920  0.0770  0.4304 -0.3998
 7615TIP3    H144260   1.354   1.159   4.859 -0.2625 -0.0075 -1.0571
 7615TIP3    H244261   1.324   1.024   4.920  0.4238  0.5287  0.5277
 7616TIP3   OH244262   3.160   0.172   3.005 -0.2404  0.5090 -0.2831
 7616TIP3    H144263   3.107   0.250   2.986 -0.3216  0.5780  0.2184
 7616TIP3    H244264   3.215   0.197   3.079  0.8831  0.6078 -1.1320
 7617TIP3   OH244265   4.919   4.967  16.270  0.3709  0.1399 -0.1398
 7617TIP3    H144266   4.945   4.889  16.221  1.2692  1.0357 -1.1552
 7617TIP3    H244267   4.828   4.951  16.294  0.6069 -1.3239 -0.0930
 7618TIP3   OH244268   3.708   2.441  11.392  0.0467  0.0267 -0.2985
 7618TIP3    H144269   3.655   2.452  11.313  0.8640  2.7514 -0.5597
 7618TIP3    H244270   3.765   2.367  11.372 -0.3754  0.0973 -1.9066
 7619TIP3   OH244271   2.731   4.766   2.957  0.1034 -0.4289  0.3662
 7619TIP3    H144272   2.749   4.844   3.010  0.9437 -1.1867  1.2253
 7619TIP3    H244273   2.682   4.708   3.015  0.6565 -1.0964  0.1800
 7620TIP3   OH244274   2.553   4.026  13.456 -0.4637  0.6492 -0.5682
 7620TIP3    H144275   2.546   3.938  13.418  1.2387 -0.1089  0.7513
 7620TIP3    H244276   2.465   4.046  13.486 -1.2448  0.1125 -2.3341
 7621TIP3   OH244277   6.789   4.076  11.975  0.3078  0.0592  0.1603
 7621TIP3    H144278   6.841   4.047  11.900  0.8149  1.2238  0.0486
 7621TIP3    H244279   6.702   4.037  11.961  0.2982  0.5462 -1.2068
 7622TIP3   OH244280   3.184   1.135   5.543 -0.0622  0.3333  0.2228
 7622TIP3    H144281   3.177   1.228   5.524 -1.2435  0.3564  0.7227
 7622TIP3    H244282   3.276   1.114   5.526  0.1695  1.5377 -0.0784
 7623TIP3   OH244283   4.411   2.703   3.638 -0.3091 -0.7593 -0.6275
 7623TIP3    H144284   4.406   2.737   3.728  0.2143 -2.3827  0.0459
 7623TIP3    H244285   4.349   2.757   3.589  1.6474  2.2792 -0.0245
 7624TIP3   OH244286   5.620   5.178   2.069  0.2463 -0.3418  0.1234
 7624TIP3    H144287   5.614   5.093   2.025  2.3838 -0.7356  0.5007
 7624TIP3    H244288   5.664   5.235   2.006 -0.0102  0.1210  0.3580
 7625TIP3   OH244289   0.190   5.002  15.850 -0.0997 -0.2429 -0.0399
 7625TIP3    H144290   0.260   4.964  15.903  1.2461  1.5070 -0.4461
 7625TIP3    H244291   0.114   5.003  15.907  0.5503 -0.9620  0.8841
 7626TIP3   OH244292   0.680   0.692  15.980 -0.7849  0.3060  0.0798
 7626TIP3    H144293   0.675   0.700  15.885 -2.0670 -2.6471 -0.2344
 7626TIP3    H244294   0.709   0.778  16.011 -1.2199  1.6284 -2.8863
 7627TIP3   OH244295   6.059   1.368   4.317 -0.4100  0.3372  0.0726
 7627TIP3    H144296   6.039   1.276   4.337  0.2052  0.2721  0.4238
 7627TIP3    H244297   6.022   1.382   4.230 -2.2230  0.3134  0.7817
 7628TIP3   OH244298   0.826   2.545   1.881 -0.1555  0.1964  0.0127
 7628TIP3    H144299   0.805   2.508   1.967  0.7400 -2.6992 -0.8903
 7628TIP3    H244300   0.771   2.497   1.820  2.1476 -0.8483 -1.4024
 7629TIP3   OH244301   3.863   3.752   0.589  0.0139  0.2751 -0.1646
 7629TIP3    H144302   3.783   3.727   0.635 -0.3412  0.9099 -0.4361
 7629TIP3    H244303   3.836   3.818   0.526  0.3503 -1.0652 -1.8021
 7630TIP3   OH244304   1.689   4.659  16.422 -0.1099  0.1383  0.6089
 7630TIP3    H144305   1.776   4.633  16.452  0.9704  2.0129 -0.6585
 7630TIP3    H244306   1.658   4.720  16.489  0.7364  1.4987 -0.1819
 7631TIP3   OH244307   5.340   5.242   4.058 -0.0332 -0.5603  0.1572
 7631TIP3    H144308   5.398   5.251   3.982 -0.7410  0.1979 -0.3006
 7631TIP3    H244309   5.275   5.178   4.031 -0.6287  0.1426 -0.0991
 7632TIP3   OH244310   0.729   4.765  12.958  0.3394 -0.2718 -0.1628
 7632TIP3    H144311   0.816   4.776  12.997  0.5879  1.4113 -1.1076
 7632TIP3    H244312   0.741   4.697  12.892  1.2086  0.6477 -0.9868
 7633TIP3   OH244313   6.136   3.989   4.127 -0.7460 -0.5674 -0.2343
 7633TIP3    H144314   6.041   3.977   4.119 -0.8802 -2.4132  2.7302
 7633TIP3    H244315   6.172   3.901   4.122  0.5931 -0.0880  0.5252
 7634TIP3   OH244316   2.938   4.495  15.175  0.0959 -0.0611  0.6915
 7634TIP3    H144317   2.948   4.408  15.212  0.8998  0.0274  0.6834
 7634TIP3    H244318   2.969   4.555  15.243  1.4710  0.1063 -0.0422
 7635TIP3   OH244319   6.487   2.471   1.084  0.5181 -0.6206 -0.2754
 7635TIP3    H144320   6.480   2.438   1.174  2.3391 -0.5728 -0.0767
 7635TIP3    H244321   6.537   2.403   1.038  2.4442  0.8207 -0.4113
 7636TIP3   OH244322   6.775   6.782   4.303 -0.2824  0.2098 -0.3447
 7636TIP3    H144323   6.774   6.875   4.281  0.8113  0.2163 -0.4313
 7636TIP3    H244324   6.867   6.756   4.292 -0.4351 -0.6995  0.4236
 7637TIP3   OH244325   5.481   5.516  16.337  0.7997 -0.3651  0.2052
 7637TIP3    H144326   5.458   5.606  16.359  0.1296 -0.5452  0.2371
 7637TIP3    H244327   5.548   5.493  16.402  0.9270  0.0846  0.2396
 7638TIP3   OH244328   4.275   5.917   0.795  0.2339 -0.0775  0.2692
 7638TIP3    H144329   4.368   5.909   0.771  0.1527  0.1581 -0.1356
 7638TIP3    H244330   4.276   5.959   0.881  0.5946 -2.2941  1.4332
 7639TIP3   OH244331   1.705   0.450  15.630 -1.2973 -0.8193 -0.4890
 7639TIP3    H144332   1.718   0.360  15.658  2.7298 -0.4882 -0.8172
 7639TIP3    H244333   1.711   0.447  15.535  0.3967 -0.0595 -0.4280
 7640TIP3   OH244334   1.329   0.121  17.146 -0.3475 -0.6138 -0.0501
 7640TIP3    H144335   1.293   0.110  17.234 -1.3745  0.3406 -0.3281
 7640TIP3    H244336   1.382   0.199  17.151 -2.8688  1.3050 -0.9461
 7641TIP3   OH244337   2.808   2.161  14.487 -0.2336 -0.3236 -0.2614
 7641TIP3    H144338   2.813   2.089  14.424 -0.7803 -0.1486 -0.5099
 7641TIP3    H244339   2.718   2.194  14.479  0.4314  1.3728 -1.2455
 7642TIP3   OH244340   6.067   3.314  14.059  0.5457 -0.3837 -0.4508
 7642TIP3    H144341   6.011   3.257  14.112  0.1643  0.1031 -0.3270
 7642TIP3    H244342   6.121   3.360  14.123 -0.6778  1.0239 -0.3858
 7643TIP3   OH244343   0.939   1.375   3.072 -0.5214  0.2666  0.0479
 7643TIP3    H144344   0.879   1.353   3.143  0.4755 -2.2039  0.2337
 7643TIP3    H244345   1.025   1.383   3.115 -0.0436 -0.4432 -0.7455
 7644TIP3   OH244346   3.954   2.554   1.600  0.1392 -0.0358  0.0949
 7644TIP3    H144347   4.048   2.575   1.596  0.0847  0.0677 -1.5528
 7644TIP3    H244348   3.938   2.506   1.518 -1.3976  0.5715  0.0181
 7645TIP3   OH244349   1.278   2.073  17.054  0.4927  0.2142 -0.4276
 7645TIP3    H144350   1.309   2.102  16.968  1.7615  1.9940  0.5712
 7645TIP3    H244351   1.321   1.988  17.067 -2.8902 -2.2153 -3.1944
 7646TIP3   OH244352   4.717   6.719  15.856 -0.2261  0.3049  0.4247
 7646TIP3    H144353   4.687   6.689  15.769  2.3695 -1.6604  0.0936
 7646TIP3    H244354   4.765   6.799  15.838  0.4465 -0.1833 -0.0255
 7647TIP3   OH244355   6.332   2.341  13.321  0.4457 -0.3260  0.4636
 7647TIP3    H144356   6.247   2.325  13.280 -0.9230  1.7822  2.2014
 7647TIP3    H244357   6.365   2.254  13.343 -0.3270 -1.3042 -1.9100
 7648TIP3   OH244358   0.040   5.306   2.568  0.2708  0.6586  0.3518
 7648TIP3    H144359   0.031   5.314   2.473 -1.9014 -0.0081  0.4544
 7648TIP3    H244360   0.109   5.241   2.580 -1.2249 -1.2741 -0.8684
 7649TIP3   OH244361   6.512   5.273   3.915  0.4509 -0.2290 -0.3350
 7649TIP3    H144362   6.546   5.361   3.901 -0.9875  0.1447 -1.8955
 7649TIP3    H244363   6.424   5.287   3.951  0.7840 -1.0799  0.8565
 7650TIP3   OH244364   3.409   4.904   2.430  0.0234 -0.0249 -0.3329
 7650TIP3    H144365   3.503   4.890   2.418  0.0319 -1.4330  1.0333
 7650TIP3    H244366   3.402   4.951   2.513 -0.4629  0.2401 -0.5254
 7651TIP3   OH244367   2.944   6.293  14.908 -0.4007 -0.0419 -0.2068
 7651TIP3    H144368   2.915   6.248  14.988 -1.1017 -0.7421 -0.8363
 7651TIP3    H244369   2.955   6.223  14.844  3.1914  0.0721  0.0545
 7652TIP3   OH244370   4.584   6.448  11.798 -0.1473  0.3879 -1.0345
 7652TIP3    H144371   4.500   6.477  11.764 -0.2195  1.1732 -0.2411
 7652TIP3    H244372   4.595   6.498  11.879  1.1043  0.3458 -1.1569
 7653TIP3   OH244373   5.314   2.111   4.357 -0.3073  0.2348  0.4557
 7653TIP3    H144374   5.254   2.112   4.282 -1.9911 -1.5783  1.6689
 7653TIP3    H244375   5.271   2.168   4.422 -0.0731 -0.0601  0.8742
 7654TIP3   OH244376   6.183   3.468  14.810  0.2349 -0.0736 -0.2428
 7654TIP3    H144377   6.128   3.403  14.768  0.8991 -0.3449 -0.6992
 7654TIP3    H244378   6.163   3.459  14.903 -0.7218  0.0541 -0.4173
 7655TIP3   OH244379   0.622   2.334  14.259  0.1179 -0.5621  0.2286
 7655TIP3    H144380   0.669   2.408  14.220  0.2971  0.3108  1.9730
 7655TIP3    H244381   0.542   2.327  14.208 -0.2178  1.3184  0.4301
 7656TIP3   OH244382   4.270   2.184  16.208 -0.0830 -0.0252 -0.4336
 7656TIP3    H144383   4.310   2.099  16.229  0.5703  0.4048  0.1326
 7656TIP3    H244384   4.301   2.243  16.278 -1.0705  0.5210 -0.4353
 7657TIP3   OH244385   6.375   3.971   1.972  0.3694  0.1843 -0.2381
 7657TIP3    H144386   6.313   3.910   2.012 -0.6038  1.6450  0.6216
 7657TIP3    H244387   6.460   3.946   2.006 -0.3427  0.9475  2.3020
 7658TIP3   OH244388   1.399   1.301  16.229 -0.0548  0.4245  0.0096
 7658TIP3    H144389   1.494   1.306  16.220  0.0181 -0.5188  0.1675
 7658TIP3    H244390   1.372   1.392  16.245  0.8076  0.7116 -0.1047
 7659TIP3   OH244391   0.034   2.771  13.757 -0.4185  0.4212 -0.4646
 7659TIP3    H144392   0.116   2.750  13.711 -0.5167  0.1539 -0.5183
 7659TIP3    H244393   0.019   2.696  13.814 -0.2524  0.7960  0.0720
 7660TIP3   OH244394   4.036   0.776   0.767  0.1362 -0.0560  0.3614
 7660TIP3    H144395   4.114   0.831   0.758  0.4762 -0.1611  2.3064
 7660TIP3    H244396   4.016   0.748   0.678  1.0210  1.7482 -0.4527
 7661TIP3   OH244397   4.299   5.955  13.325 -0.4502  0.1817 -0.1641
 7661TIP3    H144398   4.210   5.963  13.360 -0.6909  0.8092 -0.8862
 7661TIP3    H244399   4.355   5.945  13.402 -1.0765  0.4466  0.3338
 7662TIP3   OH244400   3.465   3.107   3.103 -0.4223 -0.3180 -0.5377
 7662TIP3    H144401   3.471   3.093   3.008 -0.4631 -0.1840 -0.5590
 7662TIP3    H244402   3.437   3.198   3.113  0.2578 -0.1204 -0.3877
 7663TIP3   OH244403   2.028   1.155   5.449 -0.7195  0.0666  0.5232
 7663TIP3    H144404   2.048   1.167   5.356 -1.3998  3.6968  0.7048
 7663TIP3    H244405   1.933   1.140   5.450 -0.4753 -1.7952  0.6219
 7664TIP3   OH244406   4.066   1.254   2.241 -0.0294  0.3779 -0.2191
 7664TIP3    H144407   4.120   1.196   2.295 -1.0589 -0.7543 -0.3609
 7664TIP3    H244408   4.060   1.335   2.292 -0.7469 -0.5639  1.2872
 7665TIP3   OH244409   0.989   5.485   1.230 -0.1548  0.3326 -0.5266
 7665TIP3    H144410   1.049   5.527   1.292 -1.0898  0.7440  0.1459
 7665TIP3    H244411   0.928   5.436   1.286  0.2925 -1.1141 -1.2493
 7666TIP3   OH244412   3.958   1.876  16.711 -0.0718  0.2017  0.0254
 7666TIP3    H144413   3.954   1.969  16.732 -0.4072  0.1327  0.2727
 7666TIP3    H244414   3.869   1.844  16.726 -0.2762  0.1035 -1.3333
 7667TIP3   OH244415   0.264   6.136  16.154  0.0649 -0.1834  0.5390
 7667TIP3    H144416   0.217   6.065  16.111 -1.5790  1.3563 -0.3612
 7667TIP3    H244417   0.197   6.180  16.207  0.5355  1.8761 -0.4962
 7668TIP3   OH244418   0.605   1.983   1.282 -0.2342  0.3602  0.0828
 7668TIP3    H144419   0.586   2.035   1.204  0.7801 -1.7475 -1.6724
 7668TIP3    H244420   0.698   2.000   1.300  0.2770 -1.2308 -0.8860
 7669TIP3   OH244421   2.512   2.422  16.322  0.0434  0.5986  0.1657
 7669TIP3    H144422   2.512   2.393  16.231  1.0206  0.0375  0.3281
 7669TIP3    H244423   2.511   2.517  16.317  0.4047  0.5752 -0.4509
 7670TIP3   OH244424   1.236   2.816  12.311  0.4079 -0.3747  0.1652
 7670TIP3    H144425   1.143   2.823  12.329  0.0229 -2.2318 -0.8261
 7670TIP3    H244426   1.277   2.883  12.366 -1.6028  1.4468 -0.4511
 7671TIP3   OH244427   6.709   4.309   2.556  0.1852  0.5928 -0.3334
 7671TIP3    H144428   6.687   4.334   2.466  0.3820  0.6244 -0.3720
 7671TIP3    H244429   6.628   4.325   2.604  0.4848  1.9778 -0.2279
 7672TIP3   OH244430   5.261   3.873   5.461 -0.7403  0.3735  0.0824
 7672TIP3    H144431   5.224   3.869   5.372  0.8453  2.4036 -0.7477
 7672TIP3    H244432   5.353   3.897   5.447  0.2088 -1.6617  2.1900
 7673TIP3   OH244433   3.856   5.647   2.006 -0.8037 -0.3580 -0.0839
 7673TIP3    H144434   3.858   5.552   1.993  0.6652 -0.0539 -3.0263
 7673TIP3    H244435   3.852   5.683   1.917  0.4286  2.3407  0.8497
 7674TIP3   OH244436   0.434   4.433   3.896 -0.0123 -0.2347 -0.3492
 7674TIP3    H144437   0.395   4.496   3.836 -1.6344 -0.7467  0.1245
 7674TIP3    H244438   0.484   4.374   3.840  0.4896  0.6933 -0.9219
 7675TIP3   OH244439   4.051   5.485   2.569 -0.5432  0.2996  0.0907
 7675TIP3    H144440   4.000   5.427   2.513  1.4097 -1.9373  0.4618
 7675TIP3    H244441   4.041   5.448   2.657  0.9275  0.3338  0.3026
 7676TIP3   OH244442   5.846   1.679  10.642 -0.1263 -0.0848 -0.2987
 7676TIP3    H144443   5.840   1.650  10.551  0.7011 -2.6852  0.3788
 7676TIP3    H244444   5.930   1.724  10.648  0.4989 -1.1893 -0.5409
 7677TIP3   OH244445   1.311   6.339  14.105  0.2454  0.0880  0.4191
 7677TIP3    H144446   1.395   6.344  14.151 -0.0520 -0.7644  1.0762
 7677TIP3    H244447   1.332   6.364  14.015  1.9556 -3.5309 -0.3457
 7678TIP3   OH244448   5.942   3.983  11.936  0.3638 -0.2073 -0.3079
 7678TIP3    H144449   5.971   3.989  12.027 -0.9710 -1.8344  0.2658
 7678TIP3    H244450   5.947   4.073  11.904 -0.0443  0.5714  1.6730
 7679TIP3   OH244451   0.196   5.979   1.488 -0.4639  0.1184 -0.3608
 7679TIP3    H144452   0.181   5.919   1.561  1.1538  0.9640  0.7357
 7679TIP3    H244453   0.285   5.959   1.458  0.2023  2.0277  0.1698
 7680TIP3   OH244454   0.637   5.989  12.860 -0.0746 -0.5905  0.0367
 7680TIP3    H144455   0.730   6.011  12.846  0.1439 -1.3354  0.2710
 7680TIP3    H244456   0.638   5.935  12.940 -0.6602 -0.9613 -0.2071
 7681TIP3   OH244457   6.136   2.166  15.463 -0.1252 -0.0195 -0.0510
 7681TIP3    H144458   6.164   2.083  15.424  0.4506  0.1076  0.0685
 7681TIP3    H244459   6.209   2.191  15.520 -1.1332 -0.4304  1.4754
 7682TIP3   OH244460   3.940   2.899   1.115  0.8357  0.5468  0.3343
 7682TIP3    H144461   3.914   2.907   1.207  5.1158 -1.4641  2.0123
 7682TIP3    H244462   4.022   2.949   1.110  1.0343  0.0815 -2.2710
 7683TIP3   OH244463   5.453   2.889  14.627  0.2508  0.2235 -0.0044
 7683TIP3    H144464   5.385   2.899  14.693  1.6279 -1.3295  1.7481
 7683TIP3    H244465   5.533   2.919  14.670  0.9469  0.6361 -1.5231
 7684TIP3   OH244466   5.768   2.397  13.846  0.6005  0.1378 -0.2907
 7684TIP3    H144467   5.843   2.452  13.824  0.2214  0.8092  0.0658
 7684TIP3    H244468   5.734   2.367  13.761  1.4757 -0.4754 -0.4454
 7685TIP3   OH244469   3.946   3.928   3.369  0.2982 -0.0749 -0.2360
 7685TIP3    H144470   3.860   3.969   3.360  0.6958  0.5906 -1.1037
 7685TIP3    H244471   3.938   3.845   3.321  0.2653  0.1805 -0.6731
 7686TIP3   OH244472   2.112   5.157   6.097  1.0962  0.7629 -0.1700
 7686TIP3    H144473   2.149   5.243   6.080 -0.0378  0.8576 -2.7838
 7686TIP3    H244474   2.149   5.101   6.028 -0.1046 -0.1819 -0.0905
 7687TIP3   OH244475   6.289   5.947   5.183 -0.1712 -0.8639 -0.1852
 7687TIP3    H144476   6.356   5.879   5.187  0.0526 -0.6332  0.0722
 7687TIP3    H244477   6.338   6.029   5.170 -0.4479 -0.7690 -0.6690
 7688TIP3   OH244478   1.584   1.172  13.972 -0.2022 -0.3839 -0.0525
 7688TIP3    H144479   1.531   1.121  14.034 -0.8872  0.2015 -0.1340
 7688TIP3    H244480   1.643   1.108  13.932 -1.1761 -1.1483 -0.3046
 7689TIP3   OH244481   3.736   2.077   0.438 -0.4730  0.6133  0.0699
 7689TIP3    H144482   3.731   2.103   0.346  1.2807  2.4647  0.4173
 7689TIP3    H244483   3.661   2.018   0.451  0.7116 -1.9517 -3.1928
 7690TIP3   OH244484   0.656   2.291   1.724 -0.5546 -0.5004 -0.5734
 7690TIP3    H144485   0.601   2.333   1.790 -0.9903  1.8842 -2.3040
 7690TIP3    H244486   0.669   2.202   1.756  0.7232  0.9488  3.5732
 7691TIP3   OH244487   4.502   4.964  14.891 -0.0470  0.1063  0.0969
 7691TIP3    H144488   4.550   4.895  14.937 -2.6584 -1.4485  0.7229
 7691TIP3    H244489   4.455   4.917  14.822 -2.2462  1.1427  0.8202
 7692TIP3   OH244490   6.089   6.040  10.731  0.1873  0.1381  0.2024
 7692TIP3    H144491   6.077   6.014  10.640 -3.8159  1.5321  0.1422
 7692TIP3    H244492   6.116   5.959  10.775 -2.2088 -1.8105 -1.5688
 7693TIP3   OH244493   6.560   6.019  13.977  0.9106  0.2824  0.6918
 7693TIP3    H144494   6.538   6.111  13.992  0.2726  0.2183  0.1897
 7693TIP3    H244495   6.597   5.989  14.060  1.1335  0.9895  0.8599
 7694TIP3   OH244496   3.181   5.493  12.564 -0.6147  0.2149  0.1834
 7694TIP3    H144497   3.253   5.554  12.582 -1.1498  0.9271 -0.0876
 7694TIP3    H244498   3.117   5.511  12.633 -0.9455  0.2191 -0.1272
 7695TIP3   OH244499   5.475   6.789  13.050  0.2111 -0.0981 -0.4725
 7695TIP3    H144500   5.409   6.723  13.071  1.3426 -0.7380  1.3005
 7695TIP3    H244501   5.557   6.752  13.082  1.3332  0.9742 -1.9936
 7696TIP3   OH244502   5.469   1.747   0.692  0.4501 -0.4579  0.3270
 7696TIP3    H144503   5.424   1.670   0.726  0.1860 -0.4640 -0.0331
 7696TIP3    H244504   5.403   1.816   0.695  0.5640 -0.3460  0.2602
 7697TIP3   OH244505   1.132   5.924  16.452  0.0646  0.4979  0.0713
 7697TIP3    H144506   1.110   5.831  16.459 -0.5631  0.6710  0.4628
 7697TIP3    H244507   1.068   5.959  16.391  0.1475  0.7278  0.1156
 7698TIP3   OH244508   2.465   0.933  11.672 -0.1784 -0.1695 -0.1156
 7698TIP3    H144509   2.493   0.841  11.672 -2.0182 -0.7821  0.5166
 7698TIP3    H244510   2.375   0.930  11.639  0.3936  1.6796 -2.1237
 7699TIP3   OH244511   0.978   2.261   3.196  0.0300 -0.0657 -0.4215
 7699TIP3    H144512   1.029   2.182   3.176 -1.4027 -1.2301  0.2623
 7699TIP3    H244513   0.918   2.269   3.121  0.4707  0.6453 -0.7011
 7700TIP3   OH244514   2.479   3.372   1.980  0.2767  0.2751  0.4874
 7700TIP3    H144515   2.562   3.373   2.029 -0.2008  1.8152  1.3134
 7700TIP3    H244516   2.411   3.381   2.046 -0.6590 -1.7449 -0.0994
 7701TIP3   OH244517   6.363   6.486  12.973 -0.3766 -0.1258  0.8679
 7701TIP3    H144518   6.340   6.474  13.065 -1.1815 -0.0225  0.6858
 7701TIP3    H244519   6.281   6.512  12.931 -0.2251 -1.0940 -0.0535
 7702TIP3   OH244520   4.125   1.533   6.773  0.0447 -0.4774  0.2911
 7702TIP3    H144521   4.038   1.530   6.733 -0.2330 -1.1694  0.9238
 7702TIP3    H244522   4.130   1.620   6.812 -0.2971 -0.3704  0.1032
 7703TIP3   OH244523   2.852   0.173   4.644  0.4321  0.3423 -0.2204
 7703TIP3    H144524   2.815   0.258   4.620 -0.0930 -0.1545 -1.2175
 7703TIP3    H244525   2.777   0.123   4.677  0.7648  0.2974  0.4961
 7704TIP3   OH244526   3.328   6.340  11.609  0.2724  0.0472 -0.9947
 7704TIP3    H144527   3.302   6.257  11.650  1.3282  0.4944  0.6751
 7704TIP3    H244528   3.250   6.368  11.561 -1.4423 -0.0189  1.5504
 7705TIP3   OH244529   4.512   0.251   2.092 -0.5827  0.4780 -0.3618
 7705TIP3    H144530   4.418   0.239   2.103 -0.4056 -1.0476 -0.2641
 7705TIP3    H244531   4.532   0.330   2.143 -1.3775 -0.7771  2.0691
 7706TIP3   OH244532   1.103   1.992   1.944  0.5312 -0.3638 -0.2449
 7706TIP3    H144533   1.167   2.053   1.982 -0.1127 -0.0698  0.3864
 7706TIP3    H244534   1.132   1.982   1.853  0.9805  0.4440 -0.2089
 7707TIP3   OH244535   6.448   4.400  14.389 -0.0464 -0.0122  0.4970
 7707TIP3    H144536   6.500   4.469  14.347 -0.6814  0.1929  0.0430
 7707TIP3    H244537   6.436   4.431  14.479  0.0886  0.2318  0.4329
 7708TIP3   OH244538   2.149   6.104   2.661  0.9564 -0.2349 -0.0908
 7708TIP3    H144539   2.094   6.099   2.739 -0.8340  0.1511 -1.2539
 7708TIP3    H244540   2.110   6.042   2.600  1.1867  0.7803 -1.3182
 7709TIP3   OH244541   3.136   2.156   0.523  0.4661  0.3697  0.7002
 7709TIP3    H144542   3.043   2.135   0.531  0.4992  0.2172  0.6875
 7709TIP3    H244543   3.145   2.196   0.437  0.6427 -0.8813  0.1136
 7710TIP3   OH244544   4.835   3.818   0.346 -0.1645  0.6792  0.4127
 7710TIP3    H144545   4.912   3.864   0.380 -0.2149  0.9598  0.1598
 7710TIP3    H244546   4.828   3.739   0.399  0.2334  0.7075  0.5080
 7711TIP3   OH244547   5.761   6.146  12.483 -0.0419 -0.1992 -0.6239
 7711TIP3    H144548   5.852   6.159  12.457  0.5772 -0.7605  1.1695
 7711TIP3    H244549   5.737   6.063  12.441  1.3264 -1.7129  1.4183
 7712TIP3   OH244550   0.948   4.767   1.263  0.6257 -0.1994  0.5396
 7712TIP3    H144551   0.907   4.807   1.340  0.0664 -0.2960  0.3020
 7712TIP3    H244552   0.952   4.837   1.199  2.2574  0.2215  1.0688
 7713TIP3   OH244553   4.902   3.163   4.911 -0.2253 -0.3911  0.3948
 7713TIP3    H144554   4.808   3.154   4.896  0.0723 -2.6324 -0.4403
 7713TIP3    H244555   4.933   3.074   4.925  2.3040 -0.1724 -2.6936
 7714TIP3   OH244556   1.137   6.272   1.873  0.1162  0.6945  0.3756
 7714TIP3    H144557   1.097   6.284   1.959 -0.3643  0.0699  0.2432
 7714TIP3    H244558   1.147   6.177   1.864  0.5146  0.7778 -0.0991
 7715TIP3   OH244559   0.514   5.303   6.452 -0.4082 -0.6567 -0.2674
 7715TIP3    H144560   0.422   5.320   6.430 -0.7265 -0.4700  1.0891
 7715TIP3    H244561   0.518   5.209   6.468 -0.8072 -0.4293  1.4158
 7716TIP3   OH244562   4.641   1.283  10.769 -0.9389 -0.0372  0.2901
 7716TIP3    H144563   4.651   1.377  10.785 -1.0416 -0.1327  0.9281
 7716TIP3    H244564   4.632   1.244  10.856  2.0264 -0.9859  0.2871
 7717TIP3   OH244565   4.387   6.078  11.755 -0.0622  0.7441 -0.2582
 7717TIP3    H144566   4.387   6.160  11.704  1.5579  1.3637  0.6529
 7717TIP3    H244567   4.411   6.105  11.843 -0.4515 -0.6251  0.2889
 7718TIP3   OH244568   2.990   6.631  11.209  0.7749 -0.2577  0.5001
 7718TIP3    H144569   2.980   6.707  11.151 -1.4604 -0.2192  0.8210
 7718TIP3    H244570   2.996   6.556  11.149  0.0567 -0.0727  0.1800
 7719TIP3   OH244571   2.335   6.427   0.559  0.3502  0.6415  0.6129
 7719TIP3    H144572   2.423   6.448   0.591  0.9752 -0.2633 -0.4418
 7719TIP3    H244573   2.348   6.355   0.498 -1.2190  0.0531  0.9181
 7720TIP3   OH244574   1.011   4.854  17.111 -0.0418 -0.6729  0.1005
 7720TIP3    H144575   0.927   4.809  17.111 -0.4390  0.0511  0.3237
 7720TIP3    H244576   1.014   4.901  17.194 -0.4544  1.1620 -0.8657
 7721TIP3   OH244577   5.875   2.810   3.653  0.5105 -0.2253  0.0526
 7721TIP3    H144578   5.892   2.835   3.744 -1.5431 -0.3702  0.5305
 7721TIP3    H244579   5.923   2.728   3.641  0.8338 -0.1840  0.9919
 7722TIP3   OH244580   6.583   0.703   5.697  0.6927  0.1236  0.4611
 7722TIP3    H144581   6.525   0.666   5.763  1.0863  1.4953  1.6237
 7722TIP3    H244582   6.671   0.685   5.728  0.8891  1.4051  0.7292
 7723TIP3   OH244583   0.072   5.190  11.560  0.4539 -0.6034 -0.3228
 7723TIP3    H144584   0.129   5.116  11.538  1.0132  0.5791 -3.2919
 7723TIP3    H244585   0.103   5.261  11.504 -2.5187  0.7708 -0.3865
 7724TIP3   OH244586   3.759   0.154  11.987  0.1973 -0.3661  0.0254
 7724TIP3    H144587   3.693   0.086  11.981  1.7002 -1.8222 -0.8470
 7724TIP3    H244588   3.743   0.211  11.912 -0.5872 -0.2084  0.3111
 7725TIP3   OH244589   4.356   6.490  13.117  0.8857 -0.0768 -0.0962
 7725TIP3    H144590   4.283   6.516  13.173  1.4259  0.5062  0.3510
 7725TIP3    H244591   4.329   6.407  13.078 -0.8347  1.0373 -1.4319
 7726TIP3   OH244592   4.678   3.656   3.117  0.5302  0.3511  0.5577
 7726TIP3    H144593   4.689   3.744   3.153  0.3970 -0.4667  2.7515
 7726TIP3    H244594   4.700   3.598   3.190 -0.1175 -1.4340 -0.6127
 7727TIP3   OH244595   1.156   3.904   6.035 -0.8529 -0.4559  0.4366
 7727TIP3    H144596   1.141   3.978   5.977  0.5136  1.1596  2.0143
 7727TIP3    H244597   1.243   3.871   6.011 -1.0821 -0.9978  0.3299
 7728TIP3   OH244598   5.626   5.429  16.125  0.2227 -0.0531 -0.0849
 7728TIP3    H144599   5.566   5.414  16.053  0.6440  3.7922 -1.4862
 7728TIP3    H244600   5.573   5.474  16.191  0.7671  0.2628  0.1475
 7729TIP3   OH244601   0.767   3.695   2.842  0.1788 -0.0148 -0.7495
 7729TIP3    H144602   0.771   3.628   2.774 -4.1103 -0.9669 -0.3752
 7729TIP3    H244603   0.725   3.651   2.916  0.8896  2.0966  1.0165
 7730TIP3   OH244604   0.919   1.361  16.379  0.4269  0.0278  0.1502
 7730TIP3    H144605   0.981   1.332  16.446 -0.3623 -0.5650  0.6353
 7730TIP3    H244606   0.833   1.339  16.414 -0.0671  0.7583 -0.5548
 7731TIP3   OH244607   5.542   1.369  12.084  0.2623  0.2025 -0.1991
 7731TIP3    H144608   5.614   1.431  12.069  1.3799 -0.8073  0.8021
 7731TIP3    H244609   5.518   1.382  12.176 -0.4640  0.1240 -0.3695
 7732TIP3   OH244610   0.757   6.058   1.870  0.0398  0.6660 -0.2931
 7732TIP3    H144611   0.786   6.149   1.880 -0.2679  0.8698 -1.1556
 7732TIP3    H244612   0.664   6.060   1.892  0.1896  0.4127  0.3970
 7733TIP3   OH244613   6.305   0.354   2.323 -0.0242  0.3366 -0.9360
 7733TIP3    H144614   6.255   0.434   2.341  0.8470  0.9833 -1.2908
 7733TIP3    H244615   6.364   0.346   2.398 -0.0815  0.0532 -0.9221
 7734TIP3   OH244616   5.850   6.429  16.325  0.5882 -0.1182  0.3085
 7734TIP3    H144617   5.880   6.500  16.268  0.3000  1.1487  1.6520
 7734TIP3    H244618   5.767   6.460  16.360 -0.1509 -1.6791  0.0027
 7735TIP3   OH244619   0.494   0.825  14.118 -0.2037 -0.2974  0.3810
 7735TIP3    H144620   0.463   0.864  14.036  0.0206  0.0631  0.4654
 7735TIP3    H244621   0.553   0.755  14.091  1.0522  0.7874  0.2376
 7736TIP3   OH244622   4.149   4.422   5.402  0.3213  0.0216 -0.6018
 7736TIP3    H144623   4.123   4.348   5.347  1.4345 -1.6954  1.0272
 7736TIP3    H244624   4.192   4.483   5.342 -0.2563 -0.8292 -1.9301
 7737TIP3   OH244625   1.447   4.864  17.152 -1.0106  0.6049 -0.2537
 7737TIP3    H144626   1.524   4.914  17.123  1.3541 -0.9077  2.8324
 7737TIP3    H244627   1.382   4.931  17.172 -0.1418  2.0264 -1.8044
 7738TIP3   OH244628   6.408   4.122   0.651  0.1992 -0.1024  0.4043
 7738TIP3    H144629   6.470   4.055   0.623  0.5303  0.0779  0.6886
 7738TIP3    H244630   6.421   4.194   0.590 -0.3235 -0.3840 -0.0453
 7739TIP3   OH244631   2.087   6.539   4.472 -0.5785 -0.6055 -0.2981
 7739TIP3    H144632   2.061   6.624   4.437  0.3212 -0.0014  0.4951
 7739TIP3    H244633   2.036   6.476   4.420 -2.2377  0.4520 -0.0306
 7740TIP3   OH244634   6.609   6.444  17.160 -0.2316  0.6103 -0.2752
 7740TIP3    H144635   6.549   6.519  17.159 -0.0612  0.8153  1.6720
 7740TIP3    H244636   6.664   6.459  17.237  1.8843  0.0676 -1.5876
 7741TIP3   OH244637   3.173   3.259  16.738  0.3627 -0.5343 -0.4022
 7741TIP3    H144638   3.235   3.332  16.746 -0.2678 -0.0605  0.3005
 7741TIP3    H244639   3.210   3.204  16.669  0.8244  0.4739 -0.9813
 7742TIP3   OH244640   1.525   2.308  12.114 -0.0156 -0.2475  0.4333
 7742TIP3    H144641   1.609   2.352  12.101  0.6232 -0.9976  1.8315
 7742TIP3    H244642   1.544   2.215  12.103 -0.6975 -0.4110  0.5712
 7743TIP3   OH244643   0.003   6.372  11.527 -0.3484  0.0730  0.1533
 7743TIP3    H144644   0.042   6.434  11.589  2.3206 -2.1738  0.9130
 7743TIP3    H244645   0.059   6.377  11.449 -2.2063  1.0738 -1.1976
 7744TIP3   OH244646   6.080   5.614  13.712 -0.0021  0.0643  0.2720
 7744TIP3    H144647   6.110   5.534  13.756 -2.2530 -0.2445  1.3949
 7744TIP3    H244648   5.985   5.603  13.704 -0.1764  1.9726 -0.9499
 7745TIP3   OH244649   4.492   4.669  14.339 -0.4539 -0.4517  0.1960
 7745TIP3    H144650   4.494   4.586  14.290 -0.0935  0.2481 -0.9951
 7745TIP3    H244651   4.441   4.648  14.418 -0.0856 -1.8943  0.0827
 7746TIP3   OH244652   1.962   6.261  12.821  0.4586 -0.3485 -0.1181
 7746TIP3    H144653   1.940   6.285  12.911  0.1265 -0.9255 -0.0354
 7746TIP3    H244654   2.054   6.283  12.812  0.3655  0.1929  0.1999
 7747TIP3   OH244655   1.544   4.215   4.062  0.2702 -0.4733  0.4494
 7747TIP3    H144656   1.544   4.294   4.117  1.8431  0.5967 -0.9943
 7747TIP3    H244657   1.621   4.225   4.007 -1.0621 -1.6534 -1.7273
 7748TIP3   OH244658   3.687   3.881   3.829  0.2271  0.1414  0.3953
 7748TIP3    H144659   3.754   3.913   3.768  1.9592 -0.4685  1.9077
 7748TIP3    H244660   3.666   3.956   3.884  2.4620 -0.5153  2.3135
 7749TIP3   OH244661   0.298   1.480  13.646 -0.2020 -1.4060  0.1770
 7749TIP3    H144662   0.287   1.543  13.575  1.6183  2.3004  2.8797
 7749TIP3    H244663   0.209   1.465  13.678 -0.6550  0.4261 -0.1095
 7750TIP3   OH244664   1.960   0.871   5.928  0.1131  0.6598  0.1655
 7750TIP3    H144665   2.007   0.827   5.858 -0.5299  1.1629 -0.6044
 7750TIP3    H244666   1.983   0.964   5.918 -0.8091  0.8769 -0.0542
 7751TIP3   OH244667   1.299   0.096  16.462  0.4515 -0.4700 -0.3230
 7751TIP3    H144668   1.340   0.078  16.547 -3.5229 -1.7233  1.5993
 7751TIP3    H244669   1.254   0.015  16.440 -0.1715  0.4484 -2.7034
 7752TIP3   OH244670   6.727   1.771  15.427 -0.2424 -0.6074 -0.3665
 7752TIP3    H144671   6.712   1.818  15.344 -1.5725 -0.0749  0.1399
 7752TIP3    H244672   6.724   1.840  15.494  0.9832 -1.0165  0.1252
 7753TIP3   OH244673   4.403   4.839   3.208  0.0303 -0.5088 -0.9449
 7753TIP3    H144674   4.468   4.773   3.181 -1.2939 -1.9343 -0.8355
 7753TIP3    H244675   4.369   4.873   3.125  2.6498  2.1588 -1.0553
 7754TIP3   OH244676   1.580   2.470   2.478  0.0946  0.0394 -0.0306
 7754TIP3    H144677   1.532   2.552   2.467 -0.9953 -0.7273 -1.4729
 7754TIP3    H244678   1.651   2.491   2.538 -1.8518  1.3370  1.9798
 7755TIP3   OH244679   6.621   5.222  15.894  0.0287 -0.0030  0.5047
 7755TIP3    H144680   6.616   5.218  15.798  1.3235 -0.3263  0.4188
 7755TIP3    H244681   6.535   5.193  15.924  0.0603 -1.3042 -0.5603
 7756TIP3   OH244682   2.840   2.889   1.243  0.0582  0.1781 -0.5558
 7756TIP3    H144683   2.791   2.859   1.167 -0.3783 -0.9333  0.1427
 7756TIP3    H244684   2.799   2.844   1.317 -1.1792  3.1011  0.6938
 7757TIP3   OH244685   0.503   5.603  15.302  0.2525  0.4752 -0.1675
 7757TIP3    H144686   0.521   5.619  15.395 -0.5370  0.0582  0.0626
 7757TIP3    H244687   0.535   5.514  15.287  2.4189  1.3006 -0.8571
 7758TIP3   OH244688   1.101   4.064  11.127  0.6024 -0.0990  0.2899
 7758TIP3    H144689   1.009   4.044  11.144  0.5044 -0.7033 -0.8270
 7758TIP3    H244690   1.139   4.081  11.213 -0.0397 -2.0778  1.0168
 7759TIP3   OH244691   6.068   4.578  16.573  0.5436 -0.2565 -1.1716
 7759TIP3    H144692   6.097   4.526  16.649 -0.5789 -0.0417 -0.5763
 7759TIP3    H244693   6.149   4.604  16.530  1.2325 -0.0874  0.1567
 7760TIP3   OH244694   2.018   0.849   3.859  0.4955 -0.4848  0.9751
 7760TIP3    H144695   2.041   0.785   3.926 -0.7270 -1.5750  0.4043
 7760TIP3    H244696   2.068   0.822   3.782  0.4341 -0.3826  0.8988
 7761TIP3   OH244697   6.650   5.738   0.720  0.0574  0.0449  0.0904
 7761TIP3    H144698   6.628   5.648   0.697  0.2506  0.0620 -0.1657
 7761TIP3    H244699   6.730   5.756   0.671 -0.7247  0.8191 -0.9580
 7762TIP3   OH244700   1.540   5.800   2.022 -0.1519  0.1547  0.6444
 7762TIP3    H144701   1.560   5.803   2.116 -0.1262  0.9339  0.6197
 7762TIP3    H244702   1.626   5.795   1.980 -0.1957 -1.7761  0.6912
 7763TIP3   OH244703   5.282   4.507   4.467  0.2498 -0.5618 -0.0461
 7763TIP3    H144704   5.316   4.590   4.501 -1.4198 -0.0119  0.3808
 7763TIP3    H244705   5.320   4.500   4.379 -0.9212  1.5731 -0.8023
 7764TIP3   OH244706   4.491   0.227  14.872  0.0253 -0.3241 -0.1096
 7764TIP3    H144707   4.418   0.194  14.924  0.0425  0.5162  0.4721
 7764TIP3    H244708   4.569   0.191  14.914 -0.0080 -0.3864 -0.1030
 7765TIP3   OH244709   6.450   3.364  14.804  0.3061 -0.5080 -0.1808
 7765TIP3    H144710   6.357   3.384  14.805  0.3112 -0.4250  1.8270
 7765TIP3    H244711   6.492   3.446  14.781 -0.0151  0.1556  1.4841
 7766TIP3   OH244712   1.799   6.004  12.840  0.0932 -0.0694 -0.7482
 7766TIP3    H144713   1.851   6.030  12.764 -2.4992  2.6315 -1.7820
 7766TIP3    H244714   1.822   6.067  12.908  0.7031 -1.0732  0.0196
 7767TIP3   OH244715   5.347   0.334  16.375 -0.4346  0.2454  0.2674
 7767TIP3    H144716   5.284   0.283  16.426 -2.3353  1.8119 -0.4014
 7767TIP3    H244717   5.354   0.288  16.292 -2.2745  1.0814 -0.4003
 7768TIP3   OH244718   5.653   1.124   4.060 -0.0734 -0.1305  0.7082
 7768TIP3    H144719   5.684   1.127   3.970 -1.9397 -1.8144 -0.0669
 7768TIP3    H244720   5.588   1.195   4.065  1.0449  0.8909  1.1908
 7769TIP3   OH244721   1.193   1.664   1.935 -0.3605  0.6049  0.2255
 7769TIP3    H144722   1.241   1.608   1.874  1.8624  1.1499  1.3680
 7769TIP3    H244723   1.223   1.752   1.914 -0.2692  0.8808  1.4823
 7770TIP3   OH244724   2.110   3.441  13.872 -0.3119 -0.1985 -0.4728
 7770TIP3    H144725   2.029   3.406  13.835  0.1102  0.2448 -1.8544
 7770TIP3    H244726   2.180   3.397  13.823  0.2831 -0.0558  0.2283
 7771TIP3   OH244727   4.916   2.315  11.194 -0.1595 -0.2337  0.4989
 7771TIP3    H144728   4.843   2.254  11.198  1.0442 -1.6296  2.3094
 7771TIP3    H244729   4.977   2.276  11.132  0.0076 -0.1436  0.6065
 7772TIP3   OH244730   0.631   4.282   5.869 -0.0073 -0.2759  0.6577
 7772TIP3    H144731   0.543   4.245   5.871  0.1235 -0.5861  0.7518
 7772TIP3    H244732   0.628   4.355   5.931 -0.2959 -0.0559  0.3901
 7773TIP3   OH244733   5.232   6.687   2.513 -0.2422 -0.0807 -0.1354
 7773TIP3    H144734   5.291   6.696   2.439 -1.5328  2.5464 -0.9714
 7773TIP3    H244735   5.180   6.609   2.493  1.0438 -0.8216 -0.7242
 7774TIP3   OH244736   4.550   4.585   3.161  0.1220  0.3000  0.0058
 7774TIP3    H144737   4.642   4.569   3.183  0.3037  1.1066 -0.1557
 7774TIP3    H244738   4.502   4.568   3.242  0.5076  0.7467  0.3270
 7775TIP3   OH244739   1.211   6.752   3.318 -0.1213 -0.5673 -0.0203
 7775TIP3    H144740   1.279   6.729   3.380 -1.6016 -0.8458  1.5641
 7775TIP3    H244741   1.205   6.676   3.259  0.4699 -0.8188  0.2390
 7776TIP3   OH244742   1.763   0.073   1.830 -0.4015 -0.6900  0.2872
 7776TIP3    H144743   1.841   0.026   1.858  1.5910  2.3381  0.3654
 7776TIP3    H244744   1.794   0.163   1.815 -4.1078  1.0025  1.5395
 7777TIP3   OH244745   0.101   1.794   2.615 -0.2685  0.2272  0.1148
 7777TIP3    H144746   0.040   1.868   2.624  1.9284  2.1439  0.1376
 7777TIP3    H244747   0.186   1.835   2.598  0.6995 -2.3715 -2.1265
 7778TIP3   OH244748   5.326   1.265   3.450  0.0485 -0.4289 -0.4765
 7778TIP3    H144749   5.375   1.284   3.370  1.6473  0.8434  0.7316
 7778TIP3    H244750   5.388   1.217   3.506  0.0817  1.4282  1.2007
 7779TIP3   OH244751   1.031   3.966  14.175  0.0243  0.0761 -0.1506
 7779TIP3    H144752   1.037   4.003  14.087  0.1166  2.1843  0.6908
 7779TIP3    H244753   1.096   4.014  14.225 -2.4546  1.5133  1.9007
 7780TIP3   OH244754   3.972   4.148  11.188  1.0008 -0.9715 -0.4760
 7780TIP3    H144755   4.011   4.158  11.275  2.1161 -2.8929 -0.6796
 7780TIP3    H244756   3.968   4.053  11.175  2.1770 -0.7598 -3.0590
 7781TIP3   OH244757   6.597   0.305   6.139  0.4325 -0.2122  0.0980
 7781TIP3    H144758   6.604   0.376   6.203  2.3171  0.7625 -1.1072
 7781TIP3    H244759   6.650   0.234   6.176  1.2366  0.2248 -0.1945
 7782TIP3   OH244760   6.210   3.919   1.127  0.5282  0.6622 -0.3606
 7782TIP3    H144761   6.244   3.896   1.041 -1.5264 -1.0325 -0.7921
 7782TIP3    H244762   6.139   3.981   1.109  0.7943  1.1514  0.2279
 7783TIP3   OH244763   6.729   4.794  11.596 -0.2223  0.4113  0.6302
 7783TIP3    H144764   6.695   4.877  11.631 -0.7853  0.0389  0.9747
 7783TIP3    H244765   6.673   4.727  11.634  0.6294 -0.1864  0.8541
 7784TIP3   OH244766   0.095   4.125   2.436  0.2458 -0.1197 -0.4060
 7784TIP3    H144767   0.018   4.168   2.473  0.5007  0.4046 -0.4887
 7784TIP3    H244768   0.065   4.092   2.351 -0.4155 -1.5570  0.3519
 7785TIP3   OH244769   2.632   1.679  12.804  0.3138 -0.7543 -0.2711
 7785TIP3    H144770   2.640   1.702  12.897  0.2296 -1.7702 -0.0011
 7785TIP3    H244771   2.575   1.602  12.803  0.7321 -1.0675 -1.1139
 7786TIP3   OH244772   4.698   5.505  16.824 -0.5878 -0.0577  0.2792
 7786TIP3    H144773   4.701   5.589  16.871 -1.3049  1.2565 -1.8546
 7786TIP3    H244774   4.788   5.472  16.828 -0.2576  0.8916  1.0375
 7787TIP3   OH244775   4.040   2.942   5.302 -0.2687 -0.1951  0.2416
 7787TIP3    H144776   4.095   2.999   5.356 -0.6268 -0.4317  0.8646
 7787TIP3    H244777   4.084   2.941   5.217 -0.8032  1.8277 -0.1001
 7788TIP3   OH244778   6.358   4.017   3.771  0.5031  0.3693  0.7190
 7788TIP3    H144779   6.416   3.963   3.717 -0.6787  0.2712 -0.5030
 7788TIP3    H244780   6.402   4.021   3.856  1.8353 -0.4565  0.1138
 7789TIP3   OH244781   3.978   5.963   0.272 -0.0402  0.5021  0.4455
 7789TIP3    H144782   3.965   6.058   0.275  3.0875  1.0643 -0.4731
 7789TIP3    H244783   4.058   5.948   0.324  1.2368 -1.1815 -1.8297
 7790TIP3   OH244784   5.125   3.983  15.691 -0.3628  0.5041 -0.1857
 7790TIP3    H144785   5.200   4.012  15.641 -1.2970  2.9892 -0.2827
 7790TIP3    H244786   5.050   3.999  15.634 -1.1034 -0.5967  0.4357
 7791TIP3   OH244787   4.008   5.233   3.777  0.3822 -0.3960  0.6120
 7791TIP3    H144788   4.033   5.215   3.867  1.2997 -0.1242  0.4177
 7791TIP3    H244789   3.995   5.328   3.774  0.8645 -0.3339  0.3408
 7792TIP3   OH244790   5.874   0.750  16.415 -0.6587  0.6670  1.3755
 7792TIP3    H144791   5.954   0.711  16.451 -0.6782 -2.8500 -1.7506
 7792TIP3    H244792   5.905   0.816  16.354 -0.4262  2.4910  3.3713
 7793TIP3   OH244793   4.781   2.024   1.087 -0.7515 -0.3145 -0.1694
 7793TIP3    H144794   4.735   1.999   1.007 -0.3836 -1.6205  0.0052
 7793TIP3    H244795   4.866   1.979   1.081 -0.7908 -0.5811  1.0391
 7794TIP3   OH244796   1.559   0.629  11.600  0.0421 -0.3855 -0.4441
 7794TIP3    H144797   1.555   0.723  11.615 -2.3402 -0.7525  2.0450
 7794TIP3    H244798   1.630   0.598  11.656  0.4131 -0.1314 -0.7768
 7795TIP3   OH244799   6.188   5.800  10.828 -0.1028 -0.0784 -0.6053
 7795TIP3    H144800   6.264   5.778  10.882 -0.0783  0.2672 -0.4987
 7795TIP3    H244801   6.167   5.719  10.783 -1.2631 -0.9135  1.3120
 7796TIP3   OH244802   4.926   2.005  12.812 -0.2597  0.0088 -0.3646
 7796TIP3    H144803   4.918   1.931  12.751  0.4388 -0.7296  0.4151
 7796TIP3    H244804   5.018   2.032  12.805  0.0346 -0.5741  0.8804
 7797TIP3   OH244805   4.211   5.070  13.055 -0.1008  0.1480  0.2435
 7797TIP3    H144806   4.134   5.084  13.110 -1.2391 -1.1436 -0.9326
 7797TIP3    H244807   4.220   4.975  13.049  0.1559  0.2388 -1.5019
 7798TIP3   OH244808   0.983   1.652   2.419 -0.0032  0.4378 -0.3615
 7798TIP3    H144809   1.048   1.613   2.361 -0.9605  0.0186 -1.1989
 7798TIP3    H244810   0.904   1.657   2.365 -1.4583 -1.6183  1.4246
 7799TIP3   OH244811   0.079   4.214   3.424 -0.0588 -0.0827 -0.3721
 7799TIP3    H144812   0.078   4.307   3.448 -0.5570  0.4216 -2.2302
 7799TIP3    H244813  -0.000   4.201   3.373 -0.7218 -1.8979  1.0188
 7800TIP3   OH244814   0.890   5.142  16.402 -0.1929 -0.0253  0.4740
 7800TIP3    H144815   0.882   5.099  16.316 -1.9988  1.5500 -0.2218
 7800TIP3    H244816   0.921   5.230  16.381  1.1570 -0.1901  1.6499
 7801TIP3   OH244817   3.638   6.019  10.514 -0.5128 -0.2280 -0.0556
 7801TIP3    H144818   3.658   6.096  10.460  1.6171 -0.8127 -0.1907
 7801TIP3    H244819   3.590   5.960  10.456 -2.6832  1.1533  0.2075
 7802TIP3   OH244820   1.518   6.222  17.138 -0.1099  0.0224  0.5541
 7802TIP3    H144821   1.569   6.244  17.216 -0.1326 -0.8538  0.8302
 7802TIP3    H244822   1.559   6.141  17.105 -0.2475  0.2578 -0.2052
 7803TIP3   OH244823   3.863   3.392   3.593  0.2214  0.3625  1.2737
 7803TIP3    H144824   3.910   3.367   3.673  0.2296 -0.4514  1.0218
 7803TIP3    H244825   3.804   3.462   3.620  1.0651  0.9127  1.7491
 7804TIP3   OH244826   0.631   0.251   1.177  0.5376  0.0584 -0.0255
 7804TIP3    H144827   0.654   0.343   1.194 -1.9920  0.3969  2.3816
 7804TIP3    H244828   0.715   0.209   1.158  2.2979  2.2243  2.1918
 7805TIP3   OH244829   2.656   0.467  13.216 -0.3309 -0.1938 -0.0098
 7805TIP3    H144830   2.654   0.373  13.236 -0.4067 -0.7404 -2.2781
 7805TIP3    H244831   2.564   0.493  13.216 -0.2773  0.0851  1.2889
 7806TIP3   OH244832   6.487   2.943  11.874  0.0858  0.2245 -0.0080
 7806TIP3    H144833   6.411   2.890  11.851  1.1047 -1.6940  0.7972
 7806TIP3    H244834   6.454   3.032  11.879 -2.2261 -0.6131  0.8287
 7807TIP3   OH244835   1.044   3.539  13.387 -0.1515  0.2152 -0.1619
 7807TIP3    H144836   0.979   3.484  13.344 -1.7369  0.8595  1.2919
 7807TIP3    H244837   1.020   3.629  13.364  0.2937  0.4562  0.2823
 7808TIP3   OH244838   4.031   1.086  16.612 -0.3542  0.4583 -0.3982
 7808TIP3    H144839   3.943   1.066  16.645 -0.1558  1.4317  0.8017
 7808TIP3    H244840   4.043   1.179  16.632  0.6140  0.5472 -1.3386
 7809TIP3   OH244841   1.505   3.727  11.153 -0.3064  0.5745  0.4731
 7809TIP3    H144842   1.510   3.714  11.248  0.1085 -0.3226  0.3411
 7809TIP3    H244843   1.424   3.776  11.140  0.3827  2.0575  1.4104
 7810TIP3   OH244844   4.207   4.607   3.110  0.4086 -0.5999 -0.2218
 7810TIP3    H144845   4.252   4.681   3.068 -0.8932 -1.1180 -2.7532
 7810TIP3    H244846   4.115   4.618   3.084 -0.7373 -0.5051  3.3805
 7811TIP3   OH244847   2.706   3.454   3.653  0.1421  0.3196  0.5932
 7811TIP3    H144848   2.779   3.506   3.621  0.7942 -0.0215  1.4858
 7811TIP3    H244849   2.718   3.368   3.612  0.2026  0.2854  0.6821
 7812TIP3   OH244850   3.520   3.545   4.605 -0.0890 -0.3499 -0.1624
 7812TIP3    H144851   3.563   3.460   4.596 -0.6795 -0.9224  1.9337
 7812TIP3    H244852   3.428   3.524   4.622 -0.8960  0.8128 -2.5532
 7813TIP3   OH244853   3.461   1.940  14.095  0.0567 -0.2564  0.2627
 7813TIP3    H144854   3.541   1.951  14.146  0.5223 -1.9331 -0.0371
 7813TIP3    H244855   3.489   1.947  14.003 -0.1880 -0.5704  0.1619
 7814TIP3   OH244856   5.433   3.801   0.851  0.3132  0.6115  0.0734
 7814TIP3    H144857   5.467   3.823   0.938  0.1900 -0.4286  0.3962
 7814TIP3    H244858   5.488   3.729   0.821 -0.6410 -0.0918 -0.0331
 7815TIP3   OH244859   0.206   2.683   4.592  0.0718 -0.2141  0.0971
 7815TIP3    H144860   0.252   2.661   4.673  2.0183  0.3489 -0.7794
 7815TIP3    H244861   0.269   2.735   4.542 -0.2528 -2.2530 -2.6711
 7816TIP3   OH244862   2.411   3.094   4.181  0.0729  0.5349 -0.5316
 7816TIP3    H144863   2.317   3.077   4.183  0.2372 -0.5206  1.7774
 7816TIP3    H244864   2.428   3.126   4.093 -2.0743 -1.4665 -1.7904
 7817TIP3   OH244865   4.408   6.247  14.395 -0.3069  0.2941  0.0105
 7817TIP3    H144866   4.313   6.234  14.392 -0.6239  2.3151  0.0328
 7817TIP3    H244867   4.430   6.277  14.307  0.1307  0.8799  0.3183
 7818TIP3   OH244868   4.867   4.172   1.572  0.6630  0.4315 -0.5352
 7818TIP3    H144869   4.915   4.097   1.608 -0.0946  0.3587  0.3680
 7818TIP3    H244870   4.923   4.204   1.501  1.6412 -0.1644 -0.0661
 7819TIP3   OH244871   4.196   6.453   4.605 -0.3304  0.0907  0.6693
 7819TIP3    H144872   4.159   6.375   4.563 -0.0042  0.0435  0.4612
 7819TIP3    H244873   4.271   6.420   4.655  1.2062  0.5360 -1.2094
 7820TIP3   OH244874   0.649   4.881  16.067 -0.0247  0.3090  0.3043
 7820TIP3    H144875   0.680   4.972  16.073  0.6393  0.2517 -1.4539
 7820TIP3    H244876   0.728   4.828  16.082 -0.1326  0.0709  0.0408
 7821TIP3   OH244877   1.007   5.844   1.612 -0.0097  0.1497  0.3149
 7821TIP3    H144878   0.926   5.793   1.613  0.7940 -1.1671  0.7737
 7821TIP3    H244879   0.978   5.935   1.618 -1.5159 -0.1838 -1.2256
 7822TIP3   OH244880   3.233   5.177   0.525  0.2953  1.0730 -0.3282
 7822TIP3    H144881   3.241   5.207   0.616 -0.4824  0.0701  0.0913
 7822TIP3    H244882   3.190   5.249   0.480 -2.6696  0.2493  0.9306
 7823TIP3   OH244883   4.390   3.129  12.027  0.5539 -0.6985  0.2559
 7823TIP3    H144884   4.365   3.038  12.015  1.1071 -0.8353  0.1186
 7823TIP3    H244885   4.378   3.146  12.120 -1.4751 -0.3226 -0.0293
 7824TIP3   OH244886   2.801   6.686  14.376 -0.3917 -0.8284 -0.0469
 7824TIP3    H144887   2.869   6.707  14.440 -0.0096 -0.3928 -0.5980
 7824TIP3    H244888   2.720   6.719  14.416  0.0045  0.4937 -0.2961
 7825TIP3   OH244889   3.445   4.857  10.868  0.2539 -0.2339 -0.2334
 7825TIP3    H144890   3.446   4.772  10.913  1.2568 -0.8801 -1.4041
 7825TIP3    H244891   3.514   4.850  10.802 -0.9778  0.7448 -1.7082
 7826TIP3   OH244892   6.633   5.997  14.819 -0.0776 -0.0889  0.4487
 7826TIP3    H144893   6.672   5.984  14.733 -1.6767 -0.3175 -0.2752
 7826TIP3    H244894   6.708   6.002  14.879  1.0082 -2.2455 -0.6087
 7827TIP3   OH244895   0.822   4.226  12.526  1.3563 -0.0905 -0.1679
 7827TIP3    H144896   0.818   4.241  12.620  1.2770 -1.0990 -0.0060
 7827TIP3    H244897   0.767   4.295  12.488  0.7768 -0.1479  0.5663
 7828TIP3   OH244898   2.497   0.307  13.493 -0.6537  0.2425 -0.0110
 7828TIP3    H144899   2.466   0.291  13.404 -2.3090  0.7372  0.4392
 7828TIP3    H244900   2.593   0.303  13.486 -0.7418  0.2969 -1.8034
 7829TIP3   OH244901   2.261   3.130  11.035 -0.4880  0.0631  0.4268
 7829TIP3    H144902   2.230   3.115  10.945 -0.8940  0.4041  0.5084
 7829TIP3    H244903   2.356   3.132  11.027 -0.5381  2.6935 -0.4334
 7830TIP3   OH244904   5.270   4.563   1.235 -0.0751  0.5771 -0.4805
 7830TIP3    H144905   5.350   4.609   1.210 -1.3804  1.2383 -3.9980
 7830TIP3    H244906   5.300   4.492   1.292  3.0253  0.7405 -1.7343
 7831TIP3   OH244907   3.973   1.665   5.831 -0.5654 -0.2423  0.5680
 7831TIP3    H144908   4.060   1.642   5.797 -1.1289  0.3207 -1.3948
 7831TIP3    H244909   3.982   1.756   5.859 -0.7758  0.2063 -0.7340
 7832TIP3   OH244910   5.987   4.549   2.423 -0.2582 -0.0616  0.1963
 7832TIP3    H144911   6.081   4.535   2.428 -0.4877 -1.1453  2.3168
 7832TIP3    H244912   5.976   4.611   2.351  2.0943  0.4401  0.2031
 7833TIP3   OH244913   0.107   2.334   1.852  0.0851  0.1922 -0.1459
 7833TIP3    H144914   0.098   2.351   1.946  0.8912 -0.0336 -0.0252
 7833TIP3    H244915   0.046   2.395   1.811  0.3426  0.8849  0.4791
 7834TIP3   OH244916   0.040   3.167   4.768 -0.2813 -0.4708 -0.4043
 7834TIP3    H144917   0.072   3.126   4.848 -0.6493 -1.2396 -0.6361
 7834TIP3    H244918   0.010   3.093   4.714 -0.0081  0.0295 -1.2590
 7835TIP3   OH244919   4.630   0.411   3.532 -0.3930 -0.0911  0.0874
 7835TIP3    H144920   4.589   0.374   3.454 -0.8306 -1.2177  0.8242
 7835TIP3    H244921   4.569   0.479   3.560  0.1632  0.8924 -0.9815
 7836TIP3   OH244922   2.604   6.394  13.338  0.5090  0.2546 -0.8206
 7836TIP3    H144923   2.524   6.439  13.311  1.2095  0.6150 -2.4027
 7836TIP3    H244924   2.644   6.365  13.256  0.5348 -2.5272  0.0577
 7837TIP3   OH244925   5.878   2.463  16.384  0.0078  0.4614 -0.1472
 7837TIP3    H144926   5.857   2.378  16.346  0.2923  0.1311  0.4209
 7837TIP3    H244927   5.808   2.521  16.354 -0.4182 -0.0689 -0.1907
 7838TIP3   OH244928   3.839   6.392   5.473  0.3937 -0.5339  0.5141
 7838TIP3    H144929   3.799   6.329   5.533  0.5411  1.2863  2.6426
 7838TIP3    H244930   3.928   6.403   5.506  0.6378  0.1379 -0.3545
 7839TIP3   OH244931   2.899   1.690  14.396  0.2706  0.1230 -0.1126
 7839TIP3    H144932   2.849   1.658  14.471 -1.9063  0.1981 -1.4181
 7839TIP3    H244933   2.877   1.629  14.325  0.3718  1.3741 -1.2652
 7840TIP3   OH244934   2.751   1.604  14.618  0.0195  0.0525 -0.3477
 7840TIP3    H144935   2.779   1.533  14.676 -1.6400 -0.3606  0.0003
 7840TIP3    H244936   2.682   1.649  14.666 -1.1364 -0.0525 -1.8173
 7841TIP3   OH244937   1.771   4.071  13.913  0.2908 -0.4774  0.1520
 7841TIP3    H144938   1.768   4.100  14.005  2.9102 -1.1855  0.5409
 7841TIP3    H244939   1.682   4.085  13.881 -0.4962  0.6022  2.5447
 7842TIP3   OH244940   2.957   2.725   0.773  0.2695 -0.0222 -0.1171
 7842TIP3    H144941   2.886   2.662   0.764  1.5212 -1.5547  0.2546
 7842TIP3    H244942   2.938   2.772   0.854 -0.7845  0.2660 -0.5105
 7843TIP3   OH244943   1.781   2.345  12.067 -0.2295  0.0720  0.2907
 7843TIP3    H144944   1.869   2.382  12.060 -0.2535  0.2718  0.9309
 7843TIP3    H244945   1.770   2.293  11.988  0.2717  0.4569 -0.0356
 7844TIP3   OH244946   2.152   3.047  16.185  0.1947  0.2611  0.8193
 7844TIP3    H144947   2.130   3.051  16.092 -1.2259  0.7321  1.1596
 7844TIP3    H244948   2.218   3.115  16.197  1.3550 -0.6473 -0.0617
 7845TIP3   OH244949   6.433   1.824   2.091  0.1114  0.2084 -0.4688
 7845TIP3    H144950   6.432   1.862   2.179 -0.8867  0.1172 -0.4318
 7845TIP3    H244951   6.342   1.826   2.063  0.4448  0.4062 -1.5835
 7846TIP3   OH244952   4.263   3.687   1.752  0.1408  0.0829  0.3931
 7846TIP3    H144953   4.302   3.774   1.744  1.0600 -0.2420  1.1119
 7846TIP3    H244954   4.199   3.695   1.823  2.8222 -0.6278  3.1193
 7847TIP3   OH244955   3.615   5.696  12.841 -0.7034 -0.4460 -0.0960
 7847TIP3    H144956   3.648   5.714  12.929 -0.0840  1.4376 -0.6667
 7847TIP3    H244957   3.521   5.715  12.847 -0.5774  0.1401  0.0388
 7848TIP3   OH244958   3.050   1.103  12.659  0.0758 -0.1529  0.0155
 7848TIP3    H144959   3.056   1.193  12.691  1.3065 -0.6552  1.3369
 7848TIP3    H244960   2.963   1.074  12.686  0.3606  0.0786  1.2473
 7849TIP3   OH244961   3.836   2.295   4.741 -0.5407  0.5696  0.1525
 7849TIP3    H144962   3.893   2.345   4.682  2.0567  0.7231  2.6004
 7849TIP3    H244963   3.794   2.361   4.795  0.5541  0.3133  1.3677
 7850TIP3   OH244964   0.944   3.114   4.849 -0.6115  0.4106 -0.6062
 7850TIP3    H144965   0.911   3.195   4.888  1.1200  1.7843 -1.8273
 7850TIP3    H244966   0.865   3.066   4.823 -1.6839  1.6212  0.2579
 7851TIP3   OH244967   0.934   2.741   2.800  0.6015  0.9360  0.5844
 7851TIP3    H144968   0.970   2.769   2.884  1.8165  0.8995  0.0964
 7851TIP3    H244969   0.989   2.784   2.735  1.4074 -1.1217 -0.1944
 7852TIP3   OH244970   1.541   6.439   4.165 -0.1367 -0.0475 -0.0853
 7852TIP3    H144971   1.463   6.408   4.119  0.0446 -1.6351  0.6275
 7852TIP3    H244972   1.598   6.473   4.095 -1.6858  1.7607 -0.5480
 7853TIP3   OH244973   1.506   5.191   5.535  0.2010  0.2309 -0.8160
 7853TIP3    H144974   1.596   5.182   5.567  0.0915 -0.9881 -0.8014
 7853TIP3    H244975   1.514   5.191   5.440  0.2537  0.6174 -0.8130
 7854TIP3   OH244976   1.006   6.005   3.245 -0.3750  0.1874 -0.4418
 7854TIP3    H144977   0.955   6.046   3.315  0.4717  1.2420 -0.4087
 7854TIP3    H244978   1.044   5.927   3.285  1.2713  1.5342  0.7583
 7855TIP3   OH244979   3.712   3.517  15.200 -0.0526 -0.0424 -0.4817
 7855TIP3    H144980   3.683   3.505  15.110  1.2989  2.0753 -1.2915
 7855TIP3    H244981   3.651   3.465  15.253 -1.9303  0.0173 -2.4629
 7856TIP3   OH244982   1.348   4.800  16.861  0.3952  0.1014 -0.4966
 7856TIP3    H144983   1.305   4.858  16.799  0.5861  2.4663  1.4011
 7856TIP3    H244984   1.416   4.854  16.901  1.8909 -2.0418  0.0660
 7857TIP3   OH244985   1.622   2.431  16.962 -0.3718 -0.1659 -0.0501
 7857TIP3    H144986   1.657   2.456  17.048  0.4411  0.2608 -0.4970
 7857TIP3    H244987   1.534   2.469  16.960 -1.0079 -1.4427  1.1777
 7858TIP3   OH244988   2.777   1.129  13.211  0.8049 -0.5465 -0.0663
 7858TIP3    H144989   2.841   1.143  13.281 -0.3570  0.6472  0.8233
 7858TIP3    H244990   2.769   1.214  13.168  0.2722 -0.8362 -0.5627
 7859TIP3   OH244991   3.328   0.552  16.936 -0.2552 -0.4803 -0.1909
 7859TIP3    H144992   3.319   0.614  17.009  0.5481 -0.4750 -0.0848
 7859TIP3    H244993   3.421   0.558  16.911 -0.4712 -0.6522 -1.0658
 7860TIP3   OH244994   4.418   4.770  11.401  0.4566 -0.0434  0.6899
 7860TIP3    H144995   4.351   4.832  11.376  0.2655 -0.1861  0.8450
 7860TIP3    H244996   4.479   4.820  11.455  0.9382  0.2963 -0.1432
 7861TIP3   OH244997   0.736   2.056   4.709 -0.5480 -0.2680 -0.4248
 7861TIP3    H144998   0.760   1.997   4.781 -0.1532  0.5159  0.0985
 7861TIP3    H244999   0.692   2.129   4.751  0.0729  0.4152 -0.9212
 7862TIP3   OH245000   0.538   2.538  16.361  0.5165  0.2468 -0.2244
 7862TIP3    H145001   0.443   2.545  16.350  0.6308  0.7996 -0.9427
 7862TIP3    H245002   0.566   2.479  16.291  0.7019  0.0930 -0.0207
 7863TIP3   OH245003   4.325   2.100  14.402 -0.5675 -0.2302  0.2253
 7863TIP3    H145004   4.260   2.055  14.456  0.5544 -1.2694  0.7488
 7863TIP3    H245005   4.391   2.131  14.464 -0.6424  1.0205 -0.2749
 7864TIP3   OH245006   6.252   3.684   6.475  0.3182  0.1341 -0.0681
 7864TIP3    H145007   6.172   3.720   6.513  0.8807  0.5354  0.7815
 7864TIP3    H245008   6.261   3.598   6.516  0.5354  0.2658  0.1696
 7865TIP3   OH245009   0.046   2.416   5.275 -0.0233  0.0172 -0.1295
 7865TIP3    H145010   0.063   2.441   5.366 -0.2516  0.2234 -0.1407
 7865TIP3    H245011  -0.048   2.431   5.264 -0.2213 -1.0682 -0.0692
 7866TIP3   OH245012   2.173   2.578  14.330  0.6241 -0.5951 -0.1377
 7866TIP3    H145013   2.150   2.490  14.361  1.1970 -0.4925  0.6022
 7866TIP3    H245014   2.243   2.606  14.388 -1.1256  1.3144  1.1777
 7867TIP3   OH245015   3.912   6.589   2.983 -0.2989 -0.3988  0.7263
 7867TIP3    H145016   3.900   6.503   3.022 -1.0280 -0.6175  0.0341
 7867TIP3    H245017   3.824   6.625   2.976 -0.1120 -0.0745 -0.0512
 7868TIP3   OH245018   5.956   5.450   6.667 -0.0753  0.7948 -0.4917
 7868TIP3    H145019   5.878   5.505   6.671  0.2783  1.3232 -0.7830
 7868TIP3    H245020   6.025   5.503   6.707 -0.2752 -0.4057  1.5524
 7869TIP3   OH245021   5.514   1.309  14.415 -0.1300 -0.1717 -0.4773
 7869TIP3    H145022   5.486   1.231  14.462  0.7365 -0.6858 -0.7845
 7869TIP3    H245023   5.585   1.346  14.468 -0.2856  0.2051 -0.5241
 7870TIP3   OH245024   0.776   4.463   1.073  0.7316  0.3274 -0.0609
 7870TIP3    H145025   0.709   4.419   1.021  1.5929  0.0305 -0.9637
 7870TIP3    H245026   0.729   4.530   1.122 -0.3386 -0.4440 -0.0160
 7871TIP3   OH245027   3.517   3.181   0.597  0.1192 -0.8032 -0.0694
 7871TIP3    H145028   3.435   3.185   0.647  0.8814  1.4464  1.1334
 7871TIP3    H245029   3.518   3.262   0.546  2.5602  0.3894  1.6628
 7872TIP3   OH245030   4.888   3.501   5.233  0.0982  0.5363 -0.6820
 7872TIP3    H145031   4.829   3.538   5.298  0.3093  0.7258 -0.6012
 7872TIP3    H245032   4.930   3.428   5.278 -0.4431  0.0852 -0.8931
 7873TIP3   OH245033   5.438   3.476   0.119 -0.0121 -0.1243 -0.2110
 7873TIP3    H145034   5.394   3.395   0.093  0.2104 -1.2324  2.5250
 7873TIP3    H245035   5.523   3.472   0.076 -0.8767 -0.1392 -1.9927
 7874TIP3   OH245036   5.062   2.750   5.026  0.1478  0.0113  0.2155
 7874TIP3    H145037   5.006   2.798   5.087 -0.0705  1.9517 -1.4018
 7874TIP3    H245038   5.150   2.762   5.060  0.0087  0.8583  0.3033
 7875TIP3   OH245039   2.696   6.330  16.541 -0.1711  0.6417  0.4089
 7875TIP3    H145040   2.760   6.262  16.561 -1.3848 -0.0571  2.1360
 7875TIP3    H245041   2.673   6.368  16.626  0.4078  3.1971 -0.4865
 7876TIP3   OH245042   4.414   5.006  16.871  0.5729 -0.3914 -0.4794
 7876TIP3    H145043   4.485   5.067  16.892  1.2757 -0.8280 -1.5321
 7876TIP3    H245044   4.455   4.920  16.874  0.0729 -0.6521 -1.0855
 7877TIP3   OH245045   4.336   1.280  15.875  0.5706 -0.4567  0.6236
 7877TIP3    H145046   4.296   1.358  15.912  1.6371 -0.4869  1.9386
 7877TIP3    H245047   4.420   1.310  15.840  0.8244 -0.9401  0.8083
 7878TIP3   OH245048   4.924   0.575  11.564  0.1502  0.5136 -0.2363
 7878TIP3    H145049   4.946   0.495  11.610 -0.8851  0.5670  0.3922
 7878TIP3    H245050   4.928   0.643  11.632 -0.5413  0.7284 -0.4020
 7879TIP3   OH245051   4.457   0.208   2.573  0.5747 -0.1957  0.8006
 7879TIP3    H145052   4.384   0.256   2.613  0.8606  1.2064 -0.2793
 7879TIP3    H245053   4.446   0.117   2.603 -1.9381 -0.1452  0.2351
 7880TIP3   OH245054   4.959   3.483  14.056  0.1854 -0.8081 -0.3385
 7880TIP3    H145055   4.942   3.389  14.061  0.6218 -0.9058 -0.5927
 7880TIP3    H245056   5.046   3.489  14.015  1.0102 -0.3580  1.3597
 7881TIP3   OH245057   4.547   4.294  17.167 -0.1786  0.1146 -0.6049
 7881TIP3    H145058   4.604   4.292  17.244 -0.5740  0.4368 -0.2976
 7881TIP3    H245059   4.498   4.212  17.172 -1.1467  0.7156  0.2247
 7882TIP3   OH245060   4.886   5.423   3.382 -0.3069 -0.1743 -0.1195
 7882TIP3    H145061   4.881   5.465   3.296  0.1707 -0.8192 -0.4714
 7882TIP3    H245062   4.838   5.341   3.372  0.3175 -0.5637  0.0367
 7883TIP3   OH245063   1.011   0.890   3.354  0.1663 -0.2442 -0.1340
 7883TIP3    H145064   0.920   0.864   3.366 -0.4565  1.3837 -1.0807
 7883TIP3    H245065   1.043   0.910   3.442 -1.0304  1.1332  0.0191
 7884TIP3   OH245066   3.076   4.852   4.142  0.2205  0.2398  0.2465
 7884TIP3    H145067   3.056   4.920   4.205  1.7949  0.1143  0.9252
 7884TIP3    H245068   3.072   4.770   4.192 -1.6881 -0.2285 -0.5653
 7885TIP3   OH245069   6.010   5.844   2.831 -0.2946 -0.1100  0.0548
 7885TIP3    H145070   6.053   5.879   2.909  0.2794 -0.0596 -0.2767
 7885TIP3    H245071   6.080   5.799   2.783 -0.3392  1.0212 -1.1094
 7886TIP3   OH245072   4.825   3.842  13.926  0.7913 -0.8561 -0.3543
 7886TIP3    H145073   4.820   3.935  13.945  0.5029 -0.9798  0.2002
 7886TIP3    H245074   4.788   3.833  13.838 -0.3553 -0.5950  0.0878
 7887TIP3   OH245075   1.442   3.511  12.468 -0.3490  0.0420  0.2232
 7887TIP3    H145076   1.348   3.508  12.449 -0.5037 -0.3214  0.9939
 7887TIP3    H245077   1.470   3.420  12.466  0.8119  0.2941 -3.6490
 7888TIP3   OH245078   0.946   0.351  15.015 -0.0428  0.0312  0.4214
 7888TIP3    H145079   0.947   0.267  15.061  0.5281  0.0866  0.5196
 7888TIP3    H245080   1.012   0.342  14.947 -0.7496  0.0160 -0.2835
 7889TIP3   OH245081   5.584   1.871   0.486 -0.1592 -0.0375  0.2602
 7889TIP3    H145082   5.541   1.813   0.548  1.3312 -2.1834 -0.6224
 7889TIP3    H245083   5.669   1.890   0.525  0.9177 -1.6498 -1.1674
 7890TIP3   OH245084   3.791   4.545  10.280  0.3563 -0.4042  0.0361
 7890TIP3    H145085   3.821   4.460  10.250 -0.4584 -1.2416  1.5048
 7890TIP3    H245086   3.702   4.552  10.246  0.4871 -0.0452 -0.2407
 7891TIP3   OH245087   1.848   2.972   3.749 -0.2434 -0.5158 -0.2888
 7891TIP3    H145088   1.903   3.049   3.764 -2.5479  1.0866  0.3765
 7891TIP3    H245089   1.875   2.941   3.662  4.3086 -2.2045  1.4233
 7892TIP3   OH245090   1.979   0.168   0.539  0.1785 -0.1571  0.1015
 7892TIP3    H145091   2.064   0.171   0.583 -0.6209  0.0708  1.7469
 7892TIP3    H245092   1.961   0.075   0.527  0.5108 -0.2168  0.0712
 7893TIP3   OH245093   6.398   5.535  13.208 -0.6176  0.4149  0.1631
 7893TIP3    H145094   6.386   5.619  13.252  1.2191 -0.0102  1.6185
 7893TIP3    H245095   6.482   5.503  13.240  0.2878 -0.5152 -2.8075
 7894TIP3   OH245096   5.197   5.423   1.831 -0.2072  0.3460 -0.0056
 7894TIP3    H145097   5.284   5.447   1.862 -0.3869 -0.3074  1.0310
 7894TIP3    H245098   5.138   5.445   1.903 -0.9353  0.8560 -0.7234
 7895TIP3   OH245099   5.641   1.213  16.037 -0.1074 -0.4848  0.1054
 7895TIP3    H145100   5.638   1.308  16.031  0.0712 -0.3544  1.7010
 7895TIP3    H245101   5.601   1.183  15.956 -1.3045  0.9637  0.1138
 7896TIP3   OH245102   5.939   4.466   3.798  0.3191  0.6800  0.0867
 7896TIP3    H145103   5.966   4.376   3.818 -0.9911  0.8040  2.8586
 7896TIP3    H245104   5.908   4.462   3.707  0.6524 -1.5605  0.0146
 7897TIP3   OH245105   4.869   1.469  11.623  0.5943 -0.3987  0.2231
 7897TIP3    H145106   4.906   1.558  11.628 -0.8218  0.2382  0.0074
 7897TIP3    H245107   4.905   1.424  11.699 -0.1395  0.9838  1.4680
 7898TIP3   OH245108   0.198   3.565  14.560  0.1438 -0.6153  0.2588
 7898TIP3    H145109   0.245   3.648  14.560 -1.6083  0.4450  0.9745
 7898TIP3    H245110   0.245   3.511  14.623  0.3839  0.4367  1.0164
 7899TIP3   OH245111   3.381   6.416   3.459  0.1562 -0.0230  0.1395
 7899TIP3    H145112   3.370   6.412   3.364 -0.7997  1.0997  0.1745
 7899TIP3    H245113   3.467   6.377   3.475  0.1714 -0.5624 -1.1470
 7900TIP3   OH245114   6.564   2.197   2.505  0.2086 -0.0553 -0.1810
 7900TIP3    H145115   6.535   2.107   2.517 -3.1988  0.9688  0.2695
 7900TIP3    H245116   6.545   2.240   2.589 -0.6633  1.6272 -1.1852
 7901TIP3   OH245117   3.114   4.104   0.801 -0.1853  0.1703  0.3617
 7901TIP3    H145118   3.130   4.013   0.826 -0.6733 -0.0545 -0.1147
 7901TIP3    H245119   3.201   4.142   0.787  0.0000 -0.3371  0.1530
 7902TIP3   OH245120   2.122   2.644   5.552  0.1294 -0.5409 -0.8623
 7902TIP3    H145121   2.196   2.590   5.525  1.2860  0.6612 -0.2163
 7902TIP3    H245122   2.131   2.651   5.647  0.1216  0.9185 -0.9517
 7903TIP3   OH245123   5.739   4.545   3.211 -0.3623 -0.1550  0.0042
 7903TIP3    H145124   5.722   4.587   3.127  0.6804  0.8168  0.2660
 7903TIP3    H245125   5.796   4.605   3.258 -0.6595 -0.8307  1.2915
 7904TIP3   OH245126   1.067   2.607  16.531 -0.6119  0.5681 -0.9167
 7904TIP3    H145127   1.122   2.685  16.534  0.1267  0.0451 -0.6653
 7904TIP3    H245128   0.987   2.636  16.486 -0.4210  1.5048 -0.6783
 7905TIP3   OH245129   0.810   6.250  14.721 -0.5475 -0.6699  0.3474
 7905TIP3    H145130   0.862   6.203  14.656 -1.0537 -0.7742  0.0160
 7905TIP3    H245131   0.720   6.244  14.690 -0.5176  1.5422 -0.3706
 7906TIP3   OH245132   2.794   0.108  12.090 -0.3204 -0.4604 -0.0808
 7906TIP3    H145133   2.827   0.036  12.143 -1.0395  0.2933  1.4300
 7906TIP3    H245134   2.849   0.183  12.115 -0.2578 -0.2293 -0.8751
 7907TIP3   OH245135   0.695   4.392  16.332  1.1069 -0.3586 -0.9368
 7907TIP3    H145136   0.720   4.385  16.424 -0.5674 -1.1210 -0.4988
 7907TIP3    H245137   0.647   4.475  16.326  0.4274 -0.7459 -0.9147
 7908TIP3   OH245138   4.096   4.790  12.436  0.0665  0.0253 -0.2866
 7908TIP3    H145139   4.076   4.745  12.354 -1.9133 -0.2549  0.2934
 7908TIP3    H245140   4.097   4.721  12.502  0.8050  0.3566  0.0530
 7909TIP3   OH245141   5.056   2.143   0.501  0.3453 -0.5627  0.2243
 7909TIP3    H145142   4.975   2.111   0.540  0.8554 -0.9393  0.9960
 7909TIP3    H245143   5.099   2.064   0.468  0.8757 -0.4976  0.7443
 7910TIP3   OH245144   0.373   4.654   2.128  0.0723 -0.3345 -0.3401
 7910TIP3    H145145   0.419   4.738   2.127 -0.1437 -0.2027  0.1593
 7910TIP3    H245146   0.296   4.670   2.182  0.1489 -0.9146 -0.0494
 7911TIP3   OH245147   0.120   6.354   1.640 -0.0594 -0.3161  0.0881
 7911TIP3    H145148   0.049   6.341   1.703  0.2415 -1.9985  0.1146
 7911TIP3    H245149   0.178   6.418   1.682 -0.9905  0.2638  0.5309
 7912TIP3   OH245150   0.048   1.634  14.376 -0.0606 -0.4419  0.3506
 7912TIP3    H145151   0.080   1.597  14.294 -1.2107  0.0272 -0.3235
 7912TIP3    H245152   0.080   1.724  14.376  0.3195 -0.5737  0.6394
 7913TIP3   OH245153   0.990   6.397  11.473  0.2202  0.7432 -0.3931
 7913TIP3    H145154   0.951   6.446  11.546 -0.0164  0.8456 -0.5888
 7913TIP3    H245155   1.041   6.328  11.516  0.3981  1.0409 -0.1205
 7914TIP3   OH245156   5.298   0.326   4.929 -0.1080 -0.4637  0.3247
 7914TIP3    H145157   5.289   0.420   4.948 -1.3508 -0.6399  0.7165
 7914TIP3    H245158   5.384   0.303   4.962  0.2710  0.5693  0.1003
 7915TIP3   OH245159   1.602   4.843   1.679 -0.6285 -0.2240 -0.0198
 7915TIP3    H145160   1.563   4.760   1.651 -1.7160  0.5525 -0.8617
 7915TIP3    H245161   1.562   4.859   1.765 -0.1469 -0.7277  0.3099
 7916TIP3   OH245162   4.484   1.230  13.959  0.5907  0.1476 -0.3674
 7916TIP3    H145163   4.529   1.196  13.882  1.2171 -0.9237  0.4529
 7916TIP3    H245164   4.410   1.170  13.972  1.0893 -0.3110  0.4621
 7917TIP3   OH245165   3.747   6.050  14.715 -0.1354  0.0930  0.3696
 7917TIP3    H145166   3.690   6.109  14.666 -0.7961 -1.4440 -0.7931
 7917TIP3    H245167   3.725   5.963  14.682  1.4255 -0.7306  1.4029
 7918TIP3   OH245168   5.059   2.232   5.680  0.3137  0.5183 -0.8814
 7918TIP3    H145169   5.155   2.225   5.686  0.2427 -0.2720 -0.6984
 7918TIP3    H245170   5.032   2.157   5.628 -0.0037  1.9814 -2.9850
 7919TIP3   OH245171   2.484   1.914   0.035 -0.3207  0.0051  0.0117
 7919TIP3    H145172   2.573   1.929   0.004  0.7106 -2.4909  1.4573
 7919TIP3    H245173   2.453   1.838  -0.014 -0.5394 -0.8864  1.4604
 7920TIP3   OH245174   0.063   5.934  16.160  0.0419 -0.0270  0.0149
 7920TIP3    H145175  -0.008   5.995  16.139  0.5192  0.3041 -0.6536
 7920TIP3    H245176   0.073   5.941  16.255  0.2642  1.1201 -0.0863
 7921TIP3   OH245177   4.205   4.395   3.626 -0.0544 -0.1867  0.3713
 7921TIP3    H145178   4.201   4.410   3.532  0.4621  1.8241  0.6353
 7921TIP3    H245179   4.297   4.373   3.642 -0.0815 -0.2406  0.4541
 7922TIP3   OH245180   4.667   2.741  12.978 -0.2873  0.3377  0.2098
 7922TIP3    H145181   4.596   2.713  12.920 -0.2852  0.6683  0.0425
 7922TIP3    H245182   4.684   2.832  12.952  1.1160 -0.1450 -0.6909
 7923TIP3   OH245183   6.054   1.930   2.813 -0.3438  0.2762 -0.0028
 7923TIP3    H145184   6.034   1.981   2.892 -3.2926 -0.3327 -0.2514
 7923TIP3    H245185   6.045   1.993   2.741 -0.2056  0.2541 -0.0398
 7924TIP3   OH245186   5.457   5.540  12.911  0.2979  0.3683 -0.0959
 7924TIP3    H145187   5.425   5.608  12.852 -0.6971  1.3012  1.4528
 7924TIP3    H245188   5.540   5.574  12.944 -0.2287  0.8740  0.7238
 7925TIP3   OH245189   0.105   3.789  17.178  0.1675  0.2297  0.1532
 7925TIP3    H145190   0.178   3.733  17.152 -1.4176 -1.3029 -1.2736
 7925TIP3    H245191   0.037   3.728  17.206 -0.8050  1.5828  0.8510
 7926TIP3   OH245192   5.708   5.002  14.465 -0.2821 -0.3951 -0.1055
 7926TIP3    H145193   5.771   5.020  14.535  1.7345 -0.9890 -1.7090
 7926TIP3    H245194   5.657   5.083  14.457 -0.0950 -0.0800  1.5518
 7927TIP3   OH245195   2.198   3.652  14.528 -0.6695 -0.5533  0.0173
 7927TIP3    H145196   2.229   3.617  14.444 -3.1186 -0.4409 -1.0174
 7927TIP3    H245197   2.133   3.717  14.504 -1.7728 -0.8539  2.0176
 7928TIP3   OH245198   2.170   5.482  16.130 -0.0226  0.3721  0.1061
 7928TIP3    H145199   2.255   5.496  16.171 -0.0710  0.1763  0.2751
 7928TIP3    H245200   2.178   5.522  16.044 -0.1987  1.5318  0.6094
 7929TIP3   OH245201   1.313   5.422   6.749 -0.3010 -0.0276  0.4542
 7929TIP3    H145202   1.295   5.399   6.658  0.4055  0.3146  0.2210
 7929TIP3    H245203   1.229   5.453   6.783 -0.1096  2.0322 -0.7569
 7930TIP3   OH245204   5.387   4.890  11.467 -0.2696  0.4401 -0.3376
 7930TIP3    H145205   5.402   4.964  11.408 -2.8435  0.3646 -1.2318
 7930TIP3    H245206   5.340   4.826  11.414 -1.7451 -0.0803  1.4898
 7931TIP3   OH245207   1.396   3.256   6.266 -0.4321  0.3191 -0.3205
 7931TIP3    H145208   1.397   3.345   6.231 -0.6911  0.6840  0.5697
 7931TIP3    H245209   1.445   3.262   6.348  2.2757 -1.0112 -1.7065
 7932TIP3   OH245210   6.608   2.803   2.980  0.4788 -0.0157  0.2308
 7932TIP3    H145211   6.582   2.814   2.889  4.1776  0.1362 -0.9994
 7932TIP3    H245212   6.589   2.887   3.022  2.3024  1.4011 -1.5561
 7933TIP3   OH245213   4.787   3.600  11.364 -0.0828  0.4425  0.0962
 7933TIP3    H145214   4.798   3.575  11.455  0.6507  0.1129 -0.0759
 7933TIP3    H245215   4.824   3.688  11.358 -0.2495  0.5163  0.1419
 7934TIP3   OH245216   6.069   4.329   0.174  0.0612 -0.1770  1.2777
 7934TIP3    H145217   5.977   4.320   0.147  0.6915  0.3778 -1.4381
 7934TIP3    H245218   6.110   4.247   0.148  0.7405  0.4303  0.3574
 7935TIP3   OH245219   1.529   6.661  12.031 -0.0165 -0.1721 -0.4970
 7935TIP3    H145220   1.451   6.700  11.992 -0.2383 -0.9721 -0.8803
 7935TIP3    H245221   1.524   6.569  12.006 -0.2405 -0.7534  1.5085
 7936TIP3   OH245222   6.453   5.053   3.649  0.0527 -0.3601  0.3205
 7936TIP3    H145223   6.459   5.037   3.743  0.6007 -0.7589  0.2226
 7936TIP3    H245224   6.525   5.114   3.630  0.7131 -1.2230 -0.0299
 7937TIP3   OH245225   4.133   2.204  14.633  0.2179 -0.4156  0.2879
 7937TIP3    H145226   4.056   2.245  14.594  1.9026  2.9407  0.1883
 7937TIP3    H245227   4.116   2.110  14.626 -4.1857  0.1486  1.0349
 7938TIP3   OH245228   1.223   1.013  16.938  0.7390  0.1243  0.1551
 7938TIP3    H145229   1.259   1.096  16.969  0.1579 -0.0872  1.4591
 7938TIP3    H245230   1.208   1.026  16.844 -1.0160  2.1196  0.6377
 7939TIP3   OH245231   2.498   0.609  10.869  0.7413 -0.1407  0.1474
 7939TIP3    H145232   2.415   0.591  10.914  0.6785  1.4897  0.7734
 7939TIP3    H245233   2.488   0.569  10.783 -0.0649 -1.3178  0.7522
 7940TIP3   OH245234   2.280   0.099   3.616  0.0495 -0.1008  0.1028
 7940TIP3    H145235   2.260   0.190   3.595  0.4091 -0.1605 -0.5427
 7940TIP3    H245236   2.296   0.099   3.710  2.0282  0.9049 -0.1674
 7941TIP3   OH245237   4.613   5.630   6.186 -0.1932 -0.1890  0.4069
 7941TIP3    H145238   4.628   5.611   6.279  0.8747  0.0760  0.3076
 7941TIP3    H245239   4.701   5.644   6.151 -0.5207 -1.1699 -0.8459
 7942TIP3   OH245240   4.764   2.349  17.011  0.4095 -0.4869  0.1511
 7942TIP3    H145241   4.827   2.276  17.017 -0.5160 -1.2717  0.6600
 7942TIP3    H245242   4.818   2.427  17.000  1.4126 -1.3159 -0.9913
 7943TIP3   OH245243   0.795   3.855   4.908  0.3321  0.5177 -0.1189
 7943TIP3    H145244   0.806   3.846   4.814 -2.1437 -0.0067 -0.4275
 7943TIP3    H245245   0.738   3.931   4.919 -0.8294 -0.4326  0.8004
 7944TIP3   OH245246   2.862   5.631   0.773 -0.3725  0.0443 -0.0597
 7944TIP3    H145247   2.885   5.541   0.798  1.7702  0.7477  0.7402
 7944TIP3    H245248   2.778   5.647   0.816 -0.1760 -1.1558  0.8371
 7945TIP3   OH245249   1.338   3.924   0.360  0.0155 -0.1953 -0.5513
 7945TIP3    H145250   1.428   3.957   0.365  0.1752 -0.3001 -2.0305
 7945TIP3    H245251   1.321   3.886   0.446  1.7259 -0.9676 -0.5057
 7946TIP3   OH245252   5.105   6.376  14.408  0.2756  0.1967  0.6173
 7946TIP3    H145253   5.139   6.412  14.327  0.6431 -1.1378  0.1491
 7946TIP3    H245254   5.038   6.439  14.436 -0.1771  0.4642 -0.9559
 7947TIP3   OH245255   0.723   2.494  15.643 -0.0057 -0.4651 -0.0619
 7947TIP3    H145256   0.789   2.551  15.603  0.3382 -1.2662 -0.6559
 7947TIP3    H245257   0.685   2.445  15.570 -0.9541 -0.3431  0.3261
 7948TIP3   OH245258   6.699   0.206   2.366 -0.2643 -0.2473  0.2415
 7948TIP3    H145259   6.716   0.254   2.447  0.6042  0.1748 -0.1754
 7948TIP3    H245260   6.703   0.114   2.392 -0.6860 -0.1081  0.8103
 7949TIP3   OH245261   4.362   0.120  15.671  0.7713  0.5393 -0.4070
 7949TIP3    H145262   4.267   0.130  15.682  0.9402  0.9073  0.9128
 7949TIP3    H245263   4.392   0.209  15.651  1.0144  0.7383  0.7789
 7950TIP3   OH245264   0.493   2.350   4.312 -0.1861 -0.1756  0.4520
 7950TIP3    H145265   0.569   2.303   4.348  0.3517 -0.2010 -0.6835
 7950TIP3    H245266   0.428   2.347   4.382  0.6186 -0.7397  1.1968
 7951TIP3   OH245267   4.597   6.618   3.654 -0.5084 -0.3752 -0.1272
 7951TIP3    H145268   4.574   6.574   3.736 -1.3959  0.8285  0.2867
 7951TIP3    H245269   4.665   6.680   3.678 -0.2367 -0.5416 -0.4558
 7952TIP3   OH245270   2.664   2.919  13.523 -0.3073 -0.3418  0.3451
 7952TIP3    H145271   2.627   2.959  13.602 -0.4244  0.0360  0.1034
 7952TIP3    H245272   2.600   2.853  13.497  0.0492 -0.9207  0.9389
 7953TIP3   OH245273   4.868   2.637  11.855 -0.1979 -0.1562  0.2328
 7953TIP3    H145274   4.800   2.582  11.816 -0.8285  0.0119  1.0681
 7953TIP3    H245275   4.902   2.689  11.782  0.1424 -1.3622 -0.4995
 7954TIP3   OH245276   2.323   2.123   6.308  0.4685 -0.2099 -0.2369
 7954TIP3    H145277   2.228   2.122   6.304  0.4014  0.9731  0.6607
 7954TIP3    H245278   2.346   2.050   6.366 -0.1157  1.5581  2.3966
 7955TIP3   OH245279   3.317   1.396   0.589  0.5841  0.3939  0.1704
 7955TIP3    H145280   3.234   1.378   0.544  0.6749 -1.3534  0.6231
 7955TIP3    H245281   3.378   1.418   0.518 -0.3618  2.2596 -0.1200
 7956TIP3   OH245282   4.857   0.272  13.120 -0.3297 -0.4847  0.0479
 7956TIP3    H145283   4.915   0.301  13.190 -0.0110 -0.7953 -0.0820
 7956TIP3    H245284   4.909   0.207  13.072 -0.4845 -0.1545 -0.5754
 7957TIP3   OH245285   1.833   4.662  15.193  0.0824 -0.3530  0.5653
 7957TIP3    H145286   1.797   4.745  15.164 -0.1732  0.3087  2.6621
 7957TIP3    H245287   1.881   4.629  15.117 -0.0876  1.5403 -0.4073
 7958TIP3   OH245288   5.782   5.328  14.125 -0.4341  0.0894  0.1925
 7958TIP3    H145289   5.722   5.334  14.050 -0.3724  0.8474  0.2019
 7958TIP3    H245290   5.730   5.284  14.193 -0.1043 -1.7264 -0.6708
 7959TIP3   OH245291   1.118   0.724  14.749 -0.0004  0.1609 -0.3837
 7959TIP3    H145292   1.095   0.760  14.663 -1.6543 -1.5501 -0.7111
 7959TIP3    H245293   1.204   0.684  14.736  0.0800  0.5275 -1.0415
 7960TIP3   OH245294   4.197   1.510   5.684 -0.1668 -0.4358 -0.2270
 7960TIP3    H145295   4.263   1.457   5.641 -1.0888 -0.7079 -1.3535
 7960TIP3    H245296   4.174   1.461   5.763  0.8098 -0.4369  0.0659
 7961TIP3   OH245297   5.669   3.914  15.085 -0.5229 -0.0166 -0.0408
 7961TIP3    H145298   5.743   3.959  15.126  0.3725 -1.5883  0.1522
 7961TIP3    H245299   5.633   3.978  15.022 -0.3990  1.5490  1.4154
 7962TIP3   OH245300   5.621   4.085  11.042 -0.1761  0.0263  0.4188
 7962TIP3    H145301   5.632   4.082  10.947  3.0480 -0.8097  0.7217
 7962TIP3    H245302   5.576   4.002  11.062 -3.5049  1.4153 -0.4763
 7963TIP3   OH245303   4.605   0.750   3.993 -0.5213  0.7386 -0.0414
 7963TIP3    H145304   4.701   0.746   4.000 -0.5048  0.5702 -0.3943
 7963TIP3    H245305   4.582   0.828   4.044 -0.1841  0.8696 -0.0844
 7964TIP3   OH245306   0.303   5.390   0.391 -0.4858 -0.3338 -0.4740
 7964TIP3    H145307   0.285   5.328   0.462 -0.8982  0.6414  0.3012
 7964TIP3    H245308   0.398   5.389   0.382 -0.4708 -0.8915 -0.2973
 7965TIP3   OH245309   4.547   5.894  11.561  0.3504  0.8817 -0.5265
 7965TIP3    H145310   4.474   5.927  11.614 -1.3292 -0.5613 -1.8016
 7965TIP3    H245311   4.562   5.962  11.495  1.7641  2.2149  1.0640
 7966TIP3   OH245312   2.398   4.631  13.344  0.0855  0.1776 -0.3902
 7966TIP3    H145313   2.355   4.606  13.425  0.7422 -0.9836 -0.3848
 7966TIP3    H245314   2.394   4.553  13.289  0.5290  0.6380 -1.0965
 7967TIP3   OH245315   2.478   1.392   1.829 -0.0096 -0.2107 -0.1555
 7967TIP3    H145316   2.488   1.404   1.735  0.1572 -2.5184 -0.4972
 7967TIP3    H245317   2.566   1.368   1.860  1.0830  4.7648  1.4768
 7968TIP3   OH245318   5.600   4.690  12.349  0.1878 -0.1000  0.0471
 7968TIP3    H145319   5.594   4.612  12.293  1.0509 -0.9341  1.0714
 7968TIP3    H245320   5.575   4.762  12.292  0.9630 -0.9249 -1.3997
 7969TIP3   OH245321   1.499   2.805   3.835  0.0205  0.3595  0.0344
 7969TIP3    H145322   1.508   2.720   3.792 -0.7431 -0.1943  0.9235
 7969TIP3    H245323   1.417   2.841   3.800 -0.3806  0.0970  0.6806
 7970TIP3   OH245324   2.877   1.608  15.049  0.7129 -0.6154  0.4979
 7970TIP3    H145325   2.788   1.635  15.028  1.2280  0.7549 -0.0298
 7970TIP3    H245326   2.898   1.656  15.129  0.9296 -1.0530  0.7056
 7971TIP3   OH245327   2.036   2.153   6.269 -0.0209  0.0185 -0.1677
 7971TIP3    H145328   2.027   2.093   6.195  0.2386 -0.3169  0.0635
 7971TIP3    H245329   1.971   2.123   6.332 -1.0719  1.0533 -0.7361
 7972TIP3   OH245330   1.571   2.268  13.536  0.0132 -0.0372  0.0535
 7972TIP3    H145331   1.598   2.336  13.598  1.5259  0.7048 -1.3623
 7972TIP3    H245332   1.515   2.209  13.588 -0.8036  1.8967  1.4784
 7973TIP3   OH245333   3.443   5.716  15.771  0.4978  0.0472 -1.0880
 7973TIP3    H145334   3.433   5.809  15.747  0.0898  0.1671 -0.4825
 7973TIP3    H245335   3.427   5.714  15.865 -1.5212 -0.9218 -1.3937
 7974TIP3   OH245336   1.248   5.720  13.367 -0.0973 -0.1952  0.0715
 7974TIP3    H145337   1.189   5.653  13.399 -1.1606  1.5324  1.9012
 7974TIP3    H245338   1.329   5.707  13.417 -0.6857  0.5331  1.2589
 7975TIP3   OH245339   4.306   5.411   2.862  0.2129 -0.4317 -0.5853
 7975TIP3    H145340   4.325   5.502   2.884  0.4362 -0.7128  0.4058
 7975TIP3    H245341   4.212   5.402   2.877  0.3119 -0.5442 -0.0395
 7976TIP3   OH245342   1.828   2.906  11.391  0.5785  0.4338 -0.5609
 7976TIP3    H145343   1.919   2.935  11.384  0.0343  1.9985 -1.9188
 7976TIP3    H245344   1.788   2.931  11.307 -1.4518  1.1520  0.5356
 7977TIP3   OH245345   4.018   0.060   2.975  0.0489 -0.0485 -0.0812
 7977TIP3    H145346   3.958  -0.013   2.965 -0.8301  0.6408  0.1027
 7977TIP3    H245347   3.980   0.131   2.923  0.5248  0.5000  0.3037
 7978TIP3   OH245348   1.958   6.069   3.917  0.1442 -0.2089 -0.5772
 7978TIP3    H145349   2.031   6.131   3.916 -1.4010  1.7002 -0.6515
 7978TIP3    H245350   1.993   5.990   3.875  1.7969  1.0529 -1.7028
 7979TIP3   OH245351   5.250   4.060   6.568 -0.4720 -0.3921 -0.5940
 7979TIP3    H145352   5.331   4.030   6.526 -0.1373 -1.6431  0.8244
 7979TIP3    H245353   5.188   3.988   6.554 -1.0304  0.1289 -0.8231
 7980TIP3   OH245354   1.573   6.378   3.715 -0.0393 -0.0107 -0.3285
 7980TIP3    H145355   1.626   6.304   3.746  1.5753  1.0074 -0.5263
 7980TIP3    H245356   1.607   6.396   3.627 -0.6730  0.7186 -0.4324
 7981TIP3   OH245357   0.684   0.234  14.594 -0.0492 -0.2200  0.4885
 7981TIP3    H145358   0.724   0.234  14.681  1.6327  0.0371 -0.2499
 7981TIP3    H245359   0.694   0.325  14.564  1.1649 -0.7306 -0.7316
 7982TIP3   OH245360   3.886   4.987  12.946  0.2184  0.1006  0.5138
 7982TIP3    H145361   3.912   5.007  13.037 -0.6799 -0.0829  0.8208
 7982TIP3    H245362   3.960   5.018  12.893 -0.4637  3.0032  1.0740
 7983TIP3   OH245363   2.531   2.712  16.753 -0.4975 -0.2293 -0.6662
 7983TIP3    H145364   2.547   2.800  16.721 -0.4818  0.0135 -0.0001
 7983TIP3    H245365   2.486   2.724  16.837 -1.5130 -0.8640 -1.0892
 7984TIP3   OH245366   3.396   6.017   4.519 -0.4043 -0.1063  0.2849
 7984TIP3    H145367   3.318   6.036   4.466  0.3476  3.0384  0.1447
 7984TIP3    H245368   3.470   6.031   4.459  0.3851 -3.4845  0.2776
 7985TIP3   OH245369   5.077   2.764  10.919  0.0985 -0.5828  0.4279
 7985TIP3    H145370   5.087   2.712  10.999 -0.8944 -0.0893  0.8943
 7985TIP3    H245371   5.158   2.815  10.913  1.2249 -2.3348 -0.1876
 7986TIP3   OH245372   0.690   1.976   5.289  0.4609  0.2400  0.6203
 7986TIP3    H145373   0.688   1.934   5.203  2.5659  1.5303 -0.1433
 7986TIP3    H245374   0.725   1.910   5.348  0.3066 -0.2192  0.2024
 7987TIP3   OH245375   4.125   5.034   1.815  0.6743 -0.1754 -0.2097
 7987TIP3    H145376   4.038   5.012   1.780  1.4009 -1.7610 -1.1168
 7987TIP3    H245377   4.131   5.128   1.805 -0.3117 -0.2380 -1.6556
 7988TIP3   OH245378   5.577   4.577  13.246 -0.5406  0.2119  0.0758
 7988TIP3    H145379   5.544   4.638  13.312  1.3048 -1.3789  2.6352
 7988TIP3    H245380   5.515   4.503  13.249 -0.9705  0.5315 -0.6834
 7989TIP3   OH245381   2.239   5.924  11.578 -0.1446  0.0387  0.0688
 7989TIP3    H145382   2.298   5.878  11.518  0.1481 -0.6644  0.8782
 7989TIP3    H245383   2.152   5.915  11.538  0.0513 -0.4067 -0.2662
 7990TIP3   OH245384   2.727   5.251   0.404  1.4222 -0.4890 -0.6872
 7990TIP3    H145385   2.754   5.343   0.412  0.4743 -0.0926 -1.8462
 7990TIP3    H245386   2.679   5.233   0.484 -0.3219  0.7257 -1.4112
 7991TIP3   OH245387   6.493   1.005   5.657  0.3784 -0.2764 -0.0865
 7991TIP3    H145388   6.423   1.068   5.674 -0.5492 -1.4602  0.6515
 7991TIP3    H245389   6.449   0.920   5.656  1.5921 -0.9187 -1.1154
 7992TIP3   OH245390   5.196   0.206   1.951  0.0245  0.1795 -0.1586
 7992TIP3    H145391   5.192   0.289   1.998  0.9768  0.3850 -0.4217
 7992TIP3    H245392   5.108   0.169   1.961 -0.3052  1.0404  0.2718
 7993TIP3   OH245393   1.440   1.180  11.553  0.1713 -0.8741 -0.3801
 7993TIP3    H145394   1.508   1.149  11.612  1.9620  0.7075 -1.4749
 7993TIP3    H245395   1.454   1.275  11.548 -2.4861 -0.3898 -0.2621
 7994TIP3   OH245396   3.814   3.992   0.899  0.0531  0.5253  0.4213
 7994TIP3    H145397   3.883   3.932   0.927 -0.3635 -0.1417  0.0363
 7994TIP3    H245398   3.827   4.070   0.953  1.1443  0.4340  0.3120
 7995TIP3   OH245399   2.403   6.647   5.161  0.3653  1.1318  0.0552
 7995TIP3    H145400   2.350   6.596   5.099 -0.4134  0.2377  1.4169
 7995TIP3    H245401   2.451   6.580   5.210  1.7345  1.8756 -0.2203
 7996TIP3   OH245402   0.139   1.469   2.964  0.0039  0.0032 -0.6241
 7996TIP3    H145403   0.161   1.456   3.056 -1.3734 -0.8227 -0.3798
 7996TIP3    H245404   0.150   1.563   2.950  1.7654 -0.0825 -0.0617
 7997TIP3   OH245405   5.142   0.665   1.191  0.2362 -0.3843 -0.5960
 7997TIP3    H145406   5.217   0.612   1.166  0.3971  0.7007 -2.6070
 7997TIP3    H245407   5.092   0.676   1.109 -1.5162 -0.1558  0.4517
 7998TIP3   OH245408   5.379   4.143  14.028  0.0074 -0.5135  0.1412
 7998TIP3    H145409   5.457   4.198  14.014 -0.6404  0.4392  0.1440
 7998TIP3    H245410   5.385   4.116  14.119 -0.0001  0.1068  0.3310
 7999TIP3   OH245411   0.622   3.764   3.444 -0.9310  0.4788  0.0511
 7999TIP3    H145412   0.693   3.755   3.508 -0.1493  1.5661 -0.6360
 7999TIP3    H245413   0.659   3.733   3.362 -0.8093  2.2269 -0.5913
 8000TIP3   OH245414   4.014   4.357  15.508  0.1820  0.5682  0.0951
 8000TIP3    H145415   4.008   4.264  15.487  1.3923  0.3135  0.7613
 8000TIP3    H245416   4.095   4.364  15.559 -0.5166  1.8024  1.0641
 8001TIP3   OH245417   4.160   4.297  12.026 -0.1595 -0.3951 -0.4228
 8001TIP3    H145418   4.238   4.338  12.063 -0.8551  0.1376  0.5036
 8001TIP3    H245419   4.182   4.204  12.021  0.8764 -0.1182 -1.0865
 8002TIP3   OH245420   5.893   6.768  14.370 -0.3347 -0.2389 -0.5958
 8002TIP3    H145421   5.810   6.808  14.343 -0.8800 -1.3468 -0.6388
 8002TIP3    H245422   5.882   6.751  14.463  0.1424  0.2736 -0.4381
 8003TIP3   OH245423   5.876   1.314   4.675 -0.2962  0.0636 -0.5996
 8003TIP3    H145424   5.862   1.240   4.734  1.1459 -0.1711 -0.5324
 8003TIP3    H245425   5.907   1.385   4.732 -0.3709  0.3145 -0.8657
 8004TIP3   OH245426   0.115   0.561  14.018  0.0279  0.5361 -0.0584
 8004TIP3    H145427   0.167   0.481  14.019  1.9126  1.6784  1.8008
 8004TIP3    H245428   0.096   0.577  13.926 -0.1688 -1.8683 -0.4885
 8005TIP3   OH245429   4.928   0.680   5.625  0.5069  0.2814 -0.3786
 8005TIP3    H145430   5.006   0.727   5.655 -0.1966  1.3606 -0.1761
 8005TIP3    H245431   4.943   0.665   5.532  0.8277  0.7703 -0.4108
 8006TIP3   OH245432   3.219   2.177   2.864 -0.2068  0.0639  0.3190
 8006TIP3    H145433   3.244   2.229   2.941  0.5660  1.3555 -0.7603
 8006TIP3    H245434   3.289   2.112   2.856 -0.4563 -0.2809  0.8801
 8007TIP3   OH245435   2.627   5.305  10.576  0.0740  0.1323 -0.2361
 8007TIP3    H145436   2.706   5.292  10.629 -0.3750 -0.6767  0.2586
 8007TIP3    H245437   2.578   5.373  10.623  0.0933  0.0567 -0.1076
 8008TIP3   OH245438   6.137   5.218   4.807 -0.3426  0.4408  0.2516
 8008TIP3    H145439   6.182   5.136   4.784  0.1557  0.7846  0.0040
 8008TIP3    H245440   6.081   5.236   4.731  1.4065  1.6510 -0.8055
 8009TIP3   OH245441   5.368   5.679   3.065 -0.9009 -0.1578  0.0321
 8009TIP3    H145442   5.341   5.706   3.153 -0.6821 -0.0725  0.0740
 8009TIP3    H245443   5.324   5.595   3.051 -0.0455 -0.7342  0.6774
 8010TIP3   OH245444   4.106   0.556   5.414 -0.2847  0.2290 -0.2046
 8010TIP3    H145445   4.104   0.651   5.410 -1.7351  0.2046 -0.9922
 8010TIP3    H245446   4.013   0.530   5.414  0.0605 -1.1607  0.8416
 8011TIP3   OH245447   6.121   0.223  13.740 -0.0447  0.2958 -0.1391
 8011TIP3    H145448   6.124   0.229  13.836 -1.4105  1.9449 -0.1566
 8011TIP3    H245449   6.041   0.172  13.722 -0.0529  0.3996 -0.3999
 8012TIP3   OH245450   1.261   4.287  14.535 -0.4194 -0.1444 -0.1234
 8012TIP3    H145451   1.236   4.306  14.626 -1.1768 -0.3613 -0.2784
 8012TIP3    H245452   1.352   4.316  14.529 -1.1171  2.3236 -0.0159
 8013TIP3   OH245453   3.299   0.237  14.524  0.2865 -1.0021 -0.2643
 8013TIP3    H145454   3.254   0.318  14.498 -0.2446 -1.4998 -0.9296
 8013TIP3    H245455   3.367   0.266  14.584 -0.7760 -0.1976  0.5912
 8014TIP3   OH245456   2.634   5.279   5.630  0.1301  0.0412  0.6443
 8014TIP3    H145457   2.613   5.211   5.693 -0.3357 -0.3468  0.0793
 8014TIP3    H245458   2.665   5.232   5.553 -4.0167  0.1147 -1.3273
 8015TIP3   OH245459   6.793   1.654   1.730  0.3771  0.2254 -0.4899
 8015TIP3    H145460   6.727   1.701   1.780 -2.1401 -1.0232 -2.4020
 8015TIP3    H245461   6.792   1.695   1.643 -0.5103 -1.9841 -1.6137
 8016TIP3   OH245462   3.054   3.268   0.045  0.2653 -0.1631 -0.0961
 8016TIP3    H145463   2.982   3.301  -0.010  0.1517  0.6261  0.5044
 8016TIP3    H245464   3.037   3.175   0.053 -1.6767  0.2632  1.4099
 8017TIP3   OH245465   5.090   1.812   4.918 -0.3674 -0.5239  0.5162
 8017TIP3    H145466   5.160   1.812   4.853 -0.3344  1.2715  0.5060
 8017TIP3    H245467   5.013   1.783   4.870 -1.0502  3.5563 -1.2467
 8018TIP3   OH245468   5.864   0.960  15.290 -0.3116  0.0075 -0.6578
 8018TIP3    H145469   5.795   1.025  15.307 -1.6566 -1.5421  0.1006
 8018TIP3    H245470   5.861   0.947  15.195 -1.0779 -0.0204 -0.6423
 8019TIP3   OH245471   5.700   0.160  12.030 -0.1849  0.3092 -0.4535
 8019TIP3    H145472   5.671   0.111  11.953 -1.4388 -1.0538  0.8163
 8019TIP3    H245473   5.778   0.114  12.060  0.9616  1.4982 -1.4849
 8020TIP3   OH245474   1.578   2.084   5.668  0.2960  0.0685 -0.4848
 8020TIP3    H145475   1.584   2.170   5.628 -1.5241 -0.0625 -1.1133
 8020TIP3    H245476   1.548   2.100   5.757 -0.3513  0.0808 -0.7003
 8021TIP3   OH245477   5.612   1.145   4.647 -0.0228  0.2035 -0.7173
 8021TIP3    H145478   5.684   1.127   4.708  0.2896 -0.5372 -1.2877
 8021TIP3    H245479   5.542   1.085   4.674 -0.9592  1.8335  0.6757
 8022TIP3   OH245480   3.315   1.638   2.124  0.5225 -0.0729  0.1339
 8022TIP3    H145481   3.299   1.673   2.212  0.4575 -0.8648  0.4448
 8022TIP3    H245482   3.229   1.634   2.084 -0.0884 -3.4694  1.4812
 8023TIP3   OH245483   1.019   2.096   5.995 -0.4503 -0.1939 -0.4408
 8023TIP3    H145484   1.034   2.055   6.080  0.4130 -0.7188 -0.8387
 8023TIP3    H245485   0.946   2.157   6.010  0.0917  0.1607  0.8115
 8024TIP3   OH245486   1.836   4.669  14.322 -0.0144 -0.2508  0.8643
 8024TIP3    H145487   1.844   4.757  14.284  0.7099 -0.7227 -0.1234
 8024TIP3    H245488   1.845   4.610  14.247 -2.0733 -1.1617  1.2611
 8025TIP3   OH245489   2.872   5.727  11.639 -0.3306  0.8600 -0.1273
 8025TIP3    H145490   2.913   5.669  11.703  0.6791 -0.1647 -1.6415
 8025TIP3    H245491   2.789   5.752  11.679 -1.7002 -3.0558 -0.1120
 8026TIP3   OH245492   2.469   3.198  11.811 -0.0068  0.0717 -0.1964
 8026TIP3    H145493   2.539   3.142  11.776  1.4156  0.7956  1.3650
 8026TIP3    H245494   2.503   3.287  11.804 -0.4114  0.3752  1.3341
 8027TIP3   OH245495   0.206   4.027   1.390 -0.2139 -0.1636  0.6264
 8027TIP3    H145496   0.299   4.037   1.410 -0.2023 -0.1263  0.5573
 8027TIP3    H245497   0.170   4.116   1.399 -0.0356  0.0296 -0.3633
 8028TIP3   OH245498   6.580   3.568  13.687  0.1946  0.5927 -0.0348
 8028TIP3    H145499   6.592   3.586  13.594 -1.4854  0.9276 -0.2073
 8028TIP3    H245500   6.503   3.513  13.692  1.4894 -1.2467  1.0262
 8029TIP3   OH245501   3.251   2.707  10.129  0.1316  0.1945 -0.1081
 8029TIP3    H145502   3.334   2.744  10.099  0.8172 -0.5194  0.8239
 8029TIP3    H245503   3.270   2.615  10.146 -0.9055 -0.0276 -0.0643
 8030TIP3   OH245504   1.441   3.906   2.917 -0.3878 -0.2643  0.2027
 8030TIP3    H145505   1.378   3.854   2.867  0.0288  0.1231 -0.7495
 8030TIP3    H245506   1.475   3.969   2.854  1.8279 -1.2239  0.3636
 8031TIP3   OH245507   2.063   1.470  16.756  0.2041 -0.0788  0.2169
 8031TIP3    H145508   2.089   1.424  16.676 -0.3468 -1.4973  0.8227
 8031TIP3    H245509   2.123   1.437  16.823 -0.0852  0.2205  0.6251
 8032TIP3   OH245510   2.565   6.105   4.194 -0.3712  0.1320  0.2397
 8032TIP3    H145511   2.595   6.116   4.104 -0.1749  1.3832  0.4382
 8032TIP3    H245512   2.628   6.154   4.247 -1.7310  1.3203  0.8346
 8033TIP3   OH245513   1.181   3.970   5.404  0.2191  0.5058  0.3937
 8033TIP3    H145514   1.123   3.910   5.356 -0.1507  2.6587 -2.0500
 8033TIP3    H245515   1.220   4.025   5.336  0.8635  2.7845  2.4841
 8034TIP3   OH245516   5.315   2.093  16.088  0.9925  0.8174 -0.0762
 8034TIP3    H145517   5.292   2.099  15.995  1.3736 -1.0796 -0.3468
 8034TIP3    H245518   5.257   2.155  16.131 -0.5053  0.3963 -1.3856
 8035TIP3   OH245519   3.295   3.671  15.917  0.5959  0.4151 -0.0087
 8035TIP3    H145520   3.203   3.647  15.924  0.2783  1.9034  1.4768
 8035TIP3    H245521   3.336   3.635  15.996  1.0337  0.8035 -0.0562
 8036TIP3   OH245522   3.549   1.935   4.514 -0.5201 -0.5103 -0.1967
 8036TIP3    H145523   3.571   1.861   4.458 -1.9656 -2.7487  1.9275
 8036TIP3    H245524   3.621   1.939   4.577 -0.1609  0.2964 -0.6524
 8037TIP3   OH245525   1.768   1.626  16.437  0.6269  0.1214  0.3689
 8037TIP3    H145526   1.856   1.649  16.466  1.1423 -0.6582 -0.5212
 8037TIP3    H245527   1.782   1.570  16.361 -0.6553  0.7820 -0.3784
 8038TIP3   OH245528   1.525   0.142   5.230  0.4501  0.0809  0.3056
 8038TIP3    H145529   1.524   0.076   5.299 -0.8414  1.6493  1.8824
 8038TIP3    H245530   1.603   0.194   5.246  0.4867  0.0584  0.2026
 8039TIP3   OH245531   1.471   1.617  11.171  0.0909  0.3946 -0.1162
 8039TIP3    H145532   1.457   1.646  11.081  0.0172 -1.6831 -0.8281
 8039TIP3    H245533   1.518   1.534  11.162  0.7959  0.5401  1.8010
 8040TIP3   OH245534   5.941   5.010  16.160  0.4605 -0.2323  0.1199
 8040TIP3    H145535   5.853   5.004  16.124  0.7987 -0.1079 -0.7504
 8040TIP3    H245536   5.983   4.927  16.135  0.7842 -0.0359  0.0003
 8041TIP3   OH245537   1.694   5.544  12.989  0.0490  0.2254  0.0424
 8041TIP3    H145538   1.729   5.633  12.988 -1.6998  0.9428 -0.0551
 8041TIP3    H245539   1.756   5.494  12.935  1.4007  1.2154  0.6135
 8042TIP3   OH245540   4.517   1.896  14.538  0.0049 -0.5522 -0.5068
 8042TIP3    H145541   4.428   1.869  14.561 -0.0069 -0.3671 -0.3358
 8042TIP3    H245542   4.570   1.867  14.611 -0.0349  0.0526 -0.2329
 8043TIP3   OH245543   0.471   6.439   6.480  0.4132 -0.4011  0.1668
 8043TIP3    H145544   0.529   6.486   6.539  0.4343 -2.6094  2.0122
 8043TIP3    H245545   0.524   6.368   6.445 -0.2715 -0.4836 -0.7662
 8044TIP3   OH245546   0.674   1.109  13.087  0.6606  0.4120  0.4942
 8044TIP3    H145547   0.650   1.191  13.043  0.6773  0.2569  0.1907
 8044TIP3    H245548   0.597   1.088  13.141 -0.4683 -0.7623 -1.4552
 8045TIP3   OH245549   3.465   2.732  16.262 -0.4127 -0.4844  0.0170
 8045TIP3    H145550   3.371   2.745  16.249 -0.0560  1.3264 -1.1715
 8045TIP3    H245551   3.479   2.744  16.356 -1.3192 -0.3654  0.1397
 8046TIP3   OH245552   1.551   3.012  17.120  0.6150  0.2579  0.4768
 8046TIP3    H145553   1.605   2.999  17.198  1.1658  0.2853  0.1070
 8046TIP3    H245554   1.533   3.106  17.119  0.5219  0.2412  0.6301
 8047TIP3   OH245555   6.709   6.013   6.697  0.2985 -0.1781 -0.3258
 8047TIP3    H145556   6.678   6.104   6.703 -1.4705 -0.7081 -0.7311
 8047TIP3    H245557   6.779   6.017   6.632  0.1454  0.8753 -0.4576
 8048TIP3   OH245558   3.982   3.328  13.667  0.4317 -0.2920  0.2569
 8048TIP3    H145559   3.980   3.260  13.735 -1.4320  0.4759  1.0276
 8048TIP3    H245560   3.961   3.409  13.713 -3.0666 -0.0393 -1.4748
 8049TIP3   OH245561   2.364   6.495   4.471 -0.2171  0.2913  0.3810
 8049TIP3    H145562   2.270   6.476   4.482 -0.4695 -0.4143 -2.4052
 8049TIP3    H245563   2.366   6.577   4.423  0.5960  0.2456  0.3352
 8050TIP3   OH245564   3.643   5.244  16.215  0.5895 -0.0994  0.0401
 8050TIP3    H145565   3.637   5.273  16.306  1.2175 -0.0758  0.0810
 8050TIP3    H245566   3.618   5.152  16.217 -0.7022  0.2342  0.0272
 8051TIP3   OH245567   3.814   2.931   4.205  0.7179  0.0319 -0.0423
 8051TIP3    H145568   3.791   2.858   4.148  3.1632 -1.1193  0.3192
 8051TIP3    H245569   3.797   2.899   4.294 -0.5787  0.8662  0.0427
 8052TIP3   OH245570   0.696   4.357  17.132  0.1370 -0.2234  0.2632
 8052TIP3    H145571   0.757   4.405  17.188 -0.7494 -1.2129  2.2005
 8052TIP3    H245572   0.730   4.369  17.043  1.1595  2.1098  0.8899
 8053TIP3   OH245573   1.104   1.256  16.528  0.6612 -0.5210  0.0642
 8053TIP3    H145574   1.155   1.299  16.460 -0.5148  1.1489  0.1606
 8053TIP3    H245575   1.168   1.203  16.576  1.7602 -0.6474 -1.4594
 8054TIP3   OH245576   3.393   0.772   2.998  0.2836 -0.0052 -0.4515
 8054TIP3    H145577   3.390   0.798   3.090  2.1226  0.5259 -0.4912
 8054TIP3    H245578   3.362   0.682   2.997  0.8350 -0.2359  0.8073
 8055TIP3   OH245579   6.541   5.456   4.802 -0.0347 -0.1369 -0.7946
 8055TIP3    H145580   6.612   5.394   4.787  0.2480  0.2661 -1.1690
 8055TIP3    H245581   6.473   5.405   4.846  0.7461 -0.3691  0.1812
 8056TIP3   OH245582   3.917   3.872  11.875  0.3960  0.1439  0.1668
 8056TIP3    H145583   3.863   3.949  11.889  2.6896  2.2788 -1.8054
 8056TIP3    H245584   3.858   3.809  11.833 -1.1345  1.4193  0.3094
 8057TIP3   OH245585   3.572   1.153   4.821 -0.1354  0.0150 -0.3032
 8057TIP3    H145586   3.493   1.198   4.793 -0.0339  1.4371  1.5069
 8057TIP3    H245587   3.632   1.223   4.846  0.9119 -1.0795  0.3690
 8058TIP3   OH245588   4.837   2.275  10.833  0.5568  0.0198  0.7154
 8058TIP3    H145589   4.818   2.203  10.773  0.2798 -0.1242  0.9743
 8058TIP3    H245590   4.845   2.352  10.777  0.2392 -0.1016  0.5029
 8059TIP3   OH245591   3.334   2.652   3.400 -0.0964 -0.6388 -0.1740
 8059TIP3    H145592   3.390   2.672   3.474  0.0630  0.0710 -0.4767
 8059TIP3    H245593   3.376   2.694   3.325 -0.3420 -1.1997 -0.6404
 8060TIP3   OH245594   1.254   3.449   4.241 -0.4930 -0.0569  0.2886
 8060TIP3    H145595   1.345   3.421   4.229 -1.1613 -1.9479 -0.7817
 8060TIP3    H245596   1.204   3.368   4.236 -2.3657  1.0988 -0.5370
 8061TIP3   OH245597   5.568   2.904   1.544  0.0353 -0.0033  0.1168
 8061TIP3    H145598   5.481   2.938   1.525 -0.2563 -1.0152 -0.4363
 8061TIP3    H245599   5.605   2.966   1.607 -1.5492 -0.2072  1.3289
 8062TIP3   OH245600   5.209   4.808  13.105 -0.1759 -0.1236 -0.4691
 8062TIP3    H145601   5.257   4.848  13.177  2.2876 -2.0495 -0.9344
 8062TIP3    H245602   5.160   4.736  13.145  2.2611 -2.0699 -0.7872
 8063TIP3   OH245603   0.104   2.237  14.704  0.4723 -0.3724  0.0996
 8063TIP3    H145604   0.014   2.267  14.718  0.0507 -0.9385 -1.2633
 8063TIP3    H245605   0.119   2.174  14.774  0.5337  1.1638  1.5427
 8064TIP3   OH245606   1.855   3.208   4.222  0.5853  1.2331  0.6727
 8064TIP3    H145607   1.867   3.113   4.213 -0.8678  1.0731  0.2726
 8064TIP3    H245608   1.945   3.242   4.224  1.1685  0.0447 -1.4255
 8065TIP3   OH245609   4.456   1.490  14.627 -0.0846 -0.6098 -0.3344
 8065TIP3    H145610   4.430   1.401  14.649 -0.3042 -0.6581 -0.7893
 8065TIP3    H245611   4.404   1.545  14.686  0.8533 -0.8183  0.7129
 8066TIP3   OH245612   6.521   1.774  12.116 -0.3105  0.3954  0.8070
 8066TIP3    H145613   6.529   1.780  12.021  1.2312 -0.8568  0.8088
 8066TIP3    H245614   6.492   1.683  12.131 -1.5720  0.8879  1.5167
 8067TIP3   OH245615   4.832   4.879   4.776 -0.1318 -0.1959  0.1777
 8067TIP3    H145616   4.871   4.815   4.716 -0.2215  0.6119 -0.7599
 8067TIP3    H245617   4.756   4.833   4.813  1.0157 -1.3939  1.1937
 8068TIP3   OH245618   4.846   6.494   0.136 -0.5481  0.1607 -0.3177
 8068TIP3    H145619   4.860   6.503   0.231 -1.9364  0.6215 -0.1329
 8068TIP3    H245620   4.766   6.543   0.119 -0.9229 -0.8234 -1.5519
 8069TIP3   OH245621   5.501   1.656  13.838  0.4230  0.3102  0.8675
 8069TIP3    H145622   5.566   1.640  13.906  0.3460  0.4771  0.9812
 8069TIP3    H245623   5.430   1.701  13.884  0.9690  1.6754  0.3990
 8070TIP3   OH245624   3.672   6.127  16.444  0.2712 -0.0202 -0.1925
 8070TIP3    H145625   3.638   6.128  16.354  0.7333  0.9690 -0.3708
 8070TIP3    H245626   3.731   6.202  16.448  0.6182 -0.3298  0.8083
 8071TIP3   OH245627   4.799   4.375  16.595  0.5124 -0.0654 -0.1481
 8071TIP3    H145628   4.847   4.458  16.593  0.6086 -0.0407 -3.5918
 8071TIP3    H245629   4.716   4.397  16.639  0.8000  1.7089 -0.4027
 8072TIP3   OH245630   5.880   2.820   5.795  0.4253  0.6680  0.0106
 8072TIP3    H145631   5.879   2.911   5.823  1.6762  0.6497  0.1504
 8072TIP3    H245632   5.929   2.774   5.863 -3.1403 -0.7932  1.8261
 8073TIP3   OH245633   3.552   2.710  15.997  0.0694 -0.4208 -0.3604
 8073TIP3    H145634   3.531   2.716  16.090  0.5166  0.7995 -0.3110
 8073TIP3    H245635   3.470   2.688  15.955 -0.5786  0.9507  0.1410
 8074TIP3   OH245636   1.992   5.437  15.532  0.2919  0.0659 -0.7301
 8074TIP3    H145637   1.949   5.419  15.615  1.3923  1.0930  0.0938
 8074TIP3    H245638   1.922   5.465  15.473 -0.0785  3.1666  0.9927
 8075TIP3   OH245639   1.745   6.476   5.533  1.0996  0.2158  0.3313
 8075TIP3    H145640   1.780   6.562   5.554 -0.0273  0.5932  0.7419
 8075TIP3    H245641   1.715   6.483   5.443  1.4127  0.1125  0.2181
 8076TIP3   OH245642   2.006   3.222  16.410 -0.5325 -0.6135  0.0408
 8076TIP3    H145643   2.100   3.231  16.426 -0.1988 -1.3349 -1.3614
 8076TIP3    H245644   1.984   3.134  16.442 -0.4655 -0.9140 -0.7113
 8077TIP3   OH245645   1.858   3.546  14.148 -0.3083 -0.4472  0.3073
 8077TIP3    H145646   1.848   3.519  14.239 -2.2358  1.4867  0.7651
 8077TIP3    H245647   1.918   3.621  14.151  0.8967 -1.3588 -0.2585
 8078TIP3   OH245648   5.405   1.580  14.252  0.1213 -0.4301  0.4389
 8078TIP3    H145649   5.402   1.510  14.318  0.3707 -0.7687  0.0962
 8078TIP3    H245650   5.473   1.552  14.191  0.1120  0.0379  0.2100
 8079TIP3   OH245651   1.867   2.637   4.753 -0.1364 -0.1408  0.2962
 8079TIP3    H145652   1.850   2.656   4.661  0.1072  1.3683  0.5493
 8079TIP3    H245653   1.786   2.663   4.798  0.9429  2.4211  0.9047
 8080TIP3   OH245654   6.212   6.541  10.697 -0.9447  0.0598  0.4737
 8080TIP3    H145655   6.236   6.598  10.624 -1.4686 -0.1699  0.1205
 8080TIP3    H245656   6.278   6.559  10.764 -0.6886  0.5547  0.0914
 8081TIP3   OH245657   1.770   3.386   1.275  0.3919 -0.8827 -0.2894
 8081TIP3    H145658   1.720   3.410   1.197  1.1398 -0.6996 -0.7241
 8081TIP3    H245659   1.800   3.470   1.310 -0.5214 -0.9091  0.6066
 8082TIP3   OH245660   3.874   2.107   3.188 -0.0772 -0.2382  0.0017
 8082TIP3    H145661   3.783   2.098   3.216 -0.1408 -0.7794 -0.3615
 8082TIP3    H245662   3.917   2.149   3.262 -0.2950 -1.4458  0.8461
 8083TIP3   OH245663   0.185   0.879  14.783  0.5661  0.1704 -0.1080
 8083TIP3    H145664   0.120   0.841  14.724  0.5594 -0.6000  0.3897
 8083TIP3    H245665   0.243   0.806  14.806  3.1917  1.2658 -2.5204
 8084TIP3   OH245666   3.927   0.005   4.317  0.0817  0.2059 -0.3894
 8084TIP3    H145667   4.000  -0.052   4.339 -0.6551 -0.4357  0.5213
 8084TIP3    H245668   3.918  -0.001   4.222  0.7063 -0.3270 -0.4177
 8085TIP3   OH245669   1.926   3.746  10.806 -0.2456 -0.2627 -0.0803
 8085TIP3    H145670   1.896   3.778  10.721  0.3423 -1.6926 -0.8597
 8085TIP3    H245671   1.989   3.812  10.835 -1.1764  0.7384 -0.2682
 8086TIP3   OH245672   5.445   3.386  13.449 -0.6589  0.6857 -0.2006
 8086TIP3    H145673   5.375   3.426  13.397  0.5189  0.0056 -2.4805
 8086TIP3    H245674   5.444   3.294  13.422  1.9117  0.9033 -1.3919
 8087TIP3   OH245675   3.282   1.305  13.344 -0.1418  0.7016 -0.5782
 8087TIP3    H145676   3.274   1.379  13.284  1.0290  0.6324 -0.8527
 8087TIP3    H245677   3.294   1.345  13.430 -0.9149  0.8103 -0.5165
 8088TIP3   OH245678   0.544   5.061   5.645 -1.0231  0.0775  0.4973
 8088TIP3    H145679   0.547   5.078   5.551 -0.1596 -0.7977  0.3552
 8088TIP3    H245680   0.533   4.966   5.652 -0.4095  0.0548  1.2732
 8089TIP3   OH245681   4.277   0.608  13.018 -0.0634  0.1413  0.1982
 8089TIP3    H145682   4.210   0.547  12.988 -0.0877  0.1447  0.2436
 8089TIP3    H245683   4.311   0.568  13.098 -0.6596  0.5900  0.6914
 8090TIP3   OH245684   3.934   5.791  13.354 -0.3758 -0.1448  0.0407
 8090TIP3    H145685   3.872   5.738  13.405  0.5202 -0.7753  0.4949
 8090TIP3    H245686   3.999   5.729  13.323 -0.0389  0.4936 -0.5604
 8091TIP3   OH245687   1.992   5.747  12.612 -0.1414 -0.3503 -0.4159
 8091TIP3    H145688   2.015   5.678  12.550 -1.0868 -1.6475  0.6118
 8091TIP3    H245689   2.072   5.761  12.662 -0.0894 -1.1171 -0.2682
 8092TIP3   OH245690   3.569   1.914   1.144 -0.9656  0.5024 -0.6908
 8092TIP3    H145691   3.630   1.862   1.091  0.3969  0.7059  0.6203
 8092TIP3    H245692   3.488   1.863   1.145  0.4245 -1.8460  0.8744
 8093TIP3   OH245693   5.030   3.361  11.219  0.1441 -0.4838  0.4030
 8093TIP3    H145694   4.964   3.422  11.187 -0.8440 -1.0776  1.2588
 8093TIP3    H245695   5.110   3.385  11.172 -0.5641  0.5465 -0.3043
 8094TIP3   OH245696   6.757   0.380  16.489 -0.7798  0.4909 -0.2114
 8094TIP3    H145697   6.808   0.311  16.531  0.8092  1.7039 -0.0419
 8094TIP3    H245698   6.734   0.439  16.561  0.9818  1.9878 -0.8072
 8095TIP3   OH245699   4.316   1.248  14.654 -0.1179  0.2464  0.0960
 8095TIP3    H145700   4.221   1.258  14.654 -0.3725 -1.8252  0.3529
 8095TIP3    H245701   4.343   1.278  14.741 -0.9632 -2.1851  1.2758
 8096TIP3   OH245702   0.762   1.980   0.977  0.1483 -0.0130 -0.4260
 8096TIP3    H145703   0.855   1.957   0.975 -0.3599 -2.4114  0.3100
 8096TIP3    H245704   0.718   1.906   0.937 -1.6001  0.0453  1.2453
 8097TIP3   OH245705   4.992   5.598  10.341 -0.1359 -0.9831  0.2551
 8097TIP3    H145706   5.069   5.611  10.396  0.5487 -0.7499 -0.7405
 8097TIP3    H245707   4.921   5.642  10.388  0.2001 -1.6638  1.4527
 8098TIP3   OH245708   2.096   0.414   4.920 -0.1898 -0.1469 -0.3362
 8098TIP3    H145709   2.043   0.353   4.869  0.0117  0.4720 -1.3075
 8098TIP3    H245710   2.177   0.424   4.871 -0.4047  1.2591 -0.4698
 8099TIP3   OH245711   0.161   6.346   3.925  0.2054  1.1005 -0.4161
 8099TIP3    H145712   0.246   6.313   3.953 -0.5477 -1.8079 -1.2084
 8099TIP3    H245713   0.179   6.389   3.841  0.8399 -0.0760 -0.9079
 8100TIP3   OH245714   4.147   5.968   2.228 -0.1504 -0.5728 -0.3501
 8100TIP3    H145715   4.205   5.900   2.193  2.0981  0.5970  0.8795
 8100TIP3    H245716   4.171   6.047   2.180 -0.7275 -0.0495  0.2029
 8101TIP3   OH245717   1.741   2.422  16.377  0.1780  0.1436 -0.3801
 8101TIP3    H145718   1.779   2.510  16.383 -1.0176  0.6210  0.7403
 8101TIP3    H245719   1.813   2.363  16.398  0.7969  0.9098 -0.3202
 8102TIP3   OH245720   6.414   6.131   5.525 -0.0081  0.0719 -0.1475
 8102TIP3    H145721   6.424   6.037   5.543 -1.0163 -0.2551 -1.1377
 8102TIP3    H245722   6.431   6.138   5.431 -1.7372  0.5682 -0.4604
 8103TIP3   OH245723   2.556   2.449   2.344  0.3894  0.1639 -0.2360
 8103TIP3    H145724   2.509   2.377   2.301 -0.1876  1.2352 -1.4761
 8103TIP3    H245725   2.619   2.406   2.401  0.0525 -1.3224 -0.9403
 8104TIP3   OH245726   5.475   3.050   1.184 -0.0811  0.0685 -0.5233
 8104TIP3    H145727   5.454   3.079   1.273  2.1569  0.1670  0.0337
 8104TIP3    H245728   5.441   3.119   1.128  0.2344  0.9958  0.3950
 8105TIP3   OH245729   6.630   6.720  15.592  0.5605 -0.6831  0.2857
 8105TIP3    H145730   6.565   6.654  15.617  1.1084 -2.1876 -1.9569
 8105TIP3    H245731   6.710   6.692  15.635  0.5332 -0.8259  0.2436
 8106TIP3   OH245732   0.198   5.057  13.598 -0.5546 -0.1011  0.4065
 8106TIP3    H145733   0.141   5.131  13.578 -1.1558 -0.9898 -1.3799
 8106TIP3    H245734   0.198   5.005  13.518  1.3298 -1.0796  0.9898
 8107TIP3   OH245735   5.440   4.776  11.720 -0.5620  0.1965  0.4492
 8107TIP3    H145736   5.417   4.822  11.639 -1.0828 -1.9001 -0.6668
 8107TIP3    H245737   5.361   4.726  11.742  0.0763 -0.4240  1.4075
 8108TIP3   OH245738   6.200   6.705   6.103  0.3484 -0.4036  0.0683
 8108TIP3    H145739   6.170   6.666   6.021 -1.3202 -1.8807  1.3065
 8108TIP3    H245740   6.133   6.770   6.125  1.5740  1.1062 -0.4499
 8109TIP3   OH245741   0.066   3.485  12.379 -0.3572 -0.1551 -0.2982
 8109TIP3    H145742   0.075   3.580  12.389  1.4430 -0.4534  1.6803
 8109TIP3    H245743  -0.014   3.474  12.326  0.0158  2.4476 -1.5670
 8110TIP3   OH245744   3.102   4.892   0.393  0.2276 -0.2342  0.1342
 8110TIP3    H145745   3.081   4.836   0.468  1.6053 -0.9148  0.0511
 8110TIP3    H245746   3.165   4.955   0.428 -0.1034  0.2510 -0.1514
 8111TIP3   OH245747   6.105   1.932   0.385  0.1967 -0.2918  0.2036
 8111TIP3    H145748   6.186   1.974   0.416  0.4182 -1.5303  1.4208
 8111TIP3    H245749   6.119   1.838   0.401 -0.9125 -0.6811 -0.9395
 8112TIP3   OH245750   3.493   6.662   4.217  0.7396 -0.0850 -0.2444
 8112TIP3    H145751   3.523   6.691   4.303  0.5976 -1.1642  0.1801
 8112TIP3    H245752   3.398   6.664   4.222  0.6520  2.3127 -1.2476
 8113TIP3   OH245753   3.649   5.296  14.287 -0.2009 -0.1023  0.0083
 8113TIP3    H145754   3.649   5.276  14.193 -0.4545 -0.2210  0.0332
 8113TIP3    H245755   3.557   5.314  14.308 -0.3086 -1.1556  0.4668
 8114TIP3   OH245756   0.002   2.391  15.928 -0.4469  0.1668  1.0507
 8114TIP3    H145757   0.079   2.384  15.985 -0.2972 -0.8905  0.7342
 8114TIP3    H245758  -0.073   2.377  15.987 -0.3206 -0.3801  1.0832
 8115TIP3   OH245759   1.004   3.047  13.507 -0.5098 -0.2353  0.2225
 8115TIP3    H145760   1.053   3.125  13.533 -0.2501 -0.5580  0.7113
 8115TIP3    H245761   1.015   2.986  13.580 -1.9651 -0.1734  0.5297
 8116TIP3   OH245762   3.641   3.254   5.104  0.0669 -0.5071 -0.0749
 8116TIP3    H145763   3.594   3.272   5.023  0.3880 -0.5023 -0.2612
 8116TIP3    H245764   3.579   3.278   5.173 -0.7368 -1.8056 -0.2961
 8117TIP3   OH245765   0.471   4.331   0.707 -0.0626  0.3231 -0.0661
 8117TIP3    H145766   0.411   4.269   0.665 -1.8442  0.3872  2.2182
 8117TIP3    H245767   0.431   4.416   0.693 -0.2106  0.4312  0.9225
 8118TIP3   OH245768   6.198   4.956  11.990  0.1595  0.2800 -0.3198
 8118TIP3    H145769   6.268   4.891  11.981  0.2557  0.5518 -1.7714
 8118TIP3    H245770   6.119   4.905  12.007  0.2841 -0.2115 -1.1722
 8119TIP3   OH245771   2.816   1.303  12.832  0.6729  0.0547  0.1917
 8119TIP3    H145772   2.782   1.223  12.791  0.3060 -0.3837  1.3077
 8119TIP3    H245773   2.799   1.372  12.768 -0.5679 -0.4828 -0.0920
 8120TIP3   OH245774   0.546   1.407   3.510  0.6296  0.5453 -0.2213
 8120TIP3    H145775   0.510   1.331   3.555  0.0233  0.5530 -0.6730
 8120TIP3    H245776   0.608   1.445   3.572  0.8717 -0.2607  0.0448
 8121TIP3   OH245777   2.201   5.740  11.158 -0.7978 -0.6795 -0.1752
 8121TIP3    H145778   2.158   5.825  11.168  0.4017  0.0928 -1.2531
 8121TIP3    H245779   2.147   5.693  11.095 -1.1641 -0.5163  0.0119
 8122TIP3   OH245780   4.851   0.094   0.076 -0.7310  0.0003 -0.2674
 8122TIP3    H145781   4.809   0.051   0.150  0.8360  0.0268  0.6813
 8122TIP3    H245782   4.837   0.188   0.091 -0.3976  0.0067  0.0242
 8123TIP3   OH245783   2.619   6.061  14.483  0.6071 -0.5178 -0.5414
 8123TIP3    H145784   2.648   6.094  14.398  1.5946 -2.7016 -1.1464
 8123TIP3    H245785   2.550   5.998  14.461  0.7804 -1.0042  0.2727
 8124TIP3   OH245786   1.829   1.873   1.290 -0.1182 -0.1033 -0.6480
 8124TIP3    H145787   1.827   1.937   1.219  0.0255 -0.0684 -0.6215
 8124TIP3    H245788   1.812   1.789   1.248 -0.0414 -0.0814 -0.7218
 8125TIP3   OH245789   4.989   5.685  16.705 -0.2676 -0.0378  0.1957
 8125TIP3    H145790   5.016   5.658  16.793  0.6674 -0.1494 -0.1135
 8125TIP3    H245791   4.969   5.603  16.660  1.3095 -0.1755 -0.3351
 8126TIP3   OH245792   0.313   3.361  17.153  0.0300  0.5713 -0.0016
 8126TIP3    H145793   0.384   3.418  17.124  0.7448 -0.0150  0.5631
 8126TIP3    H245794   0.302   3.297  17.082 -0.6173  1.2519 -0.5314
 8127TIP3   OH245795   3.884   6.293   2.376  0.3110 -0.1059 -0.2134
 8127TIP3    H145796   3.849   6.382   2.367  0.6576 -0.0368 -0.9198
 8127TIP3    H245797   3.856   6.248   2.296 -1.4860 -1.2100  0.9589
 8128TIP3   OH245798   0.857   3.964  11.188 -0.3261 -0.0201  0.4459
 8128TIP3    H145799   0.869   3.906  11.263 -0.4490 -0.1899  0.3364
 8128TIP3    H245800   0.790   3.920  11.135  0.1889 -0.1977 -0.0587
 8129TIP3   OH245801   0.247   1.845  13.929 -0.4618 -0.6035 -0.3288
 8129TIP3    H145802   0.221   1.757  13.953  1.0033 -0.8409  0.4978
 8129TIP3    H245803   0.210   1.859  13.842 -2.2177 -1.3474  0.2745
 8130TIP3   OH245804   0.568   1.666   5.241 -0.1715 -0.6468 -0.9333
 8130TIP3    H145805   0.548   1.575   5.264 -2.1728 -0.2621 -0.8963
 8130TIP3    H245806   0.659   1.678   5.265 -0.1453 -2.3715 -0.0208
 8131TIP3   OH245807   4.649   3.966  11.448  0.2132  0.4811 -0.2963
 8131TIP3    H145808   4.707   3.895  11.474 -0.1379  0.0445 -0.6949
 8131TIP3    H245809   4.658   3.970  11.352 -2.3105 -1.2820 -0.6871
 8132TIP3   OH245810   3.149   3.189  13.724 -0.1374  0.3059 -0.6392
 8132TIP3    H145811   3.152   3.272  13.771  0.2733 -0.7959  1.4098
 8132TIP3    H245812   3.106   3.129  13.784  1.6830 -1.5436 -1.0656
 8133TIP3   OH245813   0.008   4.612  13.377  0.5294 -0.2815  0.1136
 8133TIP3    H145814  -0.053   4.630  13.306  0.5209  1.1675  0.4536
 8133TIP3    H245815   0.051   4.530  13.352 -0.4712 -0.5290 -0.8601
 8134TIP3   OH245816   5.835   1.649  13.048 -0.7998 -0.0884 -0.1114
 8134TIP3    H145817   5.806   1.608  13.129  0.2505 -0.1582  0.2388
 8134TIP3    H245818   5.917   1.605  13.026 -0.6941  0.4360 -0.8191
 8135TIP3   OH245819   5.076   5.098   3.129 -0.6495 -0.1770 -0.5175
 8135TIP3    H145820   5.048   5.017   3.086  0.2073 -0.3670 -0.7314
 8135TIP3    H245821   5.060   5.166   3.064 -2.0188 -0.0608 -0.0887
 8136TIP3   OH245822   3.314   5.565   1.171  0.4992 -0.6698  0.5656
 8136TIP3    H145823   3.243   5.559   1.234  0.1434  0.5958  0.3082
 8136TIP3    H245824   3.387   5.605   1.219 -1.2484  5.1367 -0.8044
 8137TIP3   OH245825   0.567   2.855  16.505 -0.2312 -0.5441 -0.6330
 8137TIP3    H145826   0.581   2.784  16.567 -0.5377 -0.9722 -1.0471
 8137TIP3    H245827   0.487   2.899  16.536 -0.6938 -1.0949 -1.0292
 8138TIP3   OH245828   3.870   5.764   1.764  0.7311  0.1331 -0.6283
 8138TIP3    H145829   3.791   5.747   1.712 -0.5769  0.8364  1.0429
 8138TIP3    H245830   3.894   5.854   1.742 -0.9568  1.1320  1.3008
 8139TIP3   OH245831   2.544   4.586   3.072  0.2831  0.0410  0.7615
 8139TIP3    H145832   2.491   4.546   3.003  2.6597 -0.0914 -1.1147
 8139TIP3    H245833   2.485   4.591   3.148 -2.9426  1.5484 -1.6145
 8140TIP3   OH245834   4.435   6.746  15.913  0.2982 -0.1177  0.4319
 8140TIP3    H145835   4.418   6.840  15.901  1.4984  0.5303  2.9976
 8140TIP3    H245836   4.529   6.737  15.894  0.8900 -0.1238  2.9106
 8141TIP3   OH245837   6.446   0.022   2.433 -0.0325  0.6692 -0.1195
 8141TIP3    H145838   6.420   0.114   2.433  1.0768  0.9943 -0.1300
 8141TIP3    H245839   6.512   0.016   2.502  0.2467 -0.0254 -0.4420
 8142TIP3   OH245840   2.656   4.734  14.443  0.2220  0.1836 -0.5511
 8142TIP3    H145841   2.627   4.825  14.454 -0.5941 -0.0055 -1.0695
 8142TIP3    H245842   2.688   4.730  14.353 -0.5256 -0.2422 -0.8061
 8143TIP3   OH245843   2.691   2.889  16.592  0.1667 -0.2699 -0.7582
 8143TIP3    H145844   2.763   2.944  16.562  0.3475 -1.3042 -2.3902
 8143TIP3    H245845   2.621   2.904  16.528 -0.3563 -0.7249 -0.3096
 8144TIP3   OH245846   1.717   2.621  14.983  0.3317 -0.2619  0.1621
 8144TIP3    H145847   1.649   2.568  15.025  0.3752 -0.2330  0.2684
 8144TIP3    H245848   1.739   2.572  14.904 -1.2356  0.7230 -0.9378
 8145TIP3   OH245849   5.535   5.946  13.571  0.0177  0.3245 -0.0760
 8145TIP3    H145850   5.493   5.865  13.603  0.5415 -0.3116 -0.9522
 8145TIP3    H245851   5.621   5.918  13.540  1.2583  1.6605  1.9481
 8146TIP3   OH245852   1.417   0.480   3.808 -0.1386 -0.3718 -0.1674
 8146TIP3    H145853   1.355   0.407   3.811  1.8362 -2.2186 -1.2096
 8146TIP3    H245854   1.394   0.528   3.729 -1.0594 -0.2425  0.1738
 8147TIP3   OH245855   4.063   2.501   3.322  0.7227  0.2224 -0.0148
 8147TIP3    H145856   4.009   2.541   3.390  3.7790  1.2709  1.9642
 8147TIP3    H245857   4.097   2.575   3.272 -0.1622 -0.4583 -1.7217
 8148TIP3   OH245858   4.060   0.356  12.909  0.0001  0.4063 -0.2306
 8148TIP3    H145859   4.122   0.307  12.964 -0.2497 -0.3284 -0.5965
 8148TIP3    H245860   3.976   0.347  12.954  0.0341  0.8645 -0.0731
 8149TIP3   OH245861   5.067   1.415   3.947 -0.0507  0.0774 -0.5555
 8149TIP3    H145862   5.142   1.372   3.990 -1.2999 -1.2121  0.4351
 8149TIP3    H245863   5.080   1.398   3.854  0.4706 -0.8233 -0.3306
 8150TIP3   OH245864   1.043   1.081  16.079 -0.3294 -0.0497  0.3201
 8150TIP3    H145865   1.086   1.042  16.155  0.1226  0.8359  0.5209
 8150TIP3    H245866   1.049   1.175  16.093  0.5089  0.1643 -1.2082
 8151TIP3   OH245867   5.719   5.342   1.820  0.0117  0.0537  0.4296
 8151TIP3    H145868   5.811   5.316   1.818 -0.1742 -0.7324  1.4333
 8151TIP3    H245869   5.675   5.277   1.765 -0.0174  0.1120  0.3843
 8152TIP3   OH245870   0.293   2.722  13.707  0.4608  0.0021 -0.0201
 8152TIP3    H145871   0.346   2.778  13.650 -0.1471  0.8231  0.1915
 8152TIP3    H245872   0.347   2.711  13.785  0.6427  0.1912 -0.1158
 8153TIP3   OH245873   6.736   1.289   2.311  0.0035 -0.3187 -0.1834
 8153TIP3    H145874   6.721   1.311   2.403  0.6412 -0.0574 -0.1380
 8153TIP3    H245875   6.830   1.298   2.299 -0.2707  1.4643 -1.3271
 8154TIP3   OH245876   4.420   1.053  12.686  0.6262 -0.1854 -0.6583
 8154TIP3    H145877   4.444   1.128  12.740 -0.5891  0.5382 -1.1043
 8154TIP3    H245878   4.473   1.063  12.607  0.5156  0.1659 -0.6899
 8155TIP3   OH245879   1.165   0.118   1.646 -0.5375 -0.6207 -0.2876
 8155TIP3    H145880   1.191   0.208   1.627 -0.9368 -0.1014  1.4370
 8155TIP3    H245881   1.220   0.064   1.588  1.0878  0.6343  0.0246
 8156TIP3   OH245882   6.746   0.401   5.728  0.4642  0.1144 -0.2232
 8156TIP3    H145883   6.788   0.318   5.749 -0.3526 -0.7258 -1.7768
 8156TIP3    H245884   6.682   0.380   5.660  0.7681  2.1321 -1.2277
 8157TIP3   OH245885   2.301   0.356  12.398 -0.0775  0.1426  0.5181
 8157TIP3    H145886   2.241   0.343  12.471  0.0369  1.0905  0.7824
 8157TIP3    H245887   2.372   0.293  12.414 -0.3586 -0.0907  0.8781
 8158TIP3   OH245888   0.326   6.568   2.519 -0.4523  0.3072 -0.0029
 8158TIP3    H145889   0.402   6.607   2.562 -0.2957 -0.2809  0.2722
 8158TIP3    H245890   0.255   6.580   2.582 -0.0865 -1.1086  0.7282
 8159TIP3   OH245891   4.371   3.868  12.950 -0.0823  0.5698 -0.9139
 8159TIP3    H145892   4.402   3.924  12.879 -0.0768  0.1710 -1.2273
 8159TIP3    H245893   4.393   3.779  12.922  0.7346  0.4660 -0.0174
 8160TIP3   OH245894   2.319   1.676  14.940  0.2595 -0.2026  0.1113
 8160TIP3    H145895   2.252   1.727  14.986 -1.0857 -0.1272 -1.8454
 8160TIP3    H245896   2.304   1.586  14.967 -0.2795 -0.1160  0.0960
 8161TIP3   OH245897   0.239   2.670   4.183  0.4927 -0.2822 -0.0230
 8161TIP3    H145898   0.276   2.759   4.184  0.1629 -0.1413  1.8382
 8161TIP3    H245899   0.291   2.622   4.247  0.0993 -1.2211 -0.3967
 8162TIP3   OH245900   3.103   0.079  13.020  0.0146 -0.1137  0.1571
 8162TIP3    H145901   3.099  -0.017  13.024 -0.5431 -0.0787  0.5887
 8162TIP3    H245902   3.023   0.105  12.974  0.0093  0.1581  0.3161
 8163TIP3   OH245903   1.805   4.359  13.036  0.3607  0.4436  0.0216
 8163TIP3    H145904   1.861   4.428  13.071 -1.4688  2.1908 -0.2870
 8163TIP3    H245905   1.858   4.280  13.041  2.8306  1.9765 -0.2768
 8164TIP3   OH245906   0.948   0.881   6.683  0.4361  0.4926  1.0307
 8164TIP3    H145907   0.916   0.847   6.599  2.5741  0.9325 -0.0350
 8164TIP3    H245908   0.891   0.840   6.749 -0.8772 -0.3846 -0.5716
 8165TIP3   OH245909   3.449   2.820   3.188  0.5350  0.0056  0.7048
 8165TIP3    H145910   3.459   2.915   3.182 -0.2260  0.0645  0.1950
 8165TIP3    H245911   3.517   2.785   3.130 -0.0653  0.2930 -0.2057
 8166TIP3   OH245912   0.346   6.002  12.010  0.0969 -0.3875  0.1482
 8166TIP3    H145913   0.381   5.941  12.075  2.6165 -0.0256 -0.7719
 8166TIP3    H245914   0.302   5.946  11.946  0.8201 -1.0800  0.2473
 8167TIP3   OH245915   5.706   6.796   0.037  0.2001  0.1839  0.5833
 8167TIP3    H145916   5.738   6.815  -0.051  0.8849  0.6232  0.9230
 8167TIP3    H245917   5.748   6.713   0.061 -0.7765 -0.4706  0.1135
 8168TIP3   OH245918   3.602   3.770   1.098  0.3293 -0.5014  0.3928
 8168TIP3    H145919   3.587   3.721   1.178 -0.3293 -1.6706 -0.4236
 8168TIP3    H245920   3.638   3.705   1.036 -1.7599 -0.3135 -1.1152
 8169TIP3   OH245921   0.313   4.517  11.574  0.3265  0.6577  0.2340
 8169TIP3    H145922   0.290   4.567  11.495  1.9422 -0.4965 -1.0452
 8169TIP3    H245923   0.397   4.554  11.602  1.6850 -1.4258 -0.8955
 8170TIP3   OH245924   1.202   1.475   1.396  0.1860 -0.7594 -0.5152
 8170TIP3    H145925   1.219   1.385   1.367  2.2082  0.1647 -2.4589
 8170TIP3    H245926   1.282   1.500   1.443  0.2106  0.4525 -1.1825
 8171TIP3   OH245927   1.080   3.767   1.641  0.1700  0.1221  0.4109
 8171TIP3    H145928   1.083   3.704   1.713 -1.7708 -1.8437 -1.0988
 8171TIP3    H245929   1.105   3.850   1.681  2.0915 -1.4095  2.6696
 8172TIP3   OH245930   4.037   5.340   2.863 -0.3860 -0.8338 -0.4520
 8172TIP3    H145931   4.071   5.254   2.840  1.8121  0.2381 -1.6574
 8172TIP3    H245932   3.975   5.324   2.934 -0.7518 -3.4583 -1.2560
 8173TIP3   OH245933   6.266   1.326  14.710  0.2478  0.0983 -0.5929
 8173TIP3    H145934   6.213   1.262  14.757 -0.0955  1.3072  0.7443
 8173TIP3    H245935   6.207   1.363  14.644 -0.8448  1.8362  1.2481
 8174TIP3   OH245936   3.448   2.339   3.552  0.0102 -0.1325 -0.2267
 8174TIP3    H145937   3.371   2.385   3.519 -1.6966 -1.3517  1.7475
 8174TIP3    H245938   3.427   2.246   3.539  0.6800 -0.5153  1.2632
 8175TIP3   OH245939   2.474   2.345  16.939  0.5902 -0.6192 -0.0026
 8175TIP3    H145940   2.476   2.398  17.019  2.0647 -2.4653  1.2693
 8175TIP3    H245941   2.453   2.257  16.969  0.9780 -1.3253 -1.7021
 8176TIP3   OH245942   5.318   0.215  14.981 -0.2182 -0.7053 -0.1026
 8176TIP3    H145943   5.403   0.260  14.985  0.2151 -1.5365  0.4060
 8176TIP3    H245944   5.328   0.140  15.040 -1.6336 -0.2685  0.7356
 8177TIP3   OH245945   6.381   3.362   3.118 -0.6549 -0.0394  0.0173
 8177TIP3    H145946   6.369   3.280   3.069 -0.4913 -0.2930  0.4034
 8177TIP3    H245947   6.427   3.420   3.057  2.8608 -1.5179  1.0053
 8178TIP3   OH245948   4.088   0.215   1.604  0.5692 -0.2445 -0.6812
 8178TIP3    H145949   4.072   0.292   1.550 -1.3573 -0.2287 -0.1796
 8178TIP3    H245950   4.031   0.147   1.567 -1.6240  0.0565  1.8087
 8179TIP3   OH245951   2.536   1.338   5.139 -0.5935  0.1627 -0.1001
 8179TIP3    H145952   2.591   1.380   5.072 -2.4522 -0.0890 -1.8732
 8179TIP3    H245953   2.587   1.262   5.167  0.3312  0.3712 -1.1182
 8180TIP3   OH245954   2.388   0.017  14.873 -0.1259 -0.0331 -0.0790
 8180TIP3    H145955   2.397  -0.029  14.790  1.8156  2.4524 -1.3683
 8180TIP3    H245956   2.331   0.091  14.854 -0.2600  0.1591  1.0072
 8181TIP3   OH245957   1.597   5.449  11.849 -0.3500  0.1820  0.6418
 8181TIP3    H145958   1.502   5.452  11.833  0.0116  1.7991 -1.8973
 8181TIP3    H245959   1.615   5.358  11.870 -2.2577 -0.5642 -0.6304
 8182TIP3   OH245960   6.409   0.653  12.458  0.6990 -0.0235 -0.1250
 8182TIP3    H145961   6.358   0.671  12.537 -0.7946 -0.6962 -0.9018
 8182TIP3    H245962   6.456   0.735  12.441  0.3928  0.4058  0.9768
 8183TIP3   OH245963   5.293   5.606  15.558 -0.1577 -0.1385 -0.1388
 8183TIP3    H145964   5.288   5.657  15.639 -0.0244 -2.3410  1.3369
 8183TIP3    H245965   5.376   5.558  15.566 -0.7991 -1.4094 -0.9324
 8184TIP3   OH245966   4.185   2.600   5.832  0.9233 -0.0207 -0.5387
 8184TIP3    H145967   4.199   2.568   5.921  0.5006 -0.9452 -0.7937
 8184TIP3    H245968   4.239   2.679   5.826  0.4037  0.4562  0.7566
 8185TIP3   OH245969   2.237   0.474   0.480 -0.4230 -0.4301 -0.1150
 8185TIP3    H145970   2.322   0.510   0.503 -0.5399 -0.0167 -0.3291
 8185TIP3    H245971   2.247   0.444   0.390 -0.9539  1.0635 -0.7034
 8186TIP3   OH245972   2.595   3.729  12.315 -0.1502 -0.1925  0.1068
 8186TIP3    H145973   2.621   3.643  12.347  1.4572  0.6172  1.0606
 8186TIP3    H245974   2.502   3.719  12.292 -0.2761 -1.8767  1.2197
 8187TIP3   OH245975   2.116   3.037   5.232  0.0384  0.3032 -0.0927
 8187TIP3    H145976   2.206   3.059   5.259 -0.0598  1.1577 -0.4453
 8187TIP3    H245977   2.067   3.118   5.241 -1.1982 -0.5789  1.9709
 8188TIP3   OH245978   1.411   6.793   3.991 -0.1002 -0.1282  0.3592
 8188TIP3    H145979   1.327   6.772   4.032 -0.6538 -1.1217 -1.1805
 8188TIP3    H245980   1.477   6.767   4.056 -0.9671 -0.3278  1.1750
 8189TIP3   OH245981   4.082   4.161  14.646 -0.1561 -0.1068 -0.4024
 8189TIP3    H145982   3.994   4.156  14.683 -0.1647  1.0473 -0.2228
 8189TIP3    H245983   4.120   4.239  14.687  0.5463  0.0413 -1.3216
 8190TIP3   OH245984   1.430   0.310   2.517 -0.6649 -0.0180  0.8156
 8190TIP3    H145985   1.412   0.403   2.501 -1.3155 -0.1347  0.8366
 8190TIP3    H245986   1.447   0.306   2.611  1.0546  0.3355  0.5474
 8191TIP3   OH245987   6.515   2.779   3.873 -0.2405 -0.0805 -0.1018
 8191TIP3    H145988   6.523   2.874   3.860 -1.4698  0.1145  0.3656
 8191TIP3    H245989   6.421   2.764   3.879 -0.0725 -1.3948 -0.5289
 8192TIP3   OH245990   6.673   4.220  13.421 -0.4366  0.4933 -0.4960
 8192TIP3    H145991   6.756   4.258  13.449  0.5785 -1.0554 -1.2577
 8192TIP3    H245992   6.649   4.162  13.494  0.7213 -1.3157 -1.4688
 8193TIP3   OH245993   3.763   2.348  13.146  0.3064 -0.1438  0.4528
 8193TIP3    H145994   3.671   2.324  13.157  0.7007 -1.2107  1.7258
 8193TIP3    H245995   3.763   2.413  13.076 -1.5718  0.8641  1.3203
 8194TIP3   OH245996   2.750   4.174  12.297 -0.2138 -0.1818  0.3250
 8194TIP3    H145997   2.796   4.187  12.214  0.1406  1.6524  0.7780
 8194TIP3    H245998   2.806   4.112  12.345  0.4233  0.0035 -0.1537
 8195TIP3   OH245999   2.805   3.934  13.287  0.1508  0.0715  0.1470
 8195TIP3    H146000   2.752   3.880  13.346  0.0796  0.2218  0.2210
 8195TIP3    H246001   2.895   3.908  13.306  0.0449 -1.3695 -1.1268
 8196TIP3   OH246002   6.176   4.120  13.318  0.0972  0.0036  0.3553
 8196TIP3    H146003   6.156   4.055  13.385  1.4381 -0.0840  0.7082
 8196TIP3    H246004   6.096   4.173  13.310 -0.6650 -1.0551  0.7730
 8197TIP3   OH246005   3.968   2.244  12.020  0.6565  0.2322  0.1293
 8197TIP3    H146006   4.062   2.260  12.031  0.9513 -1.4728  0.4232
 8197TIP3    H246007   3.945   2.290  11.939  2.3758 -1.4475 -1.4264
 8198TIP3   OH246008   3.220   4.740   2.126 -0.3239  0.0433  1.1313
 8198TIP3    H146009   3.208   4.828   2.159  0.2795  0.1393  1.1138
 8198TIP3    H246010   3.150   4.728   2.061  0.2829  0.9450  0.2772
 8199TIP3   OH246011   4.679   2.538   4.819 -0.3988 -0.0421 -0.1814
 8199TIP3    H146012   4.678   2.596   4.895  0.5498 -0.3096  0.0564
 8199TIP3    H246013   4.589   2.507   4.811 -1.2027  2.3017 -0.9820
 8200TIP3   OH246014   4.247   2.590  15.956  0.0063  0.9936  0.1516
 8200TIP3    H146015   4.160   2.627  15.975 -0.0919  0.0664  1.6945
 8200TIP3    H246016   4.305   2.634  16.019 -0.0904 -1.2653  1.9587
 8201TIP3   OH246017   2.255   3.384  16.450  0.0304 -0.3301  0.0491
 8201TIP3    H146018   2.245   3.478  16.463 -0.3348 -0.5910  1.8842
 8201TIP3    H246019   2.340   3.364  16.489  0.4370 -0.6582 -0.9876
 8202TIP3   OH246020   4.708   1.699   6.362 -0.5506  0.4435  0.0562
 8202TIP3    H146021   4.788   1.743   6.390 -0.2572 -0.5616  0.8479
 8202TIP3    H246022   4.724   1.607   6.381 -1.7950  0.1991 -0.0420
 8203TIP3   OH246023   5.180   3.078  12.667  0.4414 -0.0037 -0.5387
 8203TIP3    H146024   5.221   3.093  12.752  0.4604  0.2845 -0.5993
 8203TIP3    H246025   5.240   3.116  12.604  0.2717  0.0700 -0.6567
 8204TIP3   OH246026   4.562   1.901   0.487 -0.4145  0.0417  0.2365
 8204TIP3    H146027   4.652   1.919   0.513  0.3101 -2.0063 -0.6327
 8204TIP3    H246028   4.517   1.985   0.497  2.1438  1.7948 -1.7617
 8205TIP3   OH246029   2.384   2.351  13.299  0.0970  0.0550  0.0906
 8205TIP3    H146030   2.465   2.348  13.349  0.4373  1.8261 -0.2694
 8205TIP3    H246031   2.318   2.316  13.358  0.5418  1.7821  1.7273
 8206TIP3   OH246032   0.806   2.500  10.739 -0.2628 -0.6372  0.0036
 8206TIP3    H146033   0.751   2.573  10.766  0.6361 -0.1330  0.5260
 8206TIP3    H246034   0.889   2.540  10.713  0.0879 -1.4281 -0.1416
 8207TIP3   OH246035   0.235   4.536  12.345 -0.0872 -0.1579 -0.7403
 8207TIP3    H146036   0.270   4.556  12.258  0.0028 -1.3210 -0.9975
 8207TIP3    H246037   0.296   4.471  12.380 -0.1211  0.2977  0.2028
 8208TIP3   OH246038   6.668   5.425  15.205  0.1305 -0.5093  0.1008
 8208TIP3    H146039   6.695   5.498  15.148 -0.1097 -0.5075 -0.0169
 8208TIP3    H246040   6.729   5.354  15.184 -1.1259 -1.1631 -1.5967
 8209TIP3   OH246041   2.514   3.827   3.919  0.0823  0.1715  0.4980
 8209TIP3    H146042   2.480   3.744   3.886 -1.9922  1.2259 -0.1901
 8209TIP3    H246043   2.601   3.834   3.880 -1.2115  0.0864 -2.6516
 8210TIP3   OH246044   2.810   4.041   0.299 -0.1830 -0.4236 -0.1756
 8210TIP3    H146045   2.858   3.993   0.367 -0.4530  2.4576  2.2655
 8210TIP3    H246046   2.831   4.133   0.316 -2.4681  0.6049 -2.3270
 8211TIP3   OH246047   5.838   4.196  13.799 -0.2734  0.0909  0.3517
 8211TIP3    H146048   5.906   4.240  13.850  1.3065  1.3436 -2.6313
 8211TIP3    H246049   5.860   4.103  13.805  0.6655  0.3334  0.8462
 8212TIP3   OH246050   2.795   5.195   2.494  0.4742 -0.2946  0.6301
 8212TIP3    H146051   2.822   5.255   2.563 -2.9057  0.9519  1.0528
 8212TIP3    H246052   2.800   5.247   2.414  1.8409 -0.9141  0.2902
 8213TIP3   OH246053   4.736   5.548   2.380  0.1311  0.2075 -0.4641
 8213TIP3    H146054   4.699   5.588   2.459 -3.1587  1.1135 -2.2865
 8213TIP3    H246055   4.723   5.454   2.392 -1.9765  0.4419 -0.5967
 8214TIP3   OH246056   0.460   4.787   0.392 -0.4884 -0.0354 -0.3352
 8214TIP3    H146057   0.530   4.829   0.342  0.5341 -1.8260 -0.4776
 8214TIP3    H246058   0.475   4.815   0.482  0.4945 -0.4761 -0.3486
 8215TIP3   OH246059   2.891   2.344  11.547 -0.2021  0.1043 -0.2786
 8215TIP3    H146060   2.852   2.429  11.528 -0.6257  0.4666  2.0031
 8215TIP3    H246061   2.820   2.294  11.588  0.0603 -1.3592 -1.5188
 8216TIP3   OH246062   3.502   0.764   5.326  0.1368  0.0971  0.3155
 8216TIP3    H146063   3.471   0.771   5.417 -0.2016  0.1736  0.1974
 8216TIP3    H246064   3.581   0.817   5.324  0.9983 -1.1277  0.9391
 8217TIP3   OH246065   4.256   3.875   2.813  0.4922 -0.1272 -0.0852
 8217TIP3    H146066   4.290   3.805   2.756 -0.8968 -0.2879 -0.7439
 8217TIP3    H246067   4.267   3.954   2.761 -0.9009 -0.2911 -0.6524
 8218TIP3   OH246068   2.249   3.955  16.125  0.3982 -0.9127 -0.0749
 8218TIP3    H146069   2.258   4.044  16.093 -0.7251 -1.0039 -0.7104
 8218TIP3    H246070   2.177   3.918  16.073  0.9738 -2.2487  0.0358
 8219TIP3   OH246071   1.877   6.546  17.145  0.0497 -0.3899 -0.1679
 8219TIP3    H146072   1.872   6.483  17.074 -0.1259 -0.7315  0.1416
 8219TIP3    H246073   1.925   6.620  17.108  1.3346 -1.1876 -0.2007
 8220TIP3   OH246074   1.814   3.138   4.694 -0.3279 -0.3713  0.2302
 8220TIP3    H146075   1.739   3.108   4.746 -0.6689 -0.7071 -0.4312
 8220TIP3    H246076   1.780   3.214   4.646 -0.1948 -0.4117  0.0702
 8221TIP3   OH246077   5.212   2.486   3.619  0.0944  0.6026 -0.0255
 8221TIP3    H146078   5.300   2.452   3.636 -0.1940 -0.4234 -0.5141
 8221TIP3    H246079   5.220   2.580   3.633  1.6817  0.7838 -1.6859
 8222TIP3   OH246080   4.129   1.612  16.597  0.1224  0.2421  0.1061
 8222TIP3    H146081   4.057   1.674  16.612 -0.3595 -0.5094  1.0748
 8222TIP3    H246082   4.151   1.622  16.505 -0.9815  0.7633 -0.1231
 8223TIP3   OH246083   3.744   3.915   1.283 -0.0067 -0.2962 -0.2422
 8223TIP3    H146084   3.665   3.953   1.322  0.2187 -0.0396 -0.0401
 8223TIP3    H246085   3.711   3.864   1.209 -0.3381  0.0366 -0.3280
 8224TIP3   OH246086   1.678   3.947  10.299  0.2537  0.3937  0.0624
 8224TIP3    H146087   1.676   4.042  10.294  0.5428  0.3567 -1.1717
 8224TIP3    H246088   1.600   3.918  10.252  0.4347  0.0125 -0.0096
 8225TIP3   OH246089   2.383   2.893  15.742 -0.7008 -0.3415 -0.0423
 8225TIP3    H146090   2.390   2.853  15.655 -0.1373 -0.2017 -0.0664
 8225TIP3    H246091   2.473   2.893  15.776 -0.7173  0.7093  0.0385
 8226TIP3   OH246092   0.628   1.663  12.145  0.5818  0.1590 -0.0004
 8226TIP3    H146093   0.545   1.645  12.189 -0.2281 -0.2256 -1.6063
 8226TIP3    H246094   0.648   1.754  12.167 -0.6079  0.4644 -0.1081
 8227TIP3   OH246095   3.423   3.519  12.604 -0.1512  0.0780 -0.2696
 8227TIP3    H146096   3.350   3.562  12.648 -0.0945 -0.4598  0.3572
 8227TIP3    H246097   3.497   3.579  12.617 -0.6390  1.0173 -1.5981
 8228TIP3   OH246098   1.060   2.478  14.871  0.1027  0.3905  0.5432
 8228TIP3    H146099   1.117   2.410  14.906  1.3695  0.6576 -0.9151
 8228TIP3    H246100   1.118   2.551  14.852 -1.1122  1.6072  1.2859
 8229TIP3   OH246101   0.756   6.384  12.257  0.2652  0.2481 -0.1744
 8229TIP3    H146102   0.830   6.330  12.284  0.3434  0.0991 -0.6801
 8229TIP3    H246103   0.702   6.326  12.204  0.5433  0.7687 -1.0489
 8230TIP3   OH246104   4.445   4.783  12.343 -0.0030 -0.1569  0.1262
 8230TIP3    H146105   4.518   4.811  12.287  1.8309 -2.2256  1.3335
 8230TIP3    H246106   4.378   4.753  12.282  1.7725 -1.9503 -1.0525
 8231TIP3   OH246107   0.906   3.459   4.675 -0.2246 -0.2646  0.6080
 8231TIP3    H146108   0.988   3.448   4.723  0.6773  2.2164 -0.2152
 8231TIP3    H246109   0.928   3.441   4.584 -0.9984 -1.0731  0.5573
 8232TIP3   OH246110   3.723   4.032  15.287 -0.3223  0.1964 -0.3230
 8232TIP3    H146111   3.721   4.112  15.234  0.3004 -0.4636 -1.3640
 8232TIP3    H246112   3.683   3.965  15.231 -2.1472  0.0457  1.0545
 8233TIP3   OH246113   4.965   1.165   2.316  0.4911  0.0972 -0.3754
 8233TIP3    H146114   4.991   1.247   2.276  0.1994 -0.6683 -2.2496
 8233TIP3    H246115   5.013   1.098   2.267 -0.9191 -0.9731 -0.3677
 8234TIP3   OH246116   3.198   6.576   4.310  0.0324  0.0988 -0.0669
 8234TIP3    H146117   3.187   6.525   4.391 -0.3489  2.1870  1.2763
 8234TIP3    H246118   3.220   6.511   4.244  1.5357 -1.5800  1.9472
 8235TIP3   OH246119   3.193   4.967  14.041  0.0359 -0.5091 -0.5291
 8235TIP3    H146120   3.281   4.993  14.014 -0.4065  0.0763 -1.4284
 8235TIP3    H246121   3.158   5.042  14.088  0.2101 -0.9425  0.3094
 8236TIP3   OH246122   2.670   1.377  16.782  0.2200 -0.5315 -0.5276
 8236TIP3    H146123   2.609   1.325  16.730 -0.6445 -1.4299  1.2821
 8236TIP3    H246124   2.614   1.435  16.834  0.8502 -1.4327  1.2317
 8237TIP3   OH246125   1.595   1.789   6.734 -0.2584 -0.3243 -0.0174
 8237TIP3    H146126   1.520   1.746   6.693 -0.0631  1.4225 -2.4133
 8237TIP3    H246127   1.671   1.746   6.696 -0.0771  0.5078 -0.6368
 8238TIP3   OH246128   2.280   4.740  12.935 -0.0220  0.6017  0.0259
 8238TIP3    H146129   2.354   4.749  12.876 -0.7659  1.0950 -0.8627
 8238TIP3    H246130   2.218   4.808  12.908 -1.2476 -0.4519  0.0434
 8239TIP3   OH246131   6.246   0.113   2.813  0.4143  0.7945 -0.0347
 8239TIP3    H146132   6.173   0.119   2.751 -0.4036  0.7393  0.9063
 8239TIP3    H246133   6.274   0.021   2.807  1.0913  1.0516 -1.1397
 8240TIP3   OH246134   0.210   0.829  15.141  0.0376  0.1351 -0.6748
 8240TIP3    H146135   0.237   0.888  15.211 -0.8115 -0.2462  0.0066
 8240TIP3    H246136   0.258   0.748  15.159  1.6964  0.7883 -1.9834
 8241TIP3   OH246137   0.453   2.618   2.473 -0.2456 -0.5635 -0.0123
 8241TIP3    H146138   0.381   2.678   2.497  1.6205  1.4576  0.8704
 8241TIP3    H246139   0.453   2.619   2.377 -0.1496  1.0481 -0.0279
 8242TIP3   OH246140   2.575   0.086   0.732  0.5404  0.3302  0.5700
 8242TIP3    H146141   2.536   0.002   0.756  2.4793 -1.6565 -2.6346
 8242TIP3    H246142   2.644   0.100   0.797  0.8019 -1.0604  0.6254
 8243TIP3   OH246143   1.203   1.443   0.378 -0.4560 -0.1893 -0.5145
 8243TIP3    H146144   1.266   1.505   0.341 -1.2843  0.7775 -0.3670
 8243TIP3    H246145   1.119   1.488   0.371 -0.6359  0.2576  2.8630
 8244TIP3   OH246146   1.681   1.005   2.902 -0.1498 -0.1220 -0.1533
 8244TIP3    H146147   1.749   1.071   2.890 -0.3733 -0.1865 -2.0228
 8244TIP3    H246148   1.716   0.948   2.970  1.3032  0.3086 -0.4893
 8245TIP3   OH246149   1.829   2.525  15.891 -0.2226 -0.7749 -0.4878
 8245TIP3    H146150   1.756   2.484  15.937  0.7880 -0.7905  1.1600
 8245TIP3    H246151   1.833   2.480  15.807 -1.4438 -1.4809 -0.1880
 8246TIP3   OH246152   5.646   1.176  16.521  0.1254  0.1624  0.1308
 8246TIP3    H146153   5.659   1.115  16.448 -0.3321  0.2135  0.0028
 8246TIP3    H246154   5.709   1.147  16.588  1.2199  0.6767 -0.6356
 8247TIP3   OH246155   5.399   2.572  17.102 -0.2696  0.5351  0.6060
 8247TIP3    H146156   5.416   2.478  17.109 -0.4884  0.4504  0.0162
 8247TIP3    H246157   5.309   2.578  17.071 -0.3361  0.9440  0.8817
 8248TIP3   OH246158   2.131   4.329  15.044  0.0155  0.3147  0.0980
 8248TIP3    H146159   2.134   4.277  14.964 -2.6333  0.6453 -0.3155
 8248TIP3    H246160   2.104   4.267  15.112 -0.5149  0.5863  0.1415
 8249TIP3   OH246161   2.136   3.555   3.253 -0.5659 -0.4288 -0.1566
 8249TIP3    H146162   2.077   3.623   3.286 -1.1341 -0.2683 -1.4423
 8249TIP3    H246163   2.181   3.597   3.180  2.2744 -0.0492  1.6328
 8250TIP3   OH246164   6.065   5.061  15.890  0.3130 -0.3901 -0.1130
 8250TIP3    H146165   5.977   5.082  15.921 -0.5673 -2.7859 -0.7894
 8250TIP3    H246166   6.053   5.038  15.797  1.5145 -1.4519 -0.0327
 8251TIP3   OH246167   4.297   3.060  15.976 -0.0403 -0.2216  0.4340
 8251TIP3    H146168   4.231   3.029  15.914  0.5757 -2.3896  0.7617
 8251TIP3    H246169   4.290   3.155  15.974 -4.2718 -0.2995  1.6467
 8252TIP3   OH246170   5.722   3.800  11.964 -1.1627 -0.4052 -0.3155
 8252TIP3    H146171   5.700   3.818  11.872  0.0500 -3.7022 -1.3730
 8252TIP3    H246172   5.802   3.851  11.980 -1.4249  0.2544 -1.0506
 8253TIP3   OH246173   5.342   1.332  13.532 -0.4986  0.1039 -0.4913
 8253TIP3    H146174   5.357   1.426  13.542  0.7592 -0.1795  0.3393
 8253TIP3    H246175   5.412   1.290  13.581 -1.1281 -1.2837 -0.7278
 8254TIP3   OH246176   1.479   1.374  13.827 -0.1574  0.1917  0.1978
 8254TIP3    H146177   1.473   1.295  13.881  1.2366  0.1498  0.3362
 8254TIP3    H246178   1.569   1.373  13.794 -0.7510  0.6376 -1.4992
 8255TIP3   OH246179   5.025   3.679   3.096  0.2371 -0.0859  0.1247
 8255TIP3    H146180   5.004   3.681   3.190 -0.3328  0.0458 -0.0044
 8255TIP3    H246181   4.945   3.710   3.053  0.9431  1.1727 -0.3375
 8256TIP3   OH246182   6.331   1.303  17.041  0.5152  0.2124 -0.2143
 8256TIP3    H146183   6.290   1.380  17.081  0.0160 -0.7983  1.2904
 8256TIP3    H246184   6.400   1.278  17.102 -0.6725 -1.7435  0.4371
 8257TIP3   OH246185   4.303   1.965  13.995  0.1108 -0.1908 -0.2273
 8257TIP3    H146186   4.240   1.957  14.066  0.4081 -1.0879 -0.0601
 8257TIP3    H246187   4.378   1.912  14.022  0.6364  0.2591 -0.7610
 8258TIP3   OH246188   6.023   1.162  15.875  0.3946  1.0020  0.0818
 8258TIP3    H146189   6.075   1.129  15.948 -0.6314  0.4148  0.5719
 8258TIP3    H246190   5.969   1.232  15.914 -1.8903 -0.8718  0.5033
 8259TIP3   OH246191   1.913   5.138  10.464 -0.2121  0.5340 -0.2016
 8259TIP3    H146192   1.944   5.229  10.467  0.9776  0.2162 -1.5385
 8259TIP3    H246193   1.992   5.086  10.480 -0.6959 -0.2725 -0.3939
 8260TIP3   OH246194   5.467   2.512  11.222  0.3276 -0.2932 -0.2527
 8260TIP3    H146195   5.384   2.469  11.242 -1.2615  2.0487 -1.2759
 8260TIP3    H246196   5.465   2.593  11.274  2.8193 -0.9696  1.0381
 8261TIP3   OH246197   0.697   2.842  14.997 -0.1616  0.1749 -0.5853
 8261TIP3    H146198   0.649   2.769  14.959 -0.9677  0.9859 -1.1919
 8261TIP3    H246199   0.732   2.890  14.921  0.0185  0.6308 -0.2226
 8262TIP3   OH246200   2.272   6.724  13.426 -0.4767 -0.0550  0.1887
 8262TIP3    H146201   2.281   6.765  13.340  1.5347  0.5795  0.6483
 8262TIP3    H246202   2.237   6.793  13.482 -0.2045  0.0401  0.2419
 8263TIP3   OH246203   6.314   5.265   4.985 -0.2963  0.2857 -0.1221
 8263TIP3    H146204   6.249   5.265   4.915  1.1588  2.4561 -1.6037
 8263TIP3    H246205   6.274   5.215   5.055 -2.9066  0.2358 -1.5401
 8264TIP3   OH246206   1.208   0.471  14.444  0.0319  0.1698  0.3216
 8264TIP3    H146207   1.191   0.421  14.524  0.3386 -1.5495 -0.6309
 8264TIP3    H246208   1.218   0.561  14.473 -2.5002  0.0310  1.9022
 8265TIP3   OH246209   3.672   5.468   3.411 -0.2143  0.2475 -0.3692
 8265TIP3    H146210   3.654   5.465   3.505 -0.4105  0.3935 -0.4015
 8265TIP3    H246211   3.738   5.536   3.401 -0.9771  0.9911 -0.4584
 8266TIP3   OH246212   4.016   5.966  11.693  0.4155 -0.3228  0.2081
 8266TIP3    H146213   4.059   6.045  11.659  0.6834  0.1938  1.6865
 8266TIP3    H246214   3.924   5.977  11.667  0.3361  0.7633  0.8808
 8267TIP3   OH246215   5.660   0.424   2.044  0.4638  0.2637 -0.3794
 8267TIP3    H146216   5.720   0.363   2.000  1.6565  2.1164 -1.4656
 8267TIP3    H246217   5.593   0.443   1.978  0.5923  0.8052 -0.3520
 8268TIP3   OH246218   1.008   0.454  13.487  0.2024  0.0768 -0.6030
 8268TIP3    H146219   0.987   0.447  13.394 -3.1170 -1.2015  0.1159
 8268TIP3    H246220   1.017   0.363  13.517  0.8678  0.4591  0.4285
 8269TIP3   OH246221   2.484   5.813   6.008  0.0252  0.3552 -0.2889
 8269TIP3    H146222   2.394   5.781   6.013  0.1124  0.2655  2.2230
 8269TIP3    H246223   2.498   5.858   6.092  1.3148  3.2247 -1.8910
 8270TIP3   OH246224   5.128   0.150   5.050  0.3356 -0.1749 -0.9501
 8270TIP3    H146225   5.185   0.220   5.018 -1.8878  2.1719 -0.1271
 8270TIP3    H246226   5.120   0.167   5.144 -2.7555  0.4906 -1.2371
 8271TIP3   OH246227   3.916   4.817  14.904  0.1589 -0.7456  0.2821
 8271TIP3    H146228   3.943   4.770  14.825  1.3858 -1.1868  0.9470
 8271TIP3    H246229   3.951   4.905  14.892 -1.5672 -0.1256 -0.6525
 8272TIP3   OH246230   4.784   0.648   0.309  0.0372 -0.1178 -0.1816
 8272TIP3    H146231   4.745   0.643   0.396  0.4892 -0.8377 -0.0123
 8272TIP3    H246232   4.757   0.734   0.275 -1.0463 -0.2786  0.2288
 8273TIP3   OH246233   2.689   6.454   1.960 -0.1897  0.6589 -0.3449
 8273TIP3    H146234   2.693   6.539   2.003  2.5659  0.2797  0.3638
 8273TIP3    H246235   2.748   6.462   1.885 -0.6413 -0.3437 -0.8216
 8274TIP3   OH246236   0.366   1.166   1.620  0.6981 -0.1808 -0.1718
 8274TIP3    H146237   0.387   1.162   1.713  2.0606 -0.3770 -0.4650
 8274TIP3    H246238   0.375   1.259   1.597 -1.2951  0.1532  0.2216
 8275TIP3   OH246239   1.947   2.333   4.860 -0.3021 -0.2439 -0.1251
 8275TIP3    H146240   2.034   2.372   4.871 -1.1003  1.2297  1.3481
 8275TIP3    H246241   1.917   2.365   4.775  0.4980 -0.6386 -0.5770
 8276TIP3   OH246242   2.537   1.191   2.355  0.0375 -0.0051  0.3122
 8276TIP3    H146243   2.465   1.128   2.363  0.3705 -0.2191  2.0681
 8276TIP3    H246244   2.583   1.185   2.439  2.2679 -0.0648 -0.8463
 8277TIP3   OH246245   5.713   4.688   5.380  0.0974 -0.0110  0.5581
 8277TIP3    H146246   5.768   4.766   5.367 -1.6006  0.9105 -1.6660
 8277TIP3    H246247   5.641   4.718   5.435  1.0008 -0.8792  2.3146
 8278TIP3   OH246248   1.173   2.999  11.947  0.3366 -0.0169  0.2670
 8278TIP3    H146249   1.209   2.911  11.935  0.8333  0.5709 -3.9027
 8278TIP3    H246250   1.226   3.037  12.017  1.0826 -2.4731  1.1534
 8279TIP3   OH246251   1.375   3.791  12.085 -0.0137 -0.6544 -0.0796
 8279TIP3    H146252   1.451   3.777  12.029  0.0502 -1.3191  0.1712
 8279TIP3    H246253   1.301   3.755  12.036 -0.4276  1.2275 -0.9465
 8280TIP3   OH246254   1.356   3.647   2.369 -0.1930 -0.6052  0.4155
 8280TIP3    H146255   1.421   3.702   2.412 -0.9646 -0.1874  1.0706
 8280TIP3    H246256   1.279   3.702   2.361 -0.5025 -1.1184 -0.2923
 8281TIP3   OH246257   6.626   5.045  12.735 -0.2372 -0.0850 -0.0987
 8281TIP3    H146258   6.541   5.060  12.694 -0.1123 -1.9798 -1.1705
 8281TIP3    H246259   6.685   5.024  12.662  0.3824 -1.9247  0.8710
 8282TIP3   OH246260   4.352   0.091  16.745 -0.0931  0.0346 -0.2856
 8282TIP3    H146261   4.429   0.078  16.690  1.6747 -0.0348  2.0555
 8282TIP3    H246262   4.387   0.112  16.831 -2.6325 -2.3879  1.5213
 8283TIP3   OH246263   2.137   4.966  16.439 -0.2937 -0.0314  0.1376
 8283TIP3    H146264   2.076   4.922  16.379 -0.6326  1.3995 -0.6131
 8283TIP3    H246265   2.223   4.952  16.400 -0.5083  0.8537 -0.6858
 8284TIP3   OH246266   0.028   0.522   4.572  0.4444 -0.0627 -0.3049
 8284TIP3    H146267   0.091   0.589   4.598 -0.4216  0.4057  0.6481
 8284TIP3    H246268  -0.044   0.571   4.533  1.3152 -0.6831 -2.9009
 8285TIP3   OH246269   2.669   1.385   4.914  0.2073  0.6509 -0.0861
 8285TIP3    H146270   2.763   1.381   4.930  0.3778  1.7731 -0.6867
 8285TIP3    H246271   2.661   1.431   4.830 -0.8747  0.5758 -0.0374
 8286TIP3   OH246272   5.351   6.438  10.727  0.4158 -0.2158 -0.6778
 8286TIP3    H146273   5.361   6.503  10.657 -0.5114 -0.7625 -1.3493
 8286TIP3    H246274   5.359   6.354  10.682  2.2712 -0.6009  0.2826
 8287TIP3   OH246275   6.161   1.614   6.375  0.0059  0.1968 -0.2430
 8287TIP3    H146276   6.098   1.577   6.313  0.4930 -1.5829  0.2512
 8287TIP3    H246277   6.240   1.561   6.362  1.2471  2.0295 -0.4770
 8288TIP3   OH246278   3.079   1.035   0.133  0.0128  0.3960  0.4070
 8288TIP3    H146279   3.075   0.939   0.142  0.6030  0.5085  2.1950
 8288TIP3    H246280   3.021   1.054   0.059 -0.1157 -1.3349  0.0107
 8289TIP3   OH246281   5.065   5.105  15.388 -0.0003 -0.0794 -0.3173
 8289TIP3    H146282   5.010   5.065  15.455  1.4463  1.3964  1.8948
 8289TIP3    H246283   5.005   5.157  15.336 -1.0395 -0.4249  0.4926
 8290TIP3   OH246284   2.022   5.480  13.894  0.0128 -0.5127 -0.7357
 8290TIP3    H146285   1.971   5.412  13.938  1.9205 -0.6333  1.4653
 8290TIP3    H246286   2.112   5.447  13.894  0.9309  1.7839  0.0716
 8291TIP3   OH246287   0.496   4.594   3.337  0.1166 -0.2317 -0.5718
 8291TIP3    H146288   0.406   4.587   3.369 -0.0959 -0.3687 -1.1921
 8291TIP3    H246289   0.504   4.684   3.306  0.2752 -0.1465 -0.2923
 8292TIP3   OH246290   2.639   4.867   0.929 -0.7716  0.0105 -0.1412
 8292TIP3    H146291   2.593   4.816   0.995 -0.7437  0.3175  0.1147
 8292TIP3    H246292   2.644   4.808   0.853  1.2398 -1.2150  0.8614
 8293TIP3   OH246293   4.904   5.066  12.107 -0.7079  0.1682  0.0604
 8293TIP3    H146294   4.977   5.052  12.046 -2.0569 -2.6200 -1.1231
 8293TIP3    H246295   4.856   5.140  12.070 -0.3040 -0.1033 -1.0670
 8294TIP3   OH246296   0.526   5.803   4.667  0.1056 -0.0277 -0.0903
 8294TIP3    H146297   0.494   5.743   4.735  2.5611  0.0975  1.2898
 8294TIP3    H246298   0.593   5.754   4.620 -1.2832  0.0274 -2.2485
 8295TIP3   OH246299   3.945   6.639  14.691  0.1201 -0.0937 -0.4774
 8295TIP3    H146300   3.874   6.699  14.668 -0.4520 -0.8965 -0.8068
 8295TIP3    H246301   3.969   6.663  14.781 -0.8387 -0.0944 -0.2191
 8296TIP3   OH246302   1.769   6.297   0.177  0.0064  0.3159 -0.6255
 8296TIP3    H146303   1.829   6.354   0.224 -0.4167 -0.1836  0.5662
 8296TIP3    H246304   1.812   6.280   0.093  0.6845  1.3888 -0.5092
 8297TIP3   OH246305   2.466   3.452   4.083 -0.2974 -0.1160  0.9221
 8297TIP3    H146306   2.442   3.377   4.028  0.8696 -0.3872  0.7600
 8297TIP3    H246307   2.505   3.514   4.023 -0.9002  0.4725  1.1268
 8298TIP3   OH246308   5.829   4.385  14.625  0.1699 -0.1201  0.0260
 8298TIP3    H146309   5.827   4.375  14.529 -0.7582  0.6219 -0.0555
 8298TIP3    H246310   5.816   4.479  14.639  0.6107 -0.1798  0.8784
 8299TIP3   OH246311   1.307   5.343   2.632 -0.0148 -0.1711  0.3976
 8299TIP3    H146312   1.237   5.402   2.604  1.6978  2.3641  1.1577
 8299TIP3    H246313   1.350   5.389   2.704  1.6027 -2.2426  0.8378
 8300TIP3   OH246314   0.620   3.557   3.684  0.6166  0.4122  0.1191
 8300TIP3    H146315   0.648   3.498   3.754 -0.6860 -0.6569 -0.2041
 8300TIP3    H246316   0.643   3.511   3.603 -2.8353 -1.1024 -0.2003
 8301TIP3   OH246317   5.254   1.012  13.083 -0.2298 -0.3554 -0.4031
 8301TIP3    H146318   5.234   1.058  13.001 -1.5444 -0.0187  0.0767
 8301TIP3    H246319   5.259   0.920  13.058 -1.0442 -0.2968 -0.8007
 8302TIP3   OH246320   6.095   4.983  15.621  0.5412 -0.2130 -0.0130
 8302TIP3    H146321   6.074   4.984  15.527 -1.6168 -1.4928  0.3823
 8302TIP3    H246322   6.102   4.891  15.643  0.3714  0.0521  1.2167
 8303TIP3   OH246323   0.425   3.118   4.921  0.4022  0.0369 -0.6935
 8303TIP3    H146324   0.392   3.199   4.880 -1.2068 -0.3612 -0.2623
 8303TIP3    H246325   0.507   3.144   4.962 -0.6722  1.8079  0.5100
 8304TIP3   OH246326   2.582   3.932   4.277 -0.1657 -1.2404  0.0190
 8304TIP3    H146327   2.629   4.004   4.320  0.2825 -0.8596 -1.0829
 8304TIP3    H246328   2.576   3.864   4.344  0.0338 -0.4494  0.8528
 8305TIP3   OH246329   3.888   0.427   2.957  0.4429 -0.0066  0.1372
 8305TIP3    H146330   3.955   0.475   2.910  0.2929  0.1297  0.0607
 8305TIP3    H246331   3.806   0.470   2.932  0.2225 -0.8111 -0.5697
 8306TIP3   OH246332   4.881   6.701   5.129  0.0547  0.2462  0.4409
 8306TIP3    H146333   4.820   6.759   5.175  0.8180  1.0366  0.4830
 8306TIP3    H246334   4.863   6.717   5.036 -0.7586 -0.5649  0.4513
 8307TIP3   OH246335   5.648   6.639  13.266  0.3852 -0.3562  0.2356
 8307TIP3    H146336   5.589   6.667  13.336  1.0172  1.6834  0.0180
 8307TIP3    H246337   5.608   6.559  13.232 -1.9782  0.6389  0.4426
 8308TIP3   OH246338   0.458   6.078  15.522  0.9901  0.2585 -0.2249
 8308TIP3    H146339   0.388   6.075  15.456 -0.4236 -1.8201  1.2313
 8308TIP3    H246340   0.446   6.162  15.565 -1.1645 -0.3349  0.4654
 8309TIP3   OH246341   3.610   1.834  15.245  1.0098 -0.0320 -0.3778
 8309TIP3    H146342   3.525   1.798  15.271  0.3205  0.3375 -1.9844
 8309TIP3    H246343   3.602   1.848  15.150  3.0096 -0.3683 -0.6411
 8310TIP3   OH246344   6.461   2.400   1.378 -0.3129 -0.5697 -0.0797
 8310TIP3    H146345   6.520   2.445   1.439  0.7775  0.7792 -2.0012
 8310TIP3    H246346   6.386   2.458   1.370  0.4855  0.3509 -1.5195
 8311TIP3   OH246347   1.705   6.264  16.622 -0.6731  0.2641 -0.2914
 8311TIP3    H146348   1.660   6.267  16.707  2.8813  1.3821  1.7693
 8311TIP3    H246349   1.674   6.342  16.576 -0.5813  1.2308  1.2099
 8312TIP3   OH246350   1.759   5.768   3.720  0.0502  0.0366  0.6337
 8312TIP3    H146351   1.711   5.742   3.799  1.8001 -2.1552  1.0538
 8312TIP3    H246352   1.693   5.813   3.667 -2.9353 -3.7787  0.6415
 8313TIP3   OH246353   3.082   0.140   6.303 -0.4688 -0.0765  0.2376
 8313TIP3    H146354   3.127   0.184   6.375  0.3575  0.0302 -0.3286
 8313TIP3    H246355   3.152   0.102   6.250 -1.1507 -4.5003  2.0879
 8314TIP3   OH246356   6.234   6.615   1.349 -0.2106  0.2755 -0.2399
 8314TIP3    H146357   6.299   6.675   1.387  1.1378 -0.1648 -1.7660
 8314TIP3    H246358   6.222   6.646   1.260 -1.8897  0.1344 -0.0922
 8315TIP3   OH246359   0.431   1.103   0.537  0.2467  0.8777  0.1846
 8315TIP3    H146360   0.521   1.110   0.504  0.1995 -1.9203 -0.7860
 8315TIP3    H246361   0.435   1.035   0.604 -1.2433  0.3147 -0.2628
 8316TIP3   OH246362   3.735   0.699  11.216  0.1843 -0.0503  0.4939
 8316TIP3    H146363   3.713   0.607  11.230 -1.6619  0.2099 -0.4830
 8316TIP3    H246364   3.786   0.723  11.293  3.2031 -2.6084 -0.4780
 8317TIP3   OH246365   4.873   4.611   0.685 -0.8247 -0.1827  0.0589
 8317TIP3    H146366   4.912   4.525   0.672 -0.1491  0.1532 -0.1481
 8317TIP3    H246367   4.809   4.620   0.614 -1.2407 -0.7046  0.3602
 8318TIP3   OH246368   1.046   2.330  14.103  0.3340 -0.2758  0.9431
 8318TIP3    H146369   1.062   2.423  14.090 -0.4334 -0.1822  0.6151
 8318TIP3    H246370   1.132   2.289  14.095  0.4685  0.2249 -0.5377
 8319TIP3   OH246371   6.215   1.715   0.590  0.4648 -0.2932  0.5981
 8319TIP3    H146372   6.211   1.724   0.686  1.3389 -2.4693  0.9077
 8319TIP3    H246373   6.285   1.774   0.564 -2.9067  4.1937  0.5454
 8320TIP3   OH246374   3.785   1.018  16.980  0.2339  0.1646 -0.2290
 8320TIP3    H146375   3.835   1.059  17.050  3.4739 -1.7322 -1.1809
 8320TIP3    H246376   3.756   0.934  17.016 -0.1058  0.1745 -0.4651
 8321TIP3   OH246377   3.836   5.696  16.154 -0.0572  0.1984  0.1225
 8321TIP3    H146378   3.921   5.653  16.161  0.5337  1.5552  1.7466
 8321TIP3    H246379   3.824   5.741  16.237 -2.5217 -0.1777  0.0651
 8322TIP3   OH246380   0.172   4.365   0.797  0.0067  0.4454 -0.2670
 8322TIP3    H146381   0.179   4.459   0.780  2.4248  0.3680 -0.1466
 8322TIP3    H246382   0.194   4.357   0.890  2.1481 -0.3614 -0.7730
 8323TIP3   OH246383   5.083   4.558   4.697 -0.0778  0.1794 -0.2232
 8323TIP3    H146384   5.039   4.623   4.642 -1.7992 -0.2577  0.5738
 8323TIP3    H246385   5.086   4.479   4.642 -1.0439 -0.0178 -0.0102
 8324TIP3   OH246386   0.113   0.555  15.301 -0.7827  0.3354 -0.1726
 8324TIP3    H146387   0.045   0.619  15.279 -1.0759 -0.3162 -1.2366
 8324TIP3    H246388   0.075   0.470  15.278 -0.0643 -0.1543  0.3826
 8325TIP3   OH246389   0.005   1.951   3.698  0.1371  0.9683 -0.2523
 8325TIP3    H146390   0.017   1.906   3.782 -0.3029  0.8378 -0.2552
 8325TIP3    H246391  -0.039   2.033   3.721  0.2257  1.0372 -0.3297
 8326TIP3   OH246392   5.162   2.763  14.292  0.2963 -0.4012 -0.3830
 8326TIP3    H146393   5.147   2.702  14.364 -2.4483 -0.7812 -1.1844
 8326TIP3    H246394   5.147   2.849  14.329  0.1469 -0.5064 -0.2018
 8327TIP3   OH246395   4.587   6.456   2.323  0.2811 -0.0560  0.1745
 8327TIP3    H146396   4.512   6.456   2.383  0.7464 -1.1441  0.7860
 8327TIP3    H246397   4.630   6.540   2.339 -1.4941  1.2091 -1.1349
 8328TIP3   OH246398   1.431   2.971   2.604 -0.3276  0.6946  0.7605
 8328TIP3    H146399   1.390   3.019   2.532  0.1064  0.1238  0.1167
 8328TIP3    H246400   1.433   2.880   2.574  1.9816  0.7817  0.4543
 8329TIP3   OH246401   4.714   1.619  11.171 -0.0748 -0.0129 -0.0671
 8329TIP3    H146402   4.665   1.695  11.139  0.0193  0.8037  1.6036
 8329TIP3    H246403   4.806   1.644  11.163 -0.0508  0.1748  0.7621
 8330TIP3   OH246404   0.097   5.230   0.916 -0.1476  0.1377  0.1728
 8330TIP3    H146405   0.002   5.239   0.908 -0.2738  1.5456  2.3783
 8330TIP3    H246406   0.129   5.321   0.917  1.4683 -0.3069 -2.4042
 8331TIP3   OH246407   3.658   2.990  12.901  0.0497  0.0332  0.4514
 8331TIP3    H146408   3.747   3.022  12.915  0.7313 -1.3281 -0.5503
 8331TIP3    H246409   3.661   2.898  12.926 -1.2039  0.0798  0.8326
 8332TIP3   OH246410   3.263   4.001   5.526 -0.7790 -0.3660  0.2082
 8332TIP3    H146411   3.268   3.995   5.430  1.9626  1.3444  0.1242
 8332TIP3    H246412   3.180   4.044   5.544 -0.4235  1.2219 -1.5990
 8333TIP3   OH246413   6.312   6.379  16.361  0.1688 -0.2479 -0.6957
 8333TIP3    H146414   6.272   6.381  16.448  0.9364 -0.9766 -0.3107
 8333TIP3    H246415   6.338   6.470  16.345 -0.4372 -0.0137 -0.3836
 8334TIP3   OH246416   1.797   3.811  14.007  0.1025 -0.2323  0.2211
 8334TIP3    H146417   1.881   3.783  13.971  0.4009  2.0985 -1.0996
 8334TIP3    H246418   1.795   3.906  13.993 -1.2274  0.3553  3.4687
 8335TIP3   OH246419   6.485   2.307  14.066  0.3603  0.4718 -0.3836
 8335TIP3    H146420   6.470   2.251  14.142  0.5291  0.9493  0.0101
 8335TIP3    H246421   6.436   2.266  13.995 -0.9096  0.7510  0.3025
 8336TIP3   OH246422   5.657   1.902  16.343 -0.2374 -0.1498 -0.4510
 8336TIP3    H146423   5.660   1.806  16.340 -2.4327 -0.3219  0.6719
 8336TIP3    H246424   5.566   1.922  16.364  0.0949  2.2201 -1.0333
 8337TIP3   OH246425   4.279   3.556  11.320 -0.2623 -0.5746 -0.6063
 8337TIP3    H146426   4.352   3.535  11.263  0.4341 -0.1814  0.1112
 8337TIP3    H246427   4.312   3.537  11.408 -1.3312 -1.2406 -0.3398
 8338TIP3   OH246428   2.352   2.681  11.018  0.0823  0.2696  0.1234
 8338TIP3    H146429   2.259   2.657  11.018  0.3100 -0.6522  0.3519
 8338TIP3    H246430   2.366   2.721  10.932 -0.2721 -0.6227 -0.3592
 8339TIP3   OH246431   2.046   3.329  12.652  0.0380  0.3367 -0.1999
 8339TIP3    H146432   1.973   3.378  12.613 -1.0182 -2.4806 -2.0511
 8339TIP3    H246433   2.063   3.258  12.590  0.7534 -2.2701  2.7377
 8340TIP3   OH246434   1.855   0.827  15.771 -0.8109 -0.1041  0.5722
 8340TIP3    H146435   1.946   0.856  15.774 -1.0605  0.8643 -0.3607
 8340TIP3    H246436   1.832   0.809  15.862  0.0546  0.4571  0.9163
 8341TIP3   OH246437   6.342   3.213   3.511 -0.3074 -0.1570 -0.0908
 8341TIP3    H146438   6.303   3.175   3.589 -0.7478  2.1302  0.9059
 8341TIP3    H246439   6.436   3.211   3.526 -0.3166 -0.8850 -0.1039
 8342TIP3   OH246440   1.904   2.938   4.205 -0.4867 -0.2437 -0.0497
 8342TIP3    H146441   1.867   2.888   4.132  0.4704  0.2180 -0.8739
 8342TIP3    H246442   1.938   2.871   4.265 -4.6947 -0.8542  2.0093
 8343TIP3   OH246443   1.818   2.352   6.380 -0.1110 -0.5813 -0.1714
 8343TIP3    H146444   1.844   2.371   6.290 -0.0787  0.1485 -0.0142
 8343TIP3    H246445   1.772   2.269   6.375  2.1733 -1.9241 -0.4897
 8344TIP3   OH246446   2.987   4.382   5.367 -0.1244 -0.3894  0.1019
 8344TIP3    H146447   3.025   4.439   5.434  0.2664  0.3375 -0.7249
 8344TIP3    H246448   3.061   4.334   5.331  0.0465  0.9758 -1.4627
 8345TIP3   OH246449   1.496   6.683  16.251 -0.0281 -0.5474 -0.4272
 8345TIP3    H146450   1.500   6.610  16.189 -1.3291 -0.6586 -0.4275
 8345TIP3    H246451   1.450   6.752  16.203  1.2222  0.2993 -0.4348
 8346TIP3   OH246452   1.128   2.231  11.976 -0.2415  0.3500  0.8321
 8346TIP3    H146453   1.190   2.297  11.943 -0.1461  1.0857  2.3978
 8346TIP3    H246454   1.063   2.223  11.906  0.1780  1.5312  0.2788
 8347TIP3   OH246455   4.666   4.354   5.497  0.3457  0.4762  0.3810
 8347TIP3    H146456   4.624   4.330   5.580  0.0560  1.7564  0.6265
 8347TIP3    H246457   4.657   4.277   5.442 -0.9955  0.1996  0.9540
 8348TIP3   OH246458   6.683   4.210  15.666  0.5947  0.1850 -0.1403
 8348TIP3    H146459   6.711   4.301  15.678  0.3350  0.1659  0.6550
 8348TIP3    H246460   6.712   4.166  15.746  0.2254 -0.3100 -0.2811
 8349TIP3   OH246461   3.085   3.267   1.234 -0.5993 -0.1320  0.4191
 8349TIP3    H146462   2.996   3.300   1.245 -0.6598 -0.1456 -0.0115
 8349TIP3    H246463   3.089   3.239   1.143 -0.4088 -0.8955  0.6521
 8350TIP3   OH246464   2.985   2.405  13.609  0.3170  0.0502 -0.1759
 8350TIP3    H146465   2.968   2.390  13.516  2.3870 -1.0060 -0.4613
 8350TIP3    H246466   3.037   2.485  13.611  0.6589 -0.1727  0.0102
 8351TIP3   OH246467   6.033   4.384  16.825  0.0030  0.4455  0.1340
 8351TIP3    H146468   6.083   4.406  16.903 -0.7446 -3.4258  1.9443
 8351TIP3    H246469   5.943   4.409  16.846  0.2705  2.8342 -1.1479
 8352TIP3   OH246470   0.295   3.197  11.900 -0.2607 -0.5965  0.3148
 8352TIP3    H146471   0.217   3.217  11.951 -1.3798 -1.5645 -0.9418
 8352TIP3    H246472   0.289   3.251  11.822  1.0624  0.3374  0.8164
 8353TIP3   OH246473   3.549   2.851  16.903  0.5668 -0.7203 -0.0221
 8353TIP3    H146474   3.464   2.890  16.885  0.7513 -0.0256  0.5577
 8353TIP3    H246475   3.533   2.757  16.907 -0.1268 -0.6073 -0.1523
 8354TIP3   OH246476   6.593   1.566   5.262 -0.1183 -0.2857 -0.2404
 8354TIP3    H146477   6.623   1.644   5.215  0.4453  0.0825  0.6970
 8354TIP3    H246478   6.567   1.505   5.193  0.1463  0.4474 -1.0093
 8355TIP3   OH246479   6.569   2.607   4.678 -0.0266  0.1508  0.2103
 8355TIP3    H146480   6.648   2.564   4.710  0.1229 -0.1099 -0.5001
 8355TIP3    H246481   6.594   2.646   4.595 -1.2768 -2.2124 -1.4209
 8356TIP3   OH246482   1.101   1.921   4.439  0.0682 -0.6622 -0.3614
 8356TIP3    H146483   1.035   1.952   4.502  1.7495 -0.2465  1.2855
 8356TIP3    H246484   1.102   1.826   4.450 -1.8128 -0.9346 -2.0573
 8357TIP3   OH246485   1.179   3.911  16.385  0.4395 -0.3368  1.2498
 8357TIP3    H146486   1.234   3.958  16.323  0.1592 -0.5370  0.8510
 8357TIP3    H246487   1.103   3.883  16.335  1.2038 -2.3452  1.1509
 8358TIP3   OH246488   0.471   3.867  13.908  0.3840  0.0557 -0.2343
 8358TIP3    H146489   0.500   3.833  13.823  0.5904 -0.8633  0.1883
 8358TIP3    H246490   0.385   3.828  13.921 -1.0220  2.5064 -1.3270
 8359TIP3   OH246491   2.483   5.076   5.828 -0.7631 -0.1205 -0.4389
 8359TIP3    H146492   2.548   5.018   5.788 -0.9635 -0.8848  0.3146
 8359TIP3    H246493   2.404   5.023   5.834 -0.4535 -0.4338  1.9608
 8360TIP3   OH246494   1.863   3.684   0.524  0.4157 -0.1359  0.1952
 8360TIP3    H146495   1.942   3.655   0.570  0.3951 -0.5671 -0.0358
 8360TIP3    H246496   1.865   3.780   0.532  0.6451 -0.1790  0.7036
 8361TIP3   OH246497   1.977   0.275  15.101 -0.0072 -0.0237  0.5665
 8361TIP3    H146498   2.072   0.283  15.094 -0.0079 -0.4955 -0.0606
 8361TIP3    H246499   1.959   0.183  15.083 -0.5464 -0.0529  1.2014
 8362TIP3   OH246500   4.655   2.252   4.246 -0.4077  0.1720  0.0294
 8362TIP3    H146501   4.734   2.245   4.192 -0.6283 -1.8938 -0.1095
 8362TIP3    H246502   4.683   2.227   4.334 -0.5989  0.9303  0.3098
 8363TIP3   OH246503   5.415   1.665   2.826  0.3588  0.3094 -0.5520
 8363TIP3    H146504   5.490   1.618   2.790  0.9425  0.3379  0.5742
 8363TIP3    H246505   5.452   1.718   2.897 -1.0505 -1.6315  1.7995
 8364TIP3   OH246506   1.688   0.336   3.929  0.7414  0.0666 -0.2832
 8364TIP3    H146507   1.780   0.360   3.940  0.6343  0.6377 -0.5627
 8364TIP3    H246508   1.656   0.323   4.018  0.7901  1.0843 -0.0973
 8365TIP3   OH246509   2.023   1.991   6.046  0.5815 -0.4652 -0.0602
 8365TIP3    H146510   2.103   2.043   6.034  0.7223 -0.8907 -1.0751
 8365TIP3    H246511   2.055   1.901   6.053  0.3593 -0.4435  1.8918
 8366TIP3   OH246512   1.806   1.138   1.007  0.3998 -0.2957 -0.4813
 8366TIP3    H146513   1.750   1.099   1.076  0.5758  1.8075  0.9383
 8366TIP3    H246514   1.894   1.137   1.045  0.6905 -0.0979 -1.1463
 8367TIP3   OH246515   5.516   5.079  14.859 -0.5666  0.1855 -0.2211
 8367TIP3    H146516   5.485   5.053  14.946 -0.2383  0.0628 -0.1404
 8367TIP3    H246517   5.582   5.014  14.836  0.9972  1.4751  0.4098
 8368TIP3   OH246518   0.408   6.438  15.379  0.1443  0.0219  0.3037
 8368TIP3    H146519   0.422   6.532  15.367 -1.0307  0.0772 -0.8135
 8368TIP3    H246520   0.345   6.414  15.311  0.9119 -1.7104  0.1564
 8369TIP3   OH246521   3.304   6.144   3.257 -0.4544  0.0913  0.5860
 8369TIP3    H146522   3.238   6.086   3.294 -0.0722 -1.7692 -1.4435
 8369TIP3    H246523   3.379   6.136   3.317 -1.3012  0.5773  1.7416
 8370TIP3   OH246524   1.069   6.598  16.228  0.2240  0.5862  0.3498
 8370TIP3    H146525   1.131   6.642  16.285  0.4100 -0.1708  0.7521
 8370TIP3    H246526   1.004   6.561  16.288  0.2209  0.0962  0.0483
 8371TIP3   OH246527   3.357   3.551  13.658  0.0313 -0.0021 -0.0828
 8371TIP3    H146528   3.423   3.526  13.723  1.3912  0.7133 -1.1540
 8371TIP3    H246529   3.397   3.530  13.574 -1.2390  0.1647 -0.7540
 8372TIP3   OH246530   4.972   1.787  14.273  0.3901  0.2328 -0.5290
 8372TIP3    H146531   4.895   1.827  14.313  0.7125  0.3923 -0.0584
 8372TIP3    H246532   4.940   1.752  14.190 -0.1416  0.4864 -0.4383
 8373TIP3   OH246533   5.568   5.370   3.566 -0.3209  0.3011  0.2351
 8373TIP3    H146534   5.503   5.363   3.497 -1.2046 -1.2621  1.1496
 8373TIP3    H246535   5.652   5.350   3.524 -0.9684 -1.5762 -0.2362
 8374TIP3   OH246536   2.352   3.011   5.379 -0.6169  0.4128 -0.6805
 8374TIP3    H146537   2.355   3.041   5.470  0.5543 -1.2430 -0.1408
 8374TIP3    H246538   2.443   2.992   5.356 -0.9780  0.0955 -1.9646
 8375TIP3   OH246539   3.947   3.719   3.876  0.4645  0.0195 -0.5501
 8375TIP3    H146540   3.901   3.780   3.817  0.5652  0.5100 -0.1358
 8375TIP3    H246541   3.991   3.776   3.939  0.7518 -0.4840 -0.2897
 8376TIP3   OH246542   4.083   5.754  12.413 -0.2176 -0.1286  0.3984
 8376TIP3    H146543   4.140   5.708  12.475  0.5123 -1.9274 -1.4868
 8376TIP3    H246544   4.143   5.809  12.363 -0.6261  0.4444  0.5402
 8377TIP3   OH246545   4.028   6.721  16.379  0.1464  0.2097  0.3914
 8377TIP3    H146546   4.031   6.777  16.457 -1.8655  0.3219  0.4307
 8377TIP3    H246547   3.948   6.748  16.333 -0.0587 -1.5879 -0.3847
 8378TIP3   OH246548   3.868   4.396   1.471 -0.4241  0.3552 -0.0215
 8378TIP3    H146549   3.820   4.327   1.426 -0.2588  1.5628 -2.1972
 8378TIP3    H246550   3.889   4.359   1.556 -2.6717 -1.2777 -0.0683
 8379TIP3   OH246551   3.558   6.396   4.107 -0.0239  0.0072  0.1524
 8379TIP3    H146552   3.536   6.475   4.157 -0.8961 -1.0310  1.4582
 8379TIP3    H246553   3.482   6.380   4.052 -0.9476 -1.2601  1.6879
 8380TIP3   OH246554   3.662   2.540   2.712 -0.4817 -0.5957  0.1748
 8380TIP3    H146555   3.571   2.526   2.736 -0.8634 -0.8978 -1.3449
 8380TIP3    H246556   3.683   2.467   2.653  0.4862 -0.0754 -0.1477
 8381TIP3   OH246557   2.368   4.332  14.867 -0.6019 -0.2188 -0.0378
 8381TIP3    H146558   2.375   4.295  14.779 -0.8486  0.8490 -0.5251
 8381TIP3    H246559   2.373   4.256  14.925  0.3066 -0.8751 -0.9309
 8382TIP3   OH246560   3.257   4.337  15.734 -0.3681 -0.0739  0.2322
 8382TIP3    H146561   3.265   4.330  15.829  1.0308 -0.1710  0.1307
 8382TIP3    H246562   3.260   4.432  15.717  1.5226 -0.1160  0.1590
 8383TIP3   OH246563   0.819   4.758   4.062 -0.1868  0.2599  0.0936
 8383TIP3    H146564   0.813   4.734   4.154 -0.2443  2.5897  0.7477
 8383TIP3    H246565   0.913   4.768   4.046 -0.0753 -1.3827 -0.4965
 8384TIP3   OH246566   1.581   4.737   2.523 -0.0458  0.5492 -0.3607
 8384TIP3    H146567   1.673   4.739   2.552 -0.2249 -1.4225  0.5346
 8384TIP3    H246568   1.538   4.804   2.575  0.4481 -0.1728  1.0393
 8385TIP3   OH246569   2.140   6.768  16.780 -0.2012 -0.0161  0.0522
 8385TIP3    H146570   2.081   6.832  16.822 -1.4408 -0.8741 -0.3177
 8385TIP3    H246571   2.178   6.720  16.853 -0.2610  0.2910  0.2897
 8386TIP3   OH246572   6.059   3.535   4.408 -0.0104  0.1130 -0.0144
 8386TIP3    H146573   6.018   3.618   4.382  0.8242  0.6662  0.3822
 8386TIP3    H246574   6.029   3.521   4.498 -1.2849 -0.7629 -0.5510
 8387TIP3   OH246575   4.706   6.382   5.265 -0.0359 -0.1560  0.1572
 8387TIP3    H146576   4.769   6.443   5.303  0.5800 -0.5218 -0.2669
 8387TIP3    H246577   4.660   6.345   5.340  2.2976 -2.1371  0.7410
 8388TIP3   OH246578   3.785   6.454   5.002 -0.2163  0.3415  0.4313
 8388TIP3    H146579   3.728   6.516   4.956 -0.8159  1.0319  2.0256
 8388TIP3    H246580   3.874   6.485   4.984 -0.3542 -0.1948 -1.3223
 8389TIP3   OH246581   4.697   6.326  11.222  0.5559 -0.0153  0.3223
 8389TIP3    H146582   4.787   6.328  11.253  0.7480  0.4616 -0.2573
 8389TIP3    H246583   4.684   6.411  11.180  0.8801 -1.2407 -2.5235
 8390TIP3   OH246584   4.248   3.853   3.738  0.1966  0.5246 -0.6088
 8390TIP3    H146585   4.223   3.943   3.715  1.7581  1.2355  0.3065
 8390TIP3    H246586   4.166   3.805   3.740 -0.7799  2.1345 -0.3258
 8391TIP3   OH246587   4.811   3.517   5.936  0.1298  0.0559  0.3984
 8391TIP3    H146588   4.889   3.515   5.992  1.0321  0.3100 -0.8231
 8391TIP3    H246589   4.738   3.501   5.997  1.0056  0.9845  1.7641
 8392TIP3   OH246590   6.367   3.699   5.421 -0.4948  0.1189  0.5040
 8392TIP3    H146591   6.375   3.679   5.514  0.1611  0.2812  0.4831
 8392TIP3    H246592   6.280   3.666   5.397 -0.8512  0.4747  1.2705
 8393TIP3   OH246593   4.685   6.259   2.623  0.1311  0.1976  0.2403
 8393TIP3    H146594   4.724   6.249   2.710 -1.2512 -3.0210  0.6148
 8393TIP3    H246595   4.708   6.179   2.577 -2.3612  0.1207 -1.0158
 8394TIP3   OH246596   2.973   3.018  10.539  0.6263 -0.2166  0.2432
 8394TIP3    H146597   3.020   3.004  10.457  0.4170 -0.1851  0.1171
 8394TIP3    H246598   2.892   2.969  10.529  0.5823 -0.1799  0.4160
 8395TIP3   OH246599   4.200   1.166  16.386  0.8631 -0.9774 -0.3871
 8395TIP3    H146600   4.182   1.260  16.382  0.8375 -1.0312 -2.3673
 8395TIP3    H246601   4.145   1.134  16.458  2.7487  0.8722  2.0475
 8396TIP3   OH246602   4.502   0.668   0.874 -0.3160  0.0273  0.2108
 8396TIP3    H146603   4.582   0.705   0.911 -0.2423  1.1095 -0.9572
 8396TIP3    H246604   4.453   0.636   0.949  0.7275  0.3289  1.0448
 8397TIP3   OH246605   6.752   2.585  15.355 -0.1345 -0.3930 -0.7703
 8397TIP3    H146606   6.788   2.625  15.276  0.7647 -1.4454 -0.9183
 8397TIP3    H246607   6.720   2.499  15.326  0.0285 -0.7083 -0.0312
 8398TIP3   OH246608   3.439   6.745  14.178  0.5758 -0.7340 -0.1965
 8398TIP3    H146609   3.468   6.691  14.104  0.1577 -0.4916 -0.5347
 8398TIP3    H246610   3.447   6.687  14.254  0.3336 -1.2109 -0.5293
 8399TIP3   OH246611   2.687   2.412   4.417  0.0694  0.2548 -0.5586
 8399TIP3    H146612   2.703   2.428   4.324  1.7893  0.8163 -0.1964
 8399TIP3    H246613   2.719   2.491   4.461  0.6839 -0.6256  0.6327
 8400TIP3   OH246614   2.197   1.729   2.683 -0.4849 -0.3449  0.1622
 8400TIP3    H146615   2.289   1.703   2.681 -0.6154 -1.1157  2.0579
 8400TIP3    H246616   2.151   1.657   2.640 -0.1491  0.6066 -1.9224
 8401TIP3   OH246617   5.843   4.822   1.929  0.6215 -0.1536  0.6780
 8401TIP3    H146618   5.913   4.823   1.863  0.0021  1.3009 -0.0079
 8401TIP3    H246619   5.772   4.873   1.889 -0.1630 -0.1128  2.0682
 8402TIP3   OH246620   3.801   0.028  13.060 -0.2589  0.0581 -0.0860
 8402TIP3    H146621   3.836   0.109  13.098 -0.2322  0.5012 -1.0126
 8402TIP3    H246622   3.762  -0.018  13.134  1.1323  0.1558  0.7513
 8403TIP3   OH246623   3.451   1.566   4.594  0.5130  0.3039  0.1446
 8403TIP3    H146624   3.388   1.628   4.558 -1.9467 -2.6681 -1.2122
 8403TIP3    H246625   3.405   1.525   4.668  2.7200  1.1900  2.1226
 8404TIP3   OH246626   1.037   3.006  15.577 -0.0856  0.0093  0.1067
 8404TIP3    H146627   1.109   3.046  15.625  0.6585 -2.5060  1.2300
 8404TIP3    H246628   1.071   2.997  15.487  0.9394 -0.8821  0.5540
 8405TIP3   OH246629   3.570   3.805   3.024 -0.0783 -0.7751  0.1275
 8405TIP3    H146630   3.523   3.854   3.092 -3.2609  0.2430 -2.5674
 8405TIP3    H246631   3.620   3.871   2.977  0.6757 -1.1909  0.3249
 8406TIP3   OH246632   6.642   1.563   3.214 -0.3301  0.4426 -0.3404
 8406TIP3    H146633   6.635   1.534   3.123 -1.1314  1.8989 -0.7830
 8406TIP3    H246634   6.633   1.483   3.265  1.2556 -0.5657 -1.5373
 8407TIP3   OH246635   1.728   0.449   4.380 -0.3985  0.0899  0.0582
 8407TIP3    H146636   1.667   0.447   4.454 -0.5451  1.6621  0.0129
 8407TIP3    H246637   1.755   0.540   4.374 -0.0160 -0.1071 -1.5400
 8408TIP3   OH246638   0.028   2.640   0.456  0.3105  0.0189 -0.2301
 8408TIP3    H146639   0.017   2.648   0.361 -0.4984  0.3425 -0.1147
 8408TIP3    H246640   0.123   2.640   0.469  0.4610  2.5161 -0.8471
 8409TIP3   OH246641   0.985   1.220   4.465 -0.6265  0.2184  0.4709
 8409TIP3    H146642   0.971   1.307   4.502  0.5825  1.4229 -1.7045
 8409TIP3    H246643   0.968   1.231   4.371  1.5903 -1.3493 -0.1855
 8410TIP3   OH246644   5.280   5.974   1.773 -0.0054 -0.3325  0.3700
 8410TIP3    H146645   5.203   6.024   1.799 -1.6946 -1.5412 -1.9365
 8410TIP3    H246646   5.344   6.039   1.746 -1.3353  0.6681 -0.4778
 8411TIP3   OH246647   6.368   2.218   6.040  0.0317  0.0628 -0.2670
 8411TIP3    H146648   6.415   2.297   6.064 -0.8414  0.6955 -0.5945
 8411TIP3    H246649   6.276   2.238   6.056 -0.1652 -1.0602  0.1300
 8412TIP3   OH246650   1.464   5.788  13.094  0.1293 -0.0365 -0.5289
 8412TIP3    H146651   1.434   5.723  13.157 -1.4103 -0.9108 -2.0756
 8412TIP3    H246652   1.558   5.796  13.111 -0.2130 -0.2256  1.8153
 8413TIP3   OH246653   1.635   1.408   5.449 -0.5832  0.1465 -0.4043
 8413TIP3    H146654   1.640   1.499   5.419 -1.8010  0.8370  1.3531
 8413TIP3    H246655   1.542   1.391   5.459 -0.3860 -1.4207 -0.9597
 8414TIP3   OH246656   6.233   6.051  11.729  0.3079  0.2309 -0.2604
 8414TIP3    H146657   6.192   5.997  11.796 -0.4009  0.1683 -0.7296
 8414TIP3    H246658   6.326   6.034  11.737  0.3536  1.1288  1.5063
 8415TIP3   OH246659   6.294   5.782   0.814 -0.7663 -0.0537  0.3429
 8415TIP3    H146660   6.351   5.785   0.891  1.3072  0.8204 -1.1236
 8415TIP3    H246661   6.321   5.704   0.767 -1.5481 -0.2127  0.1366
 8416TIP3   OH246662   4.042   4.500  12.191  0.5780 -0.1747  0.4884
 8416TIP3    H146663   4.085   4.446  12.124  0.6961 -0.5992  0.9069
 8416TIP3    H246664   3.952   4.510  12.158  0.2400 -1.5481  0.9392
 8417TIP3   OH246665   0.282   4.636   3.784  0.1470  0.0611 -0.3507
 8417TIP3    H146666   0.330   4.706   3.828 -0.8303  0.5896 -0.0962
 8417TIP3    H246667   0.204   4.623   3.838 -0.0850 -0.6624 -0.8415
 8418TIP3   OH246668   3.646   4.409   3.802  0.2530 -0.1962 -0.6567
 8418TIP3    H146669   3.741   4.399   3.809  0.2207 -0.2459 -0.2801
 8418TIP3    H246670   3.634   4.481   3.740  0.5336 -0.3288 -0.8659
 8419TIP3   OH246671   1.793   3.452   3.900 -0.7502  0.5114 -0.4342
 8419TIP3    H146672   1.788   3.357   3.908 -0.9746  0.4678 -1.0528
 8419TIP3    H246673   1.727   3.474   3.834  0.2297  0.9587 -1.2864
 8420TIP3   OH246674   4.109   0.511   2.422  0.2498  0.0706 -0.3556
 8420TIP3    H146675   4.151   0.427   2.401 -0.3510  0.0516 -1.5571
 8420TIP3    H246676   4.026   0.508   2.376 -0.6971  0.4925  1.2520
 8421TIP3   OH246677   5.972   1.846   1.082 -0.4415  0.2616 -0.0781
 8421TIP3    H146678   5.972   1.793   1.003 -0.2672 -0.2971  0.2942
 8421TIP3    H246679   5.954   1.935   1.051  0.3578  0.1755 -0.8348
 8422TIP3   OH246680   3.376   0.502  12.287  0.1686  0.2329 -0.2822
 8422TIP3    H146681   3.362   0.554  12.366 -1.5671 -0.3002 -0.1909
 8422TIP3    H246682   3.404   0.417  12.318  2.6216  0.9118 -0.4176
 8423TIP3   OH246683   3.588   6.259   4.415  0.4632 -0.1125  0.5366
 8423TIP3    H146684   3.603   6.194   4.347 -0.6382  1.2675 -1.1165
 8423TIP3    H246685   3.669   6.311   4.416  0.0930  0.5256 -0.5351
 8424TIP3   OH246686   4.302   5.536   4.607  0.0657  0.5302  1.1311
 8424TIP3    H146687   4.253   5.481   4.545  0.2224  0.8708  0.7029
 8424TIP3    H246688   4.392   5.505   4.600 -0.0092  0.1932  1.6029
 8425TIP3   OH246689   3.271   6.746   1.944  0.3311  0.1033 -0.5151
 8425TIP3    H146690   3.253   6.692   1.868 -1.7988  1.3460 -0.9574
 8425TIP3    H246691   3.363   6.728   1.965  0.5805 -1.2456 -2.5449
 8426TIP3   OH246692   6.550   1.685   4.815  0.1348 -0.5273  0.2528
 8426TIP3    H146693   6.516   1.595   4.811  0.9872 -0.9381  1.4146
 8426TIP3    H246694   6.478   1.736   4.851 -0.2648 -0.7952 -0.1501
 8427TIP3   OH246695   1.164   2.397   4.262  0.3860 -0.5759 -0.1172
 8427TIP3    H146696   1.203   2.430   4.182  0.2418 -1.7591 -0.6899
 8427TIP3    H246697   1.202   2.451   4.332 -1.0833  1.9404 -1.1107
 8428TIP3   OH246698   2.263   5.496   2.252 -0.2261  0.2343  0.2737
 8428TIP3    H146699   2.168   5.507   2.261 -0.4205  0.2452 -1.5083
 8428TIP3    H246700   2.299   5.535   2.332 -1.6710  0.9423  0.6111
 8429TIP3   OH246701   1.685   0.093   2.872 -0.3590  0.0139 -0.4301
 8429TIP3    H146702   1.688   0.132   2.959  0.6212 -0.8853 -0.0364
 8429TIP3    H246703   1.593   0.071   2.859 -1.0140  2.6215 -0.7867
 8430TIP3   OH246704   2.319   1.878  15.183  0.1409  0.1286 -0.7561
 8430TIP3    H146705   2.381   1.897  15.254 -0.6005  1.6461 -0.4699
 8430TIP3    H246706   2.273   1.799  15.212  2.6067 -1.7041 -1.4668
 8431TIP3   OH246707   5.886   2.320   2.444 -0.1334  0.3610  0.1846
 8431TIP3    H146708   5.956   2.370   2.486 -0.6009  2.4767 -1.3904
 8431TIP3    H246709   5.838   2.385   2.392 -3.0728 -1.0383  0.8968
 8432TIP3   OH246710   5.462   0.703  12.461 -0.2555  0.2545 -0.6600
 8432TIP3    H146711   5.370   0.685  12.480 -0.7427  1.3700 -1.7617
 8432TIP3    H246712   5.464   0.796  12.440  1.0463  0.1496 -1.1058
 8433TIP3   OH246713   1.256   0.164   6.069 -0.0371  0.6439 -0.0037
 8433TIP3    H146714   1.182   0.103   6.071 -0.0270  0.6427  0.4661
 8433TIP3    H246715   1.235   0.224   5.998 -0.9769  1.2369  0.7465
 8434TIP3   OH246716   5.369   4.234  12.771 -0.4965 -0.0982 -0.0808
 8434TIP3    H146717   5.366   4.285  12.852 -0.3699  1.0962 -0.7986
 8434TIP3    H246718   5.337   4.295  12.704  1.3194 -0.3657 -1.2573
 8435TIP3   OH246719   5.606   0.756  10.642  0.2065 -0.6267 -0.2413
 8435TIP3    H146720   5.590   0.842  10.681  0.1535 -0.9382  0.4237
 8435TIP3    H246721   5.520   0.716  10.633  0.1703 -0.3865 -1.0969
 8436TIP3   OH246722   6.740   5.394   1.993 -0.3449  0.1110 -0.3923
 8436TIP3    H146723   6.712   5.481   1.967  0.6827  0.8867  0.9345
 8436TIP3    H246724   6.835   5.399   1.997 -0.3382 -0.3205  1.9819
 8437TIP3   OH246725   4.491   3.693   1.970 -0.6548 -0.3673  0.0194
 8437TIP3    H146726   4.500   3.702   2.065 -0.5073 -0.6347  0.0313
 8437TIP3    H246727   4.408   3.648   1.957 -1.3523  0.9009 -0.0363
 8438TIP3   OH246728   2.750   0.136  13.389  0.3794  0.3955  0.1211
 8438TIP3    H146729   2.829   0.104  13.346  0.9753  0.6270  1.0102
 8438TIP3    H246730   2.770   0.128  13.483 -0.7490  0.2147  0.3534
 8439TIP3   OH246731   3.115   5.116  15.591  0.0060  0.1733 -0.2808
 8439TIP3    H146732   3.110   5.211  15.597  1.4489  0.2779 -0.2374
 8439TIP3    H246733   3.098   5.085  15.679  1.5072  0.5410  0.1784
 8440TIP3   OH246734   4.212   0.901   3.630  0.1894 -0.6312 -0.2686
 8440TIP3    H146735   4.213   0.805   3.628  1.2382 -0.7310  1.9957
 8440TIP3    H246736   4.119   0.924   3.629 -0.2924 -1.9122  3.1259
 8441TIP3   OH246737   2.992   0.768  16.826 -0.0306  0.2106  0.3444
 8441TIP3    H146738   3.027   0.840  16.878  1.4004 -1.3487  1.6501
 8441TIP3    H246739   2.929   0.725  16.884 -2.5332  1.6131 -1.1797
 8442TIP3   OH246740   0.307   0.447   2.134  0.1872 -0.6847 -0.4502
 8442TIP3    H146741   0.320   0.540   2.153  1.3143 -0.7023 -1.0342
 8442TIP3    H246742   0.334   0.401   2.213 -0.7843 -0.5081 -0.0042
 8443TIP3   OH246743   0.725   4.546   2.964 -0.3552  0.3642  0.1851
 8443TIP3    H146744   0.634   4.555   2.992 -1.2020  0.4788 -2.3027
 8443TIP3    H246745   0.736   4.452   2.951  0.2999  0.2222  1.6399
 8444TIP3   OH246746   3.060   6.286  16.060 -0.0052  0.3427  0.0832
 8444TIP3    H146747   3.085   6.309  16.149  2.5942 -0.0132 -0.4547
 8444TIP3    H246748   3.071   6.190  16.056  1.6092  0.5180 -0.9940
 8445TIP3   OH246749   5.902   3.158  11.312  0.1658 -0.4128  0.2074
 8445TIP3    H146750   5.934   3.103  11.383 -1.7311 -1.3096  0.4252
 8445TIP3    H246751   5.863   3.097  11.249  0.0913  0.5093 -0.6732
 8446TIP3   OH246752   4.100   0.119  15.668  0.5344  0.1293  0.4118
 8446TIP3    H146753   4.068   0.050  15.727 -0.2121 -0.1244 -0.2691
 8446TIP3    H246754   4.043   0.194  15.686 -0.3928 -0.2797 -0.7074
 8447TIP3   OH246755   6.337   3.153   1.752 -0.4061 -0.5145  0.1765
 8447TIP3    H146756   6.283   3.213   1.805 -1.4583 -1.0059 -0.3180
 8447TIP3    H246757   6.352   3.201   1.670 -1.6025 -1.0642 -0.3872
 8448TIP3   OH246758   4.385   0.116  15.303  0.3403  0.2311  0.3974
 8448TIP3    H146759   4.346   0.191  15.348 -0.8370  1.0109 -1.7874
 8448TIP3    H246760   4.315   0.050  15.303  0.1067  0.4632 -0.7687
 8449TIP3   OH246761   4.834   1.856   1.591  0.4432 -0.0881  0.0226
 8449TIP3    H146762   4.791   1.916   1.531  0.9809 -1.7540 -2.1593
 8449TIP3    H246763   4.765   1.796   1.620  0.6112 -0.7338 -0.8632
 8450TIP3   OH246764   4.593   3.123   1.082  0.4080  0.0059  0.4310
 8450TIP3    H146765   4.519   3.065   1.064 -1.0466  2.2727 -1.3479
 8450TIP3    H246766   4.651   3.113   1.006  1.1698 -0.5758  1.0706
 8451TIP3   OH246767   0.230   1.334  12.355  0.2861 -0.1488 -0.1310
 8451TIP3    H146768   0.219   1.335  12.450 -2.4566  1.6124 -0.3585
 8451TIP3    H246769   0.262   1.422  12.334 -2.6493  0.8303 -1.0283
 8452TIP3   OH246770   6.009   3.986  14.116 -0.2334  0.2272  0.1392
 8452TIP3    H146771   5.962   3.983  14.199 -1.4515 -2.0528 -0.5468
 8452TIP3    H246772   6.060   4.067  14.120  2.8024 -1.4887  4.7062
 8453TIP3   OH246773   5.790   4.410   1.119 -0.2075  0.1541  0.3735
 8453TIP3    H146774   5.740   4.402   1.200  0.5636  2.6908  1.2040
 8453TIP3    H246775   5.724   4.429   1.052 -0.6796 -0.1055  0.7585
 8454TIP3   OH246776   4.004   6.397  15.784  0.2698  0.0722  0.5392
 8454TIP3    H146777   4.065   6.330  15.816  0.8364  0.3963  0.1703
 8454TIP3    H246778   3.977   6.445  15.862 -0.3074 -0.7133  0.8366
 8455TIP3   OH246779   4.296   6.355   2.069 -0.5674  0.1250 -0.5008
 8455TIP3    H146780   4.219   6.411   2.067  0.7973  2.1015 -0.4600
 8455TIP3    H246781   4.319   6.349   2.162  0.0388  0.5763 -0.6207
 8456TIP3   OH246782   5.064   0.142  14.363  0.1853 -0.7690 -0.2343
 8456TIP3    H146783   5.104   0.211  14.416 -0.9508 -0.6788  0.5475
 8456TIP3    H246784   4.977   0.176  14.341 -0.1733 -1.7131 -0.3221
 8457TIP3   OH246785   1.616   2.550  14.514  0.5985 -0.2431  0.0346
 8457TIP3    H146786   1.625   2.535  14.420  2.4406 -0.0824  0.1462
 8457TIP3    H246787   1.679   2.620  14.533  0.4588 -0.4703  1.4328
 8458TIP3   OH246788   2.364   5.807   5.228  0.6852  0.2239  0.3101
 8458TIP3    H146789   2.354   5.756   5.147  0.8373 -1.1101  1.0931
 8458TIP3    H246790   2.294   5.871   5.225 -0.4405 -0.9766 -0.0508
 8459TIP3   OH246791   6.105   5.844  13.203 -1.1687  0.1293 -0.4759
 8459TIP3    H146792   6.190   5.826  13.241 -1.2992  0.2277 -0.1345
 8459TIP3    H246793   6.088   5.936  13.223 -0.8492  0.4405 -1.5436
 8460TIP3   OH246794   1.591   6.661  11.366 -0.1033  0.1683  0.4128
 8460TIP3    H146795   1.515   6.685  11.313 -1.7218  2.3956  3.4235
 8460TIP3    H246796   1.583   6.566  11.379 -0.5975 -0.1317 -1.7967
 8461TIP3   OH246797   6.660   5.352  13.803  0.1313  0.1273  0.3086
 8461TIP3    H146798   6.613   5.295  13.742  1.6709 -1.2692  0.3486
 8461TIP3    H246799   6.609   5.349  13.883 -0.6925  0.1392 -0.2029
 8462TIP3   OH246800   1.195   6.311   3.749 -0.1002  0.0774 -0.2426
 8462TIP3    H146801   1.254   6.302   3.674 -0.3941 -2.2378 -0.2652
 8462TIP3    H246802   1.108   6.305   3.711 -0.2493 -1.2544  0.2585
 8463TIP3   OH246803   2.291   1.989  11.731  0.0897  0.1126 -0.2983
 8463TIP3    H146804   2.341   1.948  11.660  1.2996  0.6226  0.2264
 8463TIP3    H246805   2.325   2.078  11.736 -2.0466  1.0318 -0.9841
 8464TIP3   OH246806   3.173   4.087   5.254  0.0781  0.3661 -0.4835
 8464TIP3    H146807   3.128   4.003   5.263 -1.0119  0.8525 -1.1613
 8464TIP3    H246808   3.196   4.093   5.161  1.9241 -0.0327 -0.0944
 8465TIP3   OH246809   2.992   5.997   1.153  0.2516 -0.2763  0.1884
 8465TIP3    H146810   2.909   5.952   1.137 -0.3957  0.6959  0.6780
 8465TIP3    H246811   3.032   6.005   1.067 -1.3318  1.4077 -0.4763
 8466TIP3   OH246812   1.392   3.737   0.905 -0.3574 -0.0566  0.4881
 8466TIP3    H146813   1.313   3.754   0.958 -0.8355 -0.9157  0.0709
 8466TIP3    H246814   1.442   3.674   0.957 -0.5722 -0.4922  0.1767
 8467TIP3   OH246815   1.634   2.588   0.850 -0.0873 -0.8074  0.3047
 8467TIP3    H146816   1.715   2.606   0.897  0.2071  0.2835 -0.5794
 8467TIP3    H246817   1.572   2.653   0.883  0.5336  0.9477 -1.7931
 8468TIP3   OH246818   2.123   6.229  13.911  0.1663 -0.0661  0.0170
 8468TIP3    H146819   2.056   6.239  13.844 -0.6729  0.4506  0.9090
 8468TIP3    H246820   2.206   6.247  13.866 -0.3867  0.3218 -0.8580
 8469TIP3   OH246821   6.524   4.363  15.297  0.2039  0.7018 -0.7524
 8469TIP3    H146822   6.573   4.310  15.360 -0.9671 -0.2908 -0.6592
 8469TIP3    H246823   6.472   4.422  15.351 -3.5454 -2.4873 -0.4718
 8470TIP3   OH246824   4.400   4.749   0.951  0.0383 -0.0059 -0.1019
 8470TIP3    H146825   4.473   4.783   0.901  0.3257 -0.3784  0.0559
 8470TIP3    H246826   4.439   4.681   1.007 -0.4189 -0.1874  0.0008
 8471TIP3   OH246827   6.269   6.555   3.469  0.3224  0.4201  0.3526
 8471TIP3    H146828   6.359   6.580   3.448  0.4600  0.3048  0.8049
 8471TIP3    H246829   6.216   6.604   3.405  0.6833  0.7123  0.2687
 8472TIP3   OH246830   1.343   2.717  13.779 -0.2863 -0.2418 -0.0668
 8472TIP3    H146831   1.361   2.790  13.838 -0.7539 -0.6882  0.6336
 8472TIP3    H246832   1.355   2.754  13.691  0.2693  0.4617  0.2955
 8473TIP3   OH246833   5.571   6.444   4.954 -0.5900  0.6530  0.4577
 8473TIP3    H146834   5.529   6.363   4.925  0.3172  0.3180  0.0602
 8473TIP3    H246835   5.546   6.509   4.888  2.8971 -0.4784 -2.2816
 8474TIP3   OH246836   4.783   2.625   3.638 -0.2650  0.3648  1.2467
 8474TIP3    H146837   4.765   2.678   3.716 -3.4299  0.4326  0.6086
 8474TIP3    H246838   4.842   2.679   3.587  0.1306  1.2897  2.6122
 8475TIP3   OH246839   6.358   0.398   1.259 -0.1967 -0.2785 -0.5640
 8475TIP3    H146840   6.310   0.463   1.310 -2.5350 -0.8139 -1.9100
 8475TIP3    H246841   6.314   0.315   1.277  1.1024 -1.0627 -0.8340
 8476TIP3   OH246842   4.505   3.057   5.392 -0.0570 -0.0656 -0.0254
 8476TIP3    H146843   4.478   3.051   5.483  0.7935  1.9231  0.3956
 8476TIP3    H246844   4.432   3.100   5.347  0.1203  0.2902  0.0215
 8477TIP3   OH246845   0.865   0.684  12.498  0.1892 -0.0823  0.6098
 8477TIP3    H146846   0.786   0.720  12.538  0.5820 -0.4363  1.7271
 8477TIP3    H246847   0.849   0.590  12.492  0.1852 -0.0513  0.0275
 8478TIP3   OH246848   6.402   1.866  16.346  0.1430 -0.0402 -0.0563
 8478TIP3    H146849   6.366   1.825  16.267  0.3617 -0.8344  0.2510
 8478TIP3    H246850   6.485   1.903  16.317  1.2039 -2.0817  0.2263
 8479TIP3   OH246851   0.672   1.467   1.493  0.0682 -0.3769  0.4162
 8479TIP3    H146852   0.663   1.559   1.515  2.1155  0.2158 -0.9637
 8479TIP3    H246853   0.766   1.449   1.499  0.0134 -1.7185 -1.6898
 8480TIP3   OH246854   1.610   2.363  16.111 -0.2140 -0.6628  0.0386
 8480TIP3    H146855   1.639   2.454  16.107  1.4265 -1.1324  0.3409
 8480TIP3    H246856   1.653   2.328  16.189 -1.8473 -1.3766  0.6556
 8481TIP3   OH246857   4.839   5.440   1.020 -0.6195 -0.4947 -0.6875
 8481TIP3    H146858   4.904   5.452   1.088  0.3621  0.0068 -1.6828
 8481TIP3    H246859   4.764   5.493   1.048 -0.3620 -0.5775  0.1623
 8482TIP3   OH246860   5.612   5.538   5.305 -0.0067  0.0068  0.9054
 8482TIP3    H146861   5.689   5.486   5.281 -1.3322 -0.9030 -1.9255
 8482TIP3    H246862   5.578   5.496   5.384 -0.4661 -2.9861 -0.7285
 8483TIP3   OH246863   3.362   2.053   3.955 -0.4381 -0.1189  0.0480
 8483TIP3    H146864   3.433   2.089   3.901 -0.5224 -0.8037 -0.5367
 8483TIP3    H246865   3.383   2.082   4.044  0.6590 -0.4081 -0.0897
 8484TIP3   OH246866   0.253   5.833  11.818  0.1607 -0.0488 -0.3230
 8484TIP3    H146867   0.296   5.805  11.738 -0.6467  2.0996 -1.5876
 8484TIP3    H246868   0.183   5.769  11.831 -0.3797  0.1753 -1.9637
 8485TIP3   OH246869   4.676   3.938  15.030 -0.1022 -0.2090 -0.1496
 8485TIP3    H146870   4.680   3.953  14.936  1.2726 -1.6314 -0.3650
 8485TIP3    H246871   4.603   3.877  15.042  1.4699 -2.2836 -0.6886
 8486TIP3   OH246872   5.030   2.349   6.580  0.7014  0.0202  0.0544
 8486TIP3    H146873   5.029   2.415   6.649  1.2743  1.9731 -1.7159
 8486TIP3    H246874   5.114   2.305   6.590  1.2687  1.0598 -0.1018
 8487TIP3   OH246875   0.125   5.500  13.894 -0.3938 -0.3824  0.6151
 8487TIP3    H146876   0.219   5.497  13.877 -0.4893  1.2712 -0.4347
 8487TIP3    H246877   0.097   5.409  13.894  1.1325 -0.8647  0.4579
 8488TIP3   OH246878   6.081   4.266   5.104  0.4984 -0.6927 -0.7633
 8488TIP3    H146879   6.127   4.206   5.163 -0.4280 -1.6566 -0.9958
 8488TIP3    H246880   5.991   4.233   5.101  0.0665  0.4760 -1.2257
 8489TIP3   OH246881   1.746   4.945  12.913 -0.5505 -0.1697 -0.3395
 8489TIP3    H146882   1.691   4.998  12.971  0.2663  1.7137 -1.1947
 8489TIP3    H246883   1.697   4.944  12.830 -1.5663 -2.5888  0.2160
 8490TIP3   OH246884   4.583   5.101   5.163 -0.2184 -0.3300  0.3883
 8490TIP3    H146885   4.611   5.054   5.084 -1.0238 -0.6286  0.2780
 8490TIP3    H246886   4.547   5.184   5.130  1.0679  0.3294  0.5737
 8491TIP3   OH246887   5.928   6.632  16.677 -0.0461 -0.0505 -0.0020
 8491TIP3    H146888   5.856   6.603  16.621  0.1540  1.5076 -1.1332
 8491TIP3    H246889   5.886   6.691  16.741 -0.2031 -1.4772  1.2700
 8492TIP3   OH246890   2.221   3.391   1.021 -0.2622  0.5656  0.2624
 8492TIP3    H146891   2.239   3.301   0.995  2.0418  0.4672  1.9134
 8492TIP3    H246892   2.138   3.386   1.069 -0.4253 -0.5568 -0.0984
 8493TIP3   OH246893   1.700   1.005   6.069  0.2939 -0.2053 -0.0486
 8493TIP3    H146894   1.721   0.974   5.981 -0.9558 -3.5681  0.6526
 8493TIP3    H246895   1.605   1.016   6.068  0.5601  2.8033  0.1171
 8494TIP3   OH246896   4.966   1.784  13.395 -0.0705  0.1426 -0.0394
 8494TIP3    H146897   4.931   1.869  13.421 -0.0504  0.0654  0.2474
 8494TIP3    H246898   4.890   1.735  13.363 -0.2723 -0.1060  0.7948
 8495TIP3   OH246899   1.079   3.336   2.038 -0.4086  0.0771 -0.1591
 8495TIP3    H146900   1.072   3.307   2.130 -1.9252  1.4893  0.2121
 8495TIP3    H246901   1.097   3.429   2.044 -1.4832  0.3714 -1.2870
 8496TIP3   OH246902   3.116   3.985  14.694  0.2057 -0.2084 -0.4278
 8496TIP3    H146903   3.061   3.908  14.678 -0.8217  0.3354  0.3743
 8496TIP3    H246904   3.188   3.976  14.632 -0.5545 -1.1807 -1.2058
 8497TIP3   OH246905   2.159   6.373  11.189  0.1034 -0.3255 -0.0748
 8497TIP3    H146906   2.228   6.378  11.255  0.1615 -0.1627 -0.1467
 8497TIP3    H246907   2.202   6.397  11.107 -0.3486  1.2311  0.1029
 8498TIP3   OH246908   1.599   6.013  11.946 -0.2213 -0.2986  0.0212
 8498TIP3    H146909   1.663   6.084  11.954  1.5655 -1.6096 -1.6569
 8498TIP3    H246910   1.554   6.030  11.863 -2.4766  0.8373  1.3692
 8499TIP3   OH246911   5.553   5.550  13.219 -0.0098 -0.4821  0.1212
 8499TIP3    H146912   5.646   5.564  13.232  0.3250 -0.2309 -2.1125
 8499TIP3    H246913   5.547   5.463  13.178 -0.9080 -1.1132  1.5058
 8500TIP3   OH246914   6.234   2.167   6.335  0.5991  0.2427 -0.0463
 8500TIP3    H146915   6.317   2.187   6.380 -0.1712  1.2249  1.0227
 8500TIP3    H246916   6.224   2.072   6.343  1.3165  0.1947  0.3695
 8501TIP3   OH246917   2.865   4.797   1.643 -0.4679  0.1593 -0.0920
 8501TIP3    H146918   2.882   4.764   1.555  0.8004  0.2660  0.0901
 8501TIP3    H246919   2.929   4.753   1.698 -0.0847  1.3853  0.4879
 8502TIP3   OH246920   5.820   3.982  17.015 -0.8218 -0.5568 -0.4888
 8502TIP3    H146921   5.819   3.919  16.943 -0.6205  1.0876 -1.9930
 8502TIP3    H246922   5.731   4.017  17.017 -0.5244  0.2220 -0.6933
 8503TIP3   OH246923   1.568   3.920  13.545 -0.2313 -0.3344 -0.0643
 8503TIP3    H146924   1.526   3.966  13.617  2.3499 -0.4251  1.6376
 8503TIP3    H246925   1.532   3.960  13.466 -1.1708  1.6647  1.2904
 8504TIP3   OH246926   3.496   3.482  16.004 -0.1817  0.1322  0.6017
 8504TIP3    H146927   3.442   3.404  15.999 -0.6346  0.3908  1.3115
 8504TIP3    H246928   3.531   3.494  15.916 -0.8654 -0.3305  0.2696
 8505TIP3   OH246929   1.411   6.502   0.023 -0.7750  0.1563 -0.3544
 8505TIP3    H146930   1.497   6.543   0.009  0.0061 -0.2803  2.5027
 8505TIP3    H246931   1.364   6.516  -0.060  1.4877  1.7292 -1.4912
 8506TIP3   OH246932   4.555   1.996  16.657 -0.4243  0.6841  0.0139
 8506TIP3    H146933   4.512   2.034  16.733 -0.2690 -0.3441  0.6410
 8506TIP3    H246934   4.493   1.931  16.623 -0.2085  0.6466 -0.3195
 8507TIP3   OH246935   3.467   4.198  11.048  0.2090  0.3305  0.0494
 8507TIP3    H146936   3.508   4.178  11.133  0.2555 -1.7620 -0.3991
 8507TIP3    H246937   3.529   4.164  10.984 -0.9535 -0.3586 -0.7268
 8508TIP3   OH246938   4.041   2.373   4.582  0.5991  0.1942 -0.0417
 8508TIP3    H146939   4.102   2.433   4.540  1.6699 -1.0214 -0.2915
 8508TIP3    H246940   4.042   2.295   4.527 -1.9965  0.4928 -0.6277
 8509TIP3   OH246941   2.551   3.532  13.481  0.2078  0.0574 -0.3404
 8509TIP3    H146942   2.500   3.458  13.451  1.6537 -1.6157  1.0796
 8509TIP3    H246943   2.534   3.537  13.575 -2.4619  3.7237 -0.7825
 8510TIP3   OH246944   3.289   6.359  15.592  0.7937 -0.5802  0.0016
 8510TIP3    H146945   3.326   6.440  15.558  0.5941 -0.5231 -0.0765
 8510TIP3    H246946   3.340   6.290  15.551 -0.2978 -0.5614 -1.4450
 8511TIP3   OH246947   4.480   5.111   0.830  0.4499 -0.2809  0.3546
 8511TIP3    H146948   4.430   5.187   0.859  0.6474  0.2466 -0.6313
 8511TIP3    H246949   4.416   5.055   0.786  0.3615 -0.5344  0.8082
 8512TIP3   OH246950   1.194   2.630   1.206  0.5603  0.8340  0.4334
 8512TIP3    H146951   1.213   2.658   1.116  0.7477 -0.9929 -0.1416
 8512TIP3    H246952   1.179   2.711   1.254 -1.8352  1.8164 -1.7620
 8513TIP3   OH246953   1.592   0.628  10.825  0.2421 -0.0632  0.2156
 8513TIP3    H146954   1.585   0.562  10.894 -3.0579  0.2817  0.3314
 8513TIP3    H246955   1.523   0.606  10.763  0.3851  2.0943 -0.7961
 8514TIP3   OH246956   1.731   0.055  13.201 -0.4000  0.2217  0.0124
 8514TIP3    H146957   1.743   0.039  13.295 -1.6196 -1.8239 -0.1170
 8514TIP3    H246958   1.808   0.015  13.160 -0.6541 -0.3256  0.0582
 8515TIP3   OH246959   5.797   6.773  15.368 -0.7137 -1.0103  0.0182
 8515TIP3    H146960   5.869   6.735  15.417  0.7076  2.4432  0.8870
 8515TIP3    H246961   5.737   6.808  15.434 -1.2824 -0.5691 -0.6989
 8516TIP3   OH246962   2.345   3.983  11.672 -0.3355  0.0528 -0.3406
 8516TIP3    H146963   2.439   4.000  11.661 -0.1617  1.0737  2.0776
 8516TIP3    H246964   2.340   3.888  11.682  0.4425 -0.0125 -0.4393
 8517TIP3   OH246965   2.049   3.687  13.929  0.1114 -0.1604  0.2483
 8517TIP3    H146966   2.141   3.711  13.927  0.0237  0.1665 -0.0354
 8517TIP3    H246967   2.049   3.591  13.931  0.4558 -0.1885 -0.5649
 8518TIP3   OH246968   5.866   1.371  11.954 -0.8587  0.4904  0.1569
 8518TIP3    H146969   5.839   1.432  12.023 -1.2584  1.0597 -0.4984
 8518TIP3    H246970   5.828   1.406  11.874  0.5644  0.4775 -0.5577
 8519TIP3   OH246971   1.061   6.060  16.950 -0.5119 -0.7275  0.2391
 8519TIP3    H146972   1.109   6.006  17.012  0.4913 -1.2755 -0.9594
 8519TIP3    H246973   1.025   5.998  16.887 -1.8851 -0.2265  0.4993
 8520TIP3   OH246974   4.039   3.448   4.400 -0.3650  0.5059 -0.0433
 8520TIP3    H146975   3.975   3.511   4.366 -0.7255 -0.9804 -2.3254
 8520TIP3    H246976   4.120   3.467   4.351  0.2471  0.7515  1.0317
 8521TIP3   OH246977   0.654   0.564   4.549 -0.9777 -0.4688  1.3449
 8521TIP3    H146978   0.634   0.657   4.537  1.2691  0.0413  1.1310
 8521TIP3    H246979   0.743   0.563   4.582  1.5024 -2.6276 -4.1916
 8522TIP3   OH246980   0.515   5.016   0.921 -0.5185 -0.2417 -0.2621
 8522TIP3    H146981   0.441   5.064   0.958 -0.7373 -0.9137  0.1944
 8522TIP3    H246982   0.534   4.948   0.985 -1.1207 -1.6529 -1.5312
 8523TIP3   OH246983   4.981   2.129  13.779 -0.5385 -0.3572  0.1807
 8523TIP3    H146984   5.069   2.093  13.783 -0.3540 -0.1295 -1.2292
 8523TIP3    H246985   4.951   2.130  13.870  0.7252 -0.8747  0.6250
 8524TIP3   OH246986   5.042   1.567  11.304 -0.2433 -0.1565  0.1370
 8524TIP3    H146987   5.068   1.580  11.212 -1.6297 -0.4428 -0.3176
 8524TIP3    H246988   4.977   1.636  11.320 -0.4402 -0.4766  0.7217
 8525TIP3   OH246989   4.214   3.860  11.748 -0.2136 -0.0898  0.5774
 8525TIP3    H146990   4.264   3.844  11.667 -2.8651  0.4231 -1.2948
 8525TIP3    H246991   4.166   3.779  11.762 -1.4504  0.5777  0.3154
 8526TIP3   OH246992   0.737   3.950   2.700  0.0338  0.1240  0.1089
 8526TIP3    H146993   0.683   4.021   2.736 -0.6603 -0.2188 -0.2255
 8526TIP3    H246994   0.761   3.898   2.776  0.6063  0.7467  0.3658
 8527TIP3   OH246995   2.928   5.419  14.535 -0.7857 -0.2978  0.1061
 8527TIP3    H146996   2.965   5.506  14.554  1.2420 -0.7394 -1.4597
 8527TIP3    H246997   2.905   5.384  14.621 -0.3261  1.2184  0.8942
 8528TIP3   OH246998   2.503   4.975   1.264 -0.0653  0.2732 -0.2950
 8528TIP3    H146999   2.559   4.993   1.340  0.7699  0.3492 -0.9171
 8528TIP3    H247000   2.522   4.884   1.242 -0.4825  0.1807 -0.2609
 8529TIP3   OH247001   1.234   4.501   4.478  0.0681 -0.4209 -0.1243
 8529TIP3    H147002   1.157   4.488   4.534 -0.8086 -0.2314 -1.2485
 8529TIP3    H247003   1.210   4.575   4.422  1.1908 -0.1780 -0.3144
 8530TIP3   OH247004   0.514   5.939   1.054 -0.9310 -0.6771 -0.2072
 8530TIP3    H147005   0.568   5.968   1.127 -0.9784 -3.1320  0.8641
 8530TIP3    H247006   0.427   5.925   1.091 -1.9397  1.4084 -1.5327
 8531TIP3   OH247007   1.052   3.207  11.547 -0.5515 -0.4824  0.0647
 8531TIP3    H147008   1.064   3.301  11.535  0.3618 -0.6513 -0.4649
 8531TIP3    H247009   0.966   3.189  11.509 -0.1956 -0.0542 -0.9764
 8532TIP3   OH247010   4.857   3.578  14.752 -0.3124 -0.1476  0.0828
 8532TIP3    H147011   4.822   3.579  14.663 -0.3657  1.4810  0.1033
 8532TIP3    H247012   4.949   3.555  14.742  0.3246  2.4618 -0.6817
 8533TIP3   OH247013   5.209   2.949  13.332  0.4557 -0.0867  0.2796
 8533TIP3    H147014   5.160   2.935  13.414 -1.8677  2.6769 -0.4757
 8533TIP3    H247015   5.143   2.945  13.263  1.9639 -0.0469 -1.2430
 8534TIP3   OH247016   4.977   2.274  11.612 -0.4338 -0.2431 -0.1168
 8534TIP3    H147017   4.950   2.291  11.702  2.3594  0.8471  0.6386
 8534TIP3    H247018   5.070   2.250  11.620 -0.8700 -3.3523 -2.4447
 8535TIP3   OH247019   0.802   2.374   2.107 -0.3175  0.1717  0.3365
 8535TIP3    H147020   0.797   2.379   2.202  0.7751 -0.2091  0.4361
 8535TIP3    H247021   0.717   2.340   2.079 -0.4397 -0.2736  1.2256
 8536TIP3   OH247022   3.962   2.566  11.949 -0.5669  1.0971  0.1121
 8536TIP3    H147023   3.977   2.604  12.036 -1.3180 -0.3178  0.8997
 8536TIP3    H247024   4.047   2.531  11.923 -0.0914  2.4201 -0.2105
 8537TIP3   OH247025   2.121   4.217   5.482  0.1702 -0.3372  0.4544
 8537TIP3    H147026   2.123   4.157   5.407  0.5627 -0.8505  0.8746
 8537TIP3    H247027   2.110   4.161   5.558 -0.5808  0.2068  0.7695
 8538TIP3   OH247028   1.576   1.663  11.703 -0.0870 -0.1169  0.4635
 8538TIP3    H147029   1.490   1.692  11.734  1.2248  1.8382  2.6133
 8538TIP3    H247030   1.621   1.744  11.677  1.5596 -0.9262  0.6468
 8539TIP3   OH247031   2.037   0.997  13.741 -0.1177  0.1533 -0.3724
 8539TIP3    H147032   2.029   0.911  13.784  1.9997  1.2623  2.6262
 8539TIP3    H247033   1.961   1.002  13.683 -1.1001 -3.1445  0.3958
 8540TIP3   OH247034   1.300   6.734  12.324 -0.0598  0.0363 -0.3244
 8540TIP3    H147035   1.273   6.650  12.288  0.9666 -0.0197 -1.0265
 8540TIP3    H247036   1.377   6.713  12.377  1.1134  0.6772 -1.6829
 8541TIP3   OH247037   3.109   0.446   3.558  0.6113 -0.0372 -0.1416
 8541TIP3    H147038   3.166   0.488   3.622  1.1286  0.3117 -0.8216
 8541TIP3    H247039   3.049   0.393   3.611  0.3651  1.0379  0.6926
 8542TIP3   OH247040   4.719   0.606  15.071 -0.3067 -0.3324  0.1838
 8542TIP3    H147041   4.776   0.533  15.046  0.6480 -0.0125  1.3184
 8542TIP3    H247042   4.650   0.565  15.124  0.0503 -0.4495  0.5577
 8543TIP3   OH247043   6.180   5.154  11.812 -0.0954 -0.4522 -0.2969
 8543TIP3    H147044   6.160   5.117  11.726  0.6379  0.1607 -0.7466
 8543TIP3    H247045   6.204   5.078  11.866  1.7511 -0.6466 -1.3058
 8544TIP3   OH247046   1.824   1.701  12.174 -0.0174 -0.2140 -0.3594
 8544TIP3    H147047   1.736   1.723  12.203 -0.3552 -0.8842 -0.8606
 8544TIP3    H247048   1.819   1.705  12.078  0.6890  0.4694 -0.3829
 8545TIP3   OH247049   1.348   4.676   0.270  0.5323 -0.5633 -0.4901
 8545TIP3    H147050   1.433   4.712   0.243  0.9568 -1.1635  0.0119
 8545TIP3    H247051   1.367   4.584   0.290 -0.0949 -0.5268  0.2955
 8546TIP3   OH247052   1.308   1.307   1.599 -0.1159 -0.1755 -0.0637
 8546TIP3    H147053   1.222   1.268   1.584 -0.1047 -0.3883  0.4042
 8546TIP3    H247054   1.370   1.246   1.557 -0.2142  0.1602 -0.7103
 8547TIP3   OH247055   2.075   4.229   2.097  0.1662  0.1903  0.3434
 8547TIP3    H147056   2.073   4.175   2.176 -1.2098 -0.4448 -0.0842
 8547TIP3    H247057   2.076   4.165   2.025 -3.0377  0.5983 -0.2217
 8548TIP3   OH247058   0.633   6.002  12.157 -0.1160  0.1324  0.2711
 8548TIP3    H147059   0.600   6.087  12.129 -0.5101 -0.7483 -2.1491
 8548TIP3    H247060   0.711   5.988  12.105 -0.2670 -1.1539  0.3565
 8549TIP3   OH247061   0.498   1.646   3.125 -0.4641  0.5867 -0.0495
 8549TIP3    H147062   0.561   1.706   3.084 -2.5961  3.4959  0.6486
 8549TIP3    H247063   0.488   1.678   3.214 -0.4850 -1.9110  0.9392
 8550TIP3   OH247064   5.042   0.089   2.526 -0.0730 -0.2755 -0.0404
 8550TIP3    H147065   5.083   0.003   2.522  2.3125  0.8291 -0.8449
 8550TIP3    H247066   4.989   0.095   2.446  0.1158 -0.8090 -0.2016
 8551TIP3   OH247067   4.430   5.819   0.254 -0.0796  0.3660  0.1347
 8551TIP3    H147068   4.348   5.834   0.208  0.2636 -0.8553 -0.9204
 8551TIP3    H247069   4.411   5.745   0.313  0.6012 -0.8299 -1.1022
 8552TIP3   OH247070   6.740   4.985   3.389  0.1791  0.3315 -0.0611
 8552TIP3    H147071   6.689   5.065   3.381 -0.8162 -0.2507  0.3085
 8552TIP3    H247072   6.829   5.015   3.411 -0.4170  1.2989  1.1658
 8553TIP3   OH247073   3.472   2.710  12.138 -0.2930 -0.2768 -0.1396
 8553TIP3    H147074   3.559   2.702  12.178 -0.7647  0.4805  1.0782
 8553TIP3    H247075   3.471   2.798  12.102 -0.8157  0.0002  0.5285
 8554TIP3   OH247076   4.947   0.984  11.796  0.1347 -0.1930 -0.4135
 8554TIP3    H147077   4.906   1.070  11.787 -1.3058 -0.8514 -0.4687
 8554TIP3    H247078   4.997   0.990  11.877 -0.5709  0.4724 -0.0072
 8555TIP3   OH247079   0.966   1.390   3.584  0.2100  0.2161 -0.3857
 8555TIP3    H147080   1.058   1.415   3.575 -0.1290  2.2881  1.1521
 8555TIP3    H247081   0.917   1.468   3.556 -0.9982  0.0649  1.1648
 8556TIP3   OH247082   3.199   0.221  11.744 -0.0064 -0.2339 -0.0716
 8556TIP3    H147083   3.252   0.149  11.708 -0.7448 -0.6122 -0.4197
 8556TIP3    H247084   3.261   0.274  11.794  0.5119 -1.2467  0.3907
 8557TIP3   OH247085   1.561   4.235   2.043 -0.3151 -0.1541 -0.3167
 8557TIP3    H147086   1.544   4.143   2.026 -1.6841  0.1853 -0.9133
 8557TIP3    H247087   1.606   4.267   1.965  0.3849 -0.3655 -0.0047
 8558TIP3   OH247088   0.625   2.845   2.680 -0.0246 -0.4018 -0.1179
 8558TIP3    H147089   0.715   2.868   2.655 -0.3024  0.8826  0.0019
 8558TIP3    H247090   0.634   2.761   2.724  1.2018 -0.0431  0.3716
 8559TIP3   OH247091   5.150   6.161   2.098  0.0062  0.1676  0.3051
 8559TIP3    H147092   5.224   6.222   2.101  0.1285 -0.0163  1.7433
 8559TIP3    H247093   5.134   6.147   2.004  0.7137  1.4992 -0.0395
 8560TIP3   OH247094   2.555   5.301   5.147  0.1319 -0.3662 -0.2004
 8560TIP3    H147095   2.548   5.389   5.110  1.3033 -0.1669  0.0006
 8560TIP3    H247096   2.580   5.246   5.072  1.8013 -0.0854  0.1115
 8561TIP3   OH247097   0.568   1.093   4.524  0.2794 -0.0778 -0.4014
 8561TIP3    H147098   0.620   1.104   4.604  0.3595  1.0960 -0.5901
 8561TIP3    H247099   0.632   1.100   4.453 -0.0603  0.9726 -0.6218
 8562TIP3   OH247100   2.763   4.464  12.447  0.6510  0.8743  0.3809
 8562TIP3    H147101   2.811   4.382  12.457  0.5983  0.9007  0.9300
 8562TIP3    H247102   2.699   4.462  12.519 -0.9959  0.2904 -1.0457
 8563TIP3   OH247103   6.346   0.253   5.076  0.2820 -0.8610 -0.2025
 8563TIP3    H147104   6.441   0.268   5.067  0.1511 -0.2882 -0.7361
 8563TIP3    H247105   6.323   0.296   5.159  0.3629 -0.3441 -0.4449
 8564TIP3   OH247106   0.474   4.855  12.985  0.7072  0.4452  0.4946
 8564TIP3    H147107   0.408   4.789  12.960  0.7525  0.2462  0.8988
 8564TIP3    H247108   0.558   4.809  12.977  0.8553  0.8642 -0.5759
 8565TIP3   OH247109   0.977   4.542   4.635  0.5381  0.6255 -0.0636
 8565TIP3    H147110   0.944   4.631   4.645 -1.2984  0.0558 -0.7050
 8565TIP3    H247111   0.966   4.502   4.721 -0.6848  0.3825 -0.3193
 8566TIP3   OH247112   6.382   5.521  12.086 -0.0451  0.7459  0.0785
 8566TIP3    H147113   6.460   5.513  12.142 -0.3896 -0.8672  0.3525
 8566TIP3    H247114   6.369   5.434  12.050 -1.0842  1.2695 -0.8582
 8567TIP3   OH247115   5.701   5.264  12.675  0.0201 -0.0452  0.1041
 8567TIP3    H147116   5.662   5.351  12.667  0.9694  0.3591 -0.1531
 8567TIP3    H247117   5.771   5.262  12.611 -0.5513 -1.3282 -0.5287
 8568TIP3   OH247118   0.301   2.113  13.936 -0.9175  0.3076  0.2134
 8568TIP3    H147119   0.298   2.018  13.941  0.0946  0.3182  1.4285
 8568TIP3    H247120   0.296   2.143  14.026  1.7686  1.2587  0.1435
 8569TIP3   OH247121   0.812   0.831   0.961  0.4633  0.1366 -0.3976
 8569TIP3    H147122   0.878   0.806   0.895  0.2942 -0.7427 -0.2482
 8569TIP3    H247123   0.769   0.749   0.984  0.6317  0.3967  0.9398
 8570TIP3   OH247124   2.220   1.201  15.431 -0.5809 -0.0058 -0.5026
 8570TIP3    H147125   2.183   1.135  15.373 -0.0577 -0.5142 -0.2726
 8570TIP3    H247126   2.171   1.281  15.412 -2.9670 -1.0242  1.0155
 8571TIP3   OH247127   4.234   6.164  10.957 -0.8678 -0.2802  0.3364
 8571TIP3    H147128   4.311   6.197  11.005 -0.7307 -0.7677  0.4629
 8571TIP3    H247129   4.196   6.099  11.016 -1.2774 -0.1660  0.1971
 8572TIP3   OH247130   0.213   3.494  12.830  0.3682 -0.3873 -0.3816
 8572TIP3    H147131   0.268   3.556  12.782  1.2449 -0.1365  0.9117
 8572TIP3    H247132   0.193   3.425  12.766  1.0650  0.1986 -1.2543
 8573TIP3   OH247133   1.193   5.815   5.325  0.0836  0.4584 -0.2262
 8573TIP3    H147134   1.106   5.853   5.339  0.4070  1.5321 -0.9711
 8573TIP3    H247135   1.183   5.762   5.246  0.0686  0.4519 -0.2203
 8574TIP3   OH247136   4.519   1.277   3.037 -0.4024 -0.7610  0.5540
 8574TIP3    H147137   4.452   1.319   3.091 -0.9512 -2.3553  1.1584
 8574TIP3    H247138   4.589   1.343   3.031 -0.8301 -0.1004  2.2142
 8575TIP3   OH247139   5.744   5.979   4.271 -0.3740 -0.1076 -0.0758
 8575TIP3    H147140   5.731   5.894   4.229 -1.2018 -0.2352  0.4279
 8575TIP3    H247141   5.705   5.970   4.358 -1.0289  0.9709 -0.2352
 8576TIP3   OH247142   3.533   5.984   5.720  0.4962  0.3493 -0.1854
 8576TIP3    H147143   3.579   6.057   5.678  4.0801  0.3271  3.2132
 8576TIP3    H247144   3.475   6.026   5.784 -1.7302  0.2069 -1.9439
 8577TIP3   OH247145   5.187   5.321  13.309 -0.3385  0.5114  0.0855
 8577TIP3    H147146   5.239   5.395  13.279  0.3007 -0.3581 -1.0190
 8577TIP3    H247147   5.119   5.310  13.243 -0.5967  0.2765  0.3823
 8578TIP3   OH247148   6.078   2.537  13.265  0.1037 -0.6853  0.6924
 8578TIP3    H147149   5.991   2.569  13.244 -0.0094 -1.2678  0.2605
 8578TIP3    H247150   6.129   2.616  13.284 -0.7380 -0.3982  1.8522
 8579TIP3   OH247151   5.742   2.791  12.961  0.4910  0.1705 -0.3936
 8579TIP3    H147152   5.712   2.857  12.898 -0.8825  0.0908  0.1429
 8579TIP3    H247153   5.777   2.842  13.034  0.9291  0.2818 -0.6814
 8580TIP3   OH247154   6.760   0.332   0.922 -0.5088 -0.1312  0.1633
 8580TIP3    H147155   6.835   0.389   0.937  0.0592 -0.7728 -0.1709
 8580TIP3    H247156   6.787   0.247   0.957 -1.0206 -0.4065 -0.0937
 8581TIP3   OH247157   4.771   0.810   0.681  0.3436  0.0934 -0.0166
 8581TIP3    H147158   4.830   0.879   0.712  2.8520 -0.9193 -2.1735
 8581TIP3    H247159   4.817   0.728   0.700 -0.8212 -0.8029 -0.8886
 8582TIP3   OH247160   1.841   5.456   3.907  0.0603  0.2514  0.4553
 8582TIP3    H147161   1.789   5.526   3.946  1.0789  0.3561  1.6819
 8582TIP3    H247162   1.864   5.489   3.820 -0.6405  0.8335  0.4782
 8583TIP3   OH247163   0.967   0.457  15.674  0.1580 -0.0676  0.2643
 8583TIP3    H147164   0.888   0.459  15.620  0.7435  0.2487 -0.5771
 8583TIP3    H247165   0.991   0.548  15.686  1.3903 -0.2076 -0.9562
 8584TIP3   OH247166   1.125   2.832   1.382 -0.4027 -0.1392 -0.2720
 8584TIP3    H147167   1.152   2.753   1.429  0.3490  0.2192 -0.0961
 8584TIP3    H247168   1.115   2.898   1.450  0.2628  0.2658 -0.5636
 8585TIP3   OH247169   4.039   5.930  11.372  0.5028 -0.1337 -0.5031
 8585TIP3    H147170   4.058   5.837  11.381 -0.7111 -0.5088 -1.5696
 8585TIP3    H247171   3.969   5.935  11.307  0.2595  1.4968 -0.1760
 8586TIP3   OH247172   6.049   6.749   2.041 -0.3128 -0.2143 -0.0628
 8586TIP3    H147173   6.049   6.832   2.090 -1.0130 -0.5747  0.5621
 8586TIP3    H247174   5.973   6.702   2.074  1.1910 -1.9741  1.0490
 8587TIP3   OH247175   1.989   2.727  14.179 -0.3023  0.4398  0.1538
 8587TIP3    H147176   2.068   2.705  14.228  0.3030 -1.7391 -1.6369
 8587TIP3    H247177   1.928   2.656  14.199 -0.1497 -0.3299 -1.8852
 8588TIP3   OH247178   4.137   0.862   5.042  0.2548 -0.2347  0.4072
 8588TIP3    H147179   4.206   0.900   5.097  2.8258  0.8698 -3.2210
 8588TIP3    H247180   4.154   0.897   4.954 -3.1221 -2.4126 -1.3281
 8589TIP3   OH247181   5.306   3.149   5.393  0.1373  0.2048 -0.4436
 8589TIP3    H147182   5.289   3.070   5.445  0.4137 -0.0014 -0.6591
 8589TIP3    H247183   5.317   3.218   5.458  1.7237 -0.2816 -0.1311
 8590TIP3   OH247184   2.423   6.440  15.469  0.2448 -0.0060 -0.8970
 8590TIP3    H147185   2.333   6.471  15.456 -0.3094 -1.1977 -0.1830
 8590TIP3    H247186   2.465   6.451  15.384 -0.9123 -0.4285 -1.5546
 8591TIP3   OH247187   0.545   4.350  12.706 -0.3650  0.3761 -0.1857
 8591TIP3    H147188   0.610   4.282  12.721 -1.3058 -0.4037  0.4869
 8591TIP3    H247189   0.591   4.416  12.655  0.6167 -0.6967 -0.7393
 8592TIP3   OH247190   0.127   6.312  17.139 -0.3426 -0.2889  0.0326
 8592TIP3    H147191   0.134   6.401  17.173 -1.8247  0.2462 -0.9366
 8592TIP3    H247192   0.137   6.256  17.216  0.8330  0.6827  0.6200
 8593TIP3   OH247193   1.892   1.929  14.003 -0.3104 -0.6644  0.1942
 8593TIP3    H147194   1.816   1.987  14.004  0.5479  0.5067  0.7615
 8593TIP3    H247195   1.939   1.951  14.084  2.6063  1.4024 -1.8632
 8594TIP3   OH247196   5.713   1.280   5.330 -0.0648 -0.4063  0.5947
 8594TIP3    H147197   5.645   1.285   5.262  1.3890  2.7365 -0.8320
 8594TIP3    H247198   5.775   1.215   5.298 -0.6237 -0.7211  0.1329
 8595TIP3   OH247199   2.675   2.915  15.807 -0.7892 -0.3084  0.2243
 8595TIP3    H147200   2.656   2.838  15.862  0.0238 -0.5701  0.1499
 8595TIP3    H247201   2.753   2.954  15.846  0.0564 -0.7409 -0.9799
 8596TIP3   OH247202   0.614   0.550   4.857 -0.0569  0.0004 -0.2489
 8596TIP3    H147203   0.555   0.579   4.787  0.1398  1.3814  0.1344
 8596TIP3    H247204   0.691   0.606   4.849  0.1956 -0.1899  0.7418
 8597TIP3   OH247205   5.437   2.352   1.868  0.2704 -0.2145  0.4303
 8597TIP3    H147206   5.512   2.294   1.856 -0.5203 -1.2611  0.5065
 8597TIP3    H247207   5.371   2.320   1.808 -0.7754 -0.4384  1.6567
 8598TIP3   OH247208   3.139   5.774  13.652 -0.0749 -0.3727 -0.0617
 8598TIP3    H147209   3.080   5.785  13.727  1.2964 -0.5775  1.1168
 8598TIP3    H247210   3.141   5.679  13.637  0.7247 -0.4778  0.6004
 8599TIP3   OH247211   1.946   1.926  13.482 -0.0246  0.0636 -0.4997
 8599TIP3    H147212   1.858   1.908  13.450  0.4583  0.1969 -1.9554
 8599TIP3    H247213   1.986   1.840  13.495 -0.1808  0.0083 -0.3888
 8600TIP3   OH247214   0.334   5.342  16.048  0.4230  0.5545  0.1668
 8600TIP3    H147215   0.409   5.397  16.070  0.4571  0.5305  0.1095
 8600TIP3    H247216   0.328   5.280  16.121  0.4238  0.5926  0.1989
 8601TIP3   OH247217   0.355   6.249   1.472  1.0760  0.1841 -0.4301
 8601TIP3    H147218   0.410   6.185   1.516  0.9301 -1.1816 -2.1526
 8601TIP3    H247219   0.265   6.223   1.492  0.9925 -0.7835 -1.8950
 8602TIP3   OH247220   5.110   0.802   4.819 -0.2548 -0.1005 -0.3382
 8602TIP3    H147221   5.026   0.762   4.840 -0.1944  0.0309  0.1625
 8602TIP3    H247222   5.093   0.852   4.739 -0.3755 -0.9642 -0.8719
 8603TIP3   OH247223   1.320   4.625  13.950 -0.0896  0.4971 -0.2702
 8603TIP3    H147224   1.412   4.599  13.948 -0.2499 -0.1101  0.0278
 8603TIP3    H247225   1.322   4.720  13.936  0.4224  0.1942 -2.8513
 8604TIP3   OH247226   3.738   6.026   2.952 -0.0056  0.0986  0.0266
 8604TIP3    H147227   3.815   6.041   3.006  0.4322 -0.2232 -0.4966
 8604TIP3    H247228   3.664   6.041   3.010  0.4302  1.6528  0.2204
 8605TIP3   OH247229   3.548   3.056  14.735 -0.3429  0.8305 -0.8853
 8605TIP3    H147230   3.583   3.057  14.824 -0.9238  1.3724 -0.6525
 8605TIP3    H247231   3.529   2.964  14.717 -2.5866  0.9554  0.5160
 8606TIP3   OH247232   6.068   1.770   5.547 -0.4893  0.0953  0.1368
 8606TIP3    H147233   6.040   1.811   5.629  0.2466 -0.0941  0.4972
 8606TIP3    H247234   6.081   1.678   5.570 -1.3779 -0.1918 -0.4725
 8607TIP3   OH247235   1.595   1.481  15.586  0.3988 -0.2874 -0.8990
 8607TIP3    H147236   1.556   1.568  15.592 -2.9263 -1.7412  2.6834
 8607TIP3    H247237   1.535   1.432  15.528  0.0717 -1.0784  0.0750
 8608TIP3   OH247238   5.061   6.306  12.429  0.0002 -0.6731  0.1041
 8608TIP3    H147239   4.994   6.375  12.428 -0.0451 -0.6413  2.0973
 8608TIP3    H247240   5.123   6.333  12.496  0.8727 -1.7721 -0.2258
 8609TIP3   OH247241   4.618   2.177   6.549  0.6386 -0.3454 -0.3094
 8609TIP3    H147242   4.655   2.248   6.496  2.0596 -2.3780 -2.2132
 8609TIP3    H247243   4.663   2.098   6.519 -3.1951 -2.6529 -0.7405
 8610TIP3   OH247244   3.634   5.279   0.398 -0.6875  0.0643 -0.0989
 8610TIP3    H147245   3.614   5.266   0.491 -0.2881  1.7414  0.2468
 8610TIP3    H247246   3.577   5.350   0.370 -2.1366 -1.6031 -1.6675
 8611TIP3   OH247247   0.746   3.213  12.768 -0.1918  0.3122 -0.1918
 8611TIP3    H147248   0.784   3.128  12.745 -1.6596 -0.8049  1.2523
 8611TIP3    H247249   0.653   3.195  12.782  0.0418  1.2619  3.9809
 8612TIP3   OH247250   5.393   0.364   2.430  0.0342 -0.1001 -0.4594
 8612TIP3    H147251   5.331   0.409   2.372  1.0265 -1.0997 -2.3781
 8612TIP3    H247252   5.473   0.357   2.379  0.7943 -1.5143  0.8502
 8613TIP3   OH247253   5.470   1.807  12.102 -0.9904  0.4961  0.2918
 8613TIP3    H147254   5.381   1.771  12.093 -0.8858  0.0749  0.8878
 8613TIP3    H247255   5.492   1.838  12.014 -0.9775 -1.1508 -0.3243
 8614TIP3   OH247256   6.180   3.304  12.149  0.1296 -0.2071  0.0572
 8614TIP3    H147257   6.133   3.354  12.216  1.4160  0.4934  0.4841
 8614TIP3    H247258   6.206   3.223  12.192  2.6626  1.0459  1.1522
 8615TIP3   OH247259   3.569   6.349  12.350  0.0594  0.7052 -0.6429
 8615TIP3    H147260   3.486   6.341  12.303 -0.9202  3.4209  0.3978
 8615TIP3    H247261   3.545   6.342  12.442  1.1554  0.5816 -0.3545
 8616TIP3   OH247262   3.600   4.016  11.308  0.0987  0.3263 -0.1837
 8616TIP3    H147263   3.676   3.991  11.256  1.0722  0.4932  1.1258
 8616TIP3    H247264   3.563   3.932  11.338 -1.6156  0.0991 -2.6272
 8617TIP3   OH247265   4.907   4.948  13.856  1.1330  0.4346  0.0993
 8617TIP3    H147266   4.851   4.874  13.835 -1.4913  2.5013 -0.6989
 8617TIP3    H247267   4.983   4.909  13.899 -0.2129 -2.6505 -0.0565
 8618TIP3   OH247268   1.671   3.519   0.444  0.3214 -0.1917  0.8579
 8618TIP3    H147269   1.605   3.519   0.513  0.7319 -0.1776  1.2571
 8618TIP3    H247270   1.734   3.585   0.470  0.2260  0.1638  0.2105
 8619TIP3   OH247271   2.863   1.838  14.021  0.1257  0.4580 -0.0871
 8619TIP3    H147272   2.883   1.750  13.988  0.5197  0.0229  1.2120
 8619TIP3    H247273   2.897   1.898  13.954  0.8287 -0.3707 -0.4966
 8620TIP3   OH247274   2.629   2.557   1.052 -0.3124  0.9491 -0.6671
 8620TIP3    H147275   2.571   2.525   0.983  1.5139 -0.0165 -1.8120
 8620TIP3    H247276   2.598   2.646   1.070 -1.4671  0.8345 -1.9915
 8621TIP3   OH247277   0.761   4.563   3.864 -0.4598 -0.2156  0.8851
 8621TIP3    H147278   0.762   4.644   3.916 -0.8870 -0.6210  1.5521
 8621TIP3    H247279   0.680   4.568   3.814  0.4290  0.6429 -0.5492
 8622TIP3   OH247280   4.304   4.315   2.182 -0.0523 -0.5871 -0.4620
 8622TIP3    H147281   4.227   4.272   2.145 -0.4863 -0.1475 -0.0736
 8622TIP3    H247282   4.279   4.337   2.271  1.5609 -3.2572  0.7949
 8623TIP3   OH247283   3.827   4.334  12.774 -0.1514  0.2929 -0.3998
 8623TIP3    H147284   3.914   4.319  12.811  0.0803  0.3426 -0.9085
 8623TIP3    H247285   3.836   4.413  12.721 -0.3947  0.0702 -0.7869
 8624TIP3   OH247286   1.614   3.753  10.496  0.4168 -0.3023 -0.0543
 8624TIP3    H147287   1.522   3.769  10.517  0.9309  1.3096  1.1912
 8624TIP3    H247288   1.629   3.803  10.416  0.6125  0.9304  0.7207
 8625TIP3   OH247289   4.294   4.670  16.295  0.6423 -0.2234 -0.4793
 8625TIP3    H147290   4.275   4.613  16.221 -2.4765  1.9813 -1.5738
 8625TIP3    H247291   4.344   4.743  16.258  0.2653  0.2090 -0.1574
 8626TIP3   OH247292   1.790   0.688   1.884  0.4089 -0.4762  0.1888
 8626TIP3    H147293   1.878   0.671   1.918 -0.5188 -4.0012  1.3316
 8626TIP3    H247294   1.796   0.666   1.791  0.6125 -1.4162  0.4130
 8627TIP3   OH247295   3.070   5.311  12.126 -0.5878 -0.0796  0.1838
 8627TIP3    H147296   2.985   5.267  12.121 -0.4192 -0.5851  1.4400
 8627TIP3    H247297   3.114   5.287  12.045 -0.6456 -1.9772  0.6652
 8628TIP3   OH247298   4.028   4.170   2.253 -0.0722 -0.1537  0.2647
 8628TIP3    H147299   3.968   4.098   2.274  0.4755 -0.2672  1.5437
 8628TIP3    H247300   3.987   4.215   2.179 -1.7356 -0.2221  1.0979
 8629TIP3   OH247301   3.472   3.344   2.097 -0.0225 -0.1343  0.3409
 8629TIP3    H147302   3.530   3.408   2.056  1.4532 -0.5131  1.7555
 8629TIP3    H247303   3.385   3.386   2.094  0.9444  2.1610  1.5564
 8630TIP3   OH247304   4.234   5.200   4.591 -0.4603  0.2315  0.5388
 8630TIP3    H147305   4.185   5.125   4.558 -1.2941  0.0783  2.0434
 8630TIP3    H247306   4.231   5.191   4.687  0.6589  1.4021  0.7163
 8631TIP3   OH247307   0.255   4.792  14.857 -0.1103 -0.3622 -0.0544
 8631TIP3    H147308   0.311   4.835  14.921  0.8811 -0.6749 -0.6976
 8631TIP3    H247309   0.208   4.726  14.907  0.6073 -0.5600  0.3735
 8632TIP3   OH247310   4.446   3.160   1.979 -0.4462 -0.1085  0.0165
 8632TIP3    H147311   4.381   3.114   2.033  0.5410 -0.9221  0.5645
 8632TIP3    H247312   4.530   3.130   2.014  0.2245 -0.1602 -1.5900
 8633TIP3   OH247313   5.095   6.711   0.108 -0.5133 -0.2737  0.5239
 8633TIP3    H147314   5.068   6.642   0.049  1.9521 -0.6271 -0.2739
 8633TIP3    H247315   5.021   6.773   0.107 -1.8705 -1.8140 -0.3654
 8634TIP3   OH247316   2.618   1.614   3.173 -0.1540 -0.2491 -0.0813
 8634TIP3    H147317   2.655   1.538   3.219  0.2376  0.0614  0.1271
 8634TIP3    H247318   2.695   1.663   3.142 -0.3705  0.5620  0.6178
 8635TIP3   OH247319   0.554   5.285   2.573 -0.3176  0.3891 -0.0727
 8635TIP3    H147320   0.640   5.244   2.584  0.3864  0.6071 -3.6606
 8635TIP3    H247321   0.566   5.374   2.604 -0.4067 -0.5230  2.9156
 8636TIP3   OH247322   1.280   6.627   0.461  0.1816 -0.2489 -0.3404
 8636TIP3    H147323   1.235   6.625   0.376 -0.6387 -1.9248  0.0951
 8636TIP3    H247324   1.371   6.647   0.439 -0.5263  2.2754 -1.3234
 8637TIP3   OH247325   1.520   4.897  15.698  0.3961  0.1268 -0.1368
 8637TIP3    H147326   1.588   4.836  15.726  0.1379 -0.0866  0.0342
 8637TIP3    H247327   1.454   4.842  15.657  0.3458  0.3379 -0.3362
 8638TIP3   OH247328   4.525   6.454   1.926 -0.5513 -0.3956 -0.1067
 8638TIP3    H147329   4.602   6.433   1.979 -1.5573 -0.3277  1.4266
 8638TIP3    H247330   4.456   6.398   1.961 -1.8748  1.4591  0.3512
 8639TIP3   OH247331   5.956   5.027   4.061 -0.8365  0.1846 -0.0807
 8639TIP3    H147332   6.008   5.080   4.122 -0.5597  0.0683 -0.2158
 8639TIP3    H247333   5.952   5.080   3.982 -2.3850  0.9820  0.4833
 8640TIP3   OH247334   2.646   2.789   4.999 -0.4029  0.5800  0.1690
 8640TIP3    H147335   2.589   2.851   4.953  0.7172  1.7961  0.3339
 8640TIP3    H247336   2.694   2.744   4.929 -2.9382 -1.9758 -0.0977
 8641TIP3   OH247337   1.519   0.705  11.158 -0.1165  0.3771 -0.7493
 8641TIP3    H147338   1.461   0.701  11.234  1.5541  0.3681  0.5818
 8641TIP3    H247339   1.519   0.616  11.123 -2.2499  0.7575 -1.8824
 8642TIP3   OH247340   0.651   6.334  15.328 -0.3762  0.2962 -0.2160
 8642TIP3    H147341   0.688   6.419  15.305  1.3253  0.0374  1.3123
 8642TIP3    H247342   0.561   6.354  15.356  0.0501  1.6367  0.2932
 8643TIP3   OH247343   4.789   6.426  15.012  0.0552  0.1621 -0.0928
 8643TIP3    H147344   4.825   6.487  15.076  0.0288  0.9913 -0.8565
 8643TIP3    H247345   4.749   6.481  14.945  3.1799 -0.5043 -2.7133
 8644TIP3   OH247346   2.395   4.250   5.299 -0.3975 -0.3932 -0.2046
 8644TIP3    H147347   2.318   4.301   5.273 -0.4326  0.2433  1.0572
 8644TIP3    H247348   2.469   4.295   5.259 -0.3668  1.0604  1.3491
 8645TIP3   OH247349   3.163   0.880  15.782 -0.2792 -0.3071  0.1612
 8645TIP3    H147350   3.232   0.815  15.773 -0.1226 -0.1682  0.3532
 8645TIP3    H247351   3.086   0.838  15.744 -0.7219 -1.4293  2.1746
 8646TIP3   OH247352   1.162   0.413   1.561 -0.1447 -0.2255 -0.8492
 8646TIP3    H147353   1.178   0.496   1.606  0.3749 -0.0295 -1.3785
 8646TIP3    H247354   1.249   0.382   1.539 -0.2235 -1.6686  0.6555
 8647TIP3   OH247355   4.591   5.658  13.025 -0.6102 -0.1115  0.2524
 8647TIP3    H147356   4.520   5.700  13.073  0.6023  1.8036  0.4678
 8647TIP3    H247357   4.665   5.661  13.086 -0.2512 -1.8967 -0.0357
 8648TIP3   OH247358   4.103   0.193  11.257  0.5784  0.4449 -0.2988
 8648TIP3    H147359   4.021   0.219  11.299  0.5811  0.3768 -0.2504
 8648TIP3    H247360   4.105   0.098  11.265 -0.6134  0.1440 -2.6382
 8649TIP3   OH247361   1.278   5.641  16.420 -0.3151  0.3162 -0.1745
 8649TIP3    H147362   1.316   5.692  16.348 -2.8552  0.2961 -1.6575
 8649TIP3    H247363   1.241   5.564  16.377 -2.3916  0.5702  1.0216
 8650TIP3   OH247364   2.283   3.317   1.764  0.6255  0.2169 -0.0250
 8650TIP3    H147365   2.324   3.279   1.687  1.4267  1.4236 -0.2299
 8650TIP3    H247366   2.357   3.344   1.820  0.0782  0.4824  0.5860
 8651TIP3   OH247367   4.937   1.875   2.375 -0.3394  0.0824  0.0856
 8651TIP3    H147368   4.948   1.895   2.282  1.4159 -0.4552  0.1412
 8651TIP3    H247369   4.868   1.809   2.377  0.0137 -0.3449 -0.9014
 8652TIP3   OH247370   4.485   2.420  12.380 -0.3364 -0.3131  0.1355
 8652TIP3    H147371   4.565   2.369  12.385 -0.0991 -0.2422 -1.9795
 8652TIP3    H247372   4.447   2.415  12.468  1.0603 -1.8271  0.6914
 8653TIP3   OH247373   5.153   0.815  11.618 -0.2094 -0.4989 -0.3906
 8653TIP3    H147374   5.117   0.820  11.707 -0.4924  0.2859 -0.5402
 8653TIP3    H247375   5.182   0.724  11.609 -0.8230 -0.7705  0.2525
 8654TIP3   OH247376   4.045   5.874  10.829 -0.9901 -0.4565 -0.0381
 8654TIP3    H147377   4.036   5.955  10.780 -0.1894 -1.1419 -1.4086
 8654TIP3    H247378   3.961   5.862  10.873 -0.6151  1.8630  1.4702
 8655TIP3   OH247379   0.162   1.556   1.423  0.2141 -0.7188  0.5217
 8655TIP3    H147380   0.217   1.575   1.347  0.7708  1.3303  1.3710
 8655TIP3    H247381   0.096   1.626   1.423 -1.5342 -2.2891  0.3658
 8656TIP3   OH247382   4.565   5.894   0.660  0.2734  0.0334  0.2643
 8656TIP3    H147383   4.647   5.872   0.617 -0.7778 -1.3961 -1.1581
 8656TIP3    H247384   4.544   5.982   0.630 -0.2746 -0.8066 -1.9923
 8657TIP3   OH247385   1.624   1.013  13.624 -0.1826 -0.2246  0.3873
 8657TIP3    H147386   1.595   0.993  13.535 -0.8568  0.4276  0.4471
 8657TIP3    H247387   1.549   0.991  13.679  0.5752 -1.6007  0.9338
 8658TIP3   OH247388   0.416   3.098  16.763 -0.0611 -0.3683  0.1041
 8658TIP3    H147389   0.392   3.102  16.670  0.6056  0.4924 -0.0462
 8658TIP3    H247390   0.389   3.010  16.791 -0.9749 -0.3607 -0.6999
 8659TIP3   OH247391   0.913   2.653  15.978  0.0819 -0.1379  0.3606
 8659TIP3    H147392   0.925   2.577  15.921  0.7466  0.0559  0.2237
 8659TIP3    H247393   1.002   2.679  16.001 -0.1763 -0.0966  1.3433
 8660TIP3   OH247394   6.210   4.377   2.577 -0.1567  0.1807  0.0868
 8660TIP3    H147395   6.209   4.467   2.609  3.0915  0.0833  0.8269
 8660TIP3    H247396   6.125   4.342   2.602 -2.0935  3.3260 -1.3533
 8661TIP3   OH247397   2.203   5.077   3.796  0.2893  0.1364 -0.4302
 8661TIP3    H147398   2.144   5.095   3.723 -0.6999 -0.9858  0.0516
 8661TIP3    H247399   2.182   5.144   3.861 -3.4561 -2.4814  1.4135
 8662TIP3   OH247400   2.074   2.295  17.053 -0.0405  0.0190  0.2188
 8662TIP3    H147401   2.041   2.343  16.978  0.4842 -1.1912 -0.8219
 8662TIP3    H247402   2.098   2.363  17.116 -0.8989  1.0384 -0.5148
 8663TIP3   OH247403   6.535   3.486  11.764 -0.2061 -0.2701 -0.5580
 8663TIP3    H147404   6.532   3.392  11.746  1.0828 -0.5457  0.5003
 8663TIP3    H247405   6.457   3.502  11.817  0.0144 -0.9183 -0.0188
 8664TIP3   OH247406   6.677   6.552   0.293  0.5779 -0.8655 -0.1370
 8664TIP3    H147407   6.771   6.563   0.308  0.1871  0.7756  1.4826
 8664TIP3    H247408   6.638   6.554   0.380 -1.1219  0.3170 -0.8537
 8665TIP3   OH247409   3.064   2.646  17.080 -0.0335  0.3908  0.4414
 8665TIP3    H147410   2.969   2.651  17.076  0.0547  1.7548 -0.8264
 8665TIP3    H247411   3.092   2.657  16.989  1.3456  0.2267  0.8238
 8666TIP3   OH247412   6.036   2.928   5.573  0.1897  0.2388  0.3534
 8666TIP3    H147413   6.082   2.861   5.523 -0.9977 -0.1361 -0.2908
 8666TIP3    H247414   5.999   2.882   5.648 -2.5423 -0.4167 -1.2489
 8667TIP3   OH247415   6.380   3.300  11.163  0.1338  0.2890  0.0028
 8667TIP3    H147416   6.358   3.334  11.076 -0.7612 -1.1170 -0.3524
 8667TIP3    H247417   6.470   3.269  11.155  0.2022  0.5527 -0.2863
 8668TIP3   OH247418   6.045   1.029   2.827 -0.0177  0.5726  0.0608
 8668TIP3    H147419   6.084   1.083   2.758  0.5497  0.0467 -0.0311
 8668TIP3    H247420   6.119   1.000   2.880 -0.3002 -0.2507  0.0160
 8669TIP3   OH247421   0.295   3.485   2.557 -0.1039  0.3631  0.0013
 8669TIP3    H147422   0.212   3.507   2.598 -0.3399 -2.1366  0.9945
 8669TIP3    H247423   0.271   3.442   2.475  0.1741 -0.8994  0.5690
 8670TIP3   OH247424   3.955   0.321  17.152  0.4337 -0.0292 -0.1952
 8670TIP3    H147425   3.907   0.262  17.209 -0.1905  0.5694 -0.0941
 8670TIP3    H247426   3.894   0.340  17.080  0.3125  1.1494  0.2029
 8671TIP3   OH247427   4.958   1.150   3.574  0.0357 -0.0210  0.0944
 8671TIP3    H147428   4.933   1.188   3.659  1.0640  0.1834  0.3143
 8671TIP3    H247429   5.023   1.083   3.596 -0.7908 -1.0225 -0.4122
 8672TIP3   OH247430   4.637   0.495  11.503  0.2546  0.3056 -0.1653
 8672TIP3    H147431   4.724   0.506  11.541 -0.0076 -1.6685  1.1328
 8672TIP3    H247432   4.616   0.402  11.515 -1.5048  0.4361 -1.6331
 8673TIP3   OH247433   0.044   1.110   4.239 -0.6657  0.7194 -0.2965
 8673TIP3    H147434   0.038   1.201   4.269  1.0215  0.7624  0.0559
 8673TIP3    H247435   0.103   1.114   4.163 -1.3285  0.0325 -0.8590
 8674TIP3   OH247436   4.722   5.154   6.287  0.0828  0.4811  0.5889
 8674TIP3    H147437   4.741   5.149   6.381 -0.2172  2.6091  0.8132
 8674TIP3    H247438   4.754   5.240   6.261  0.1716 -0.0837 -1.2848
 8675TIP3   OH247439   4.176   3.336   4.660 -1.2303 -0.0379 -0.0206
 8675TIP3    H147440   4.210   3.247   4.670 -1.7854 -0.1945  0.5350
 8675TIP3    H247441   4.240   3.380   4.604  0.2124 -0.1475  1.4744
 8676TIP3   OH247442   0.430   2.486  15.686  0.1634  0.3920  0.6212
 8676TIP3    H147443   0.508   2.506  15.635 -0.1228 -1.6364 -0.7405
 8676TIP3    H247444   0.407   2.569  15.728  1.7318  1.5945 -0.7438
 8677TIP3   OH247445   2.006   6.468  10.107 -0.1829  0.7128  0.5833
 8677TIP3    H147446   2.046   6.401  10.163 -2.9410 -1.7204 -0.0894
 8677TIP3    H247447   1.922   6.429  10.080 -1.6309  4.2005 -0.4747
 8678TIP3   OH247448   0.471   5.799   0.173 -0.0371 -0.1822  0.2783
 8678TIP3    H147449   0.533   5.867   0.200  1.3283 -1.1761 -0.2696
 8678TIP3    H247450   0.479   5.731   0.240 -0.2596 -0.4700  0.0179
 8679TIP3   OH247451   4.863   6.141  16.849 -0.2406 -0.5904  0.0927
 8679TIP3    H147452   4.777   6.128  16.889  0.8456 -0.4504  2.6640
 8679TIP3    H247453   4.879   6.235  16.857  0.1679 -0.6117 -0.4064
 8680TIP3   OH247454   4.754   3.833   0.765 -0.2444 -0.0651 -0.2828
 8680TIP3    H147455   4.828   3.782   0.731 -1.0337 -0.0685 -2.1339
 8680TIP3    H247456   4.770   3.922   0.734 -1.3465 -0.2057 -1.3153
 8681TIP3   OH247457   3.675   6.291  15.908  0.5451  0.2693 -0.6804
 8681TIP3    H147458   3.650   6.340  15.829  1.7420  2.0611 -0.0143
 8681TIP3    H247459   3.758   6.249  15.886 -0.4357 -1.4845 -1.2181
 8682TIP3   OH247460   6.092   4.434  13.590 -0.5533  0.4837  0.0210
 8682TIP3    H147461   6.011   4.485  13.590 -0.8322  0.0905 -1.5907
 8682TIP3    H247462   6.147   4.476  13.525 -0.5446 -0.8465 -0.8844
 8683TIP3   OH247463   4.031   2.015  11.479  0.1195 -0.0105  0.3529
 8683TIP3    H147464   3.968   1.949  11.452  0.8114 -0.1988 -0.8948
 8683TIP3    H247465   3.985   2.098  11.471  0.2227 -0.0760 -1.2941
 8684TIP3   OH247466   1.269   5.671  11.510 -0.5690  0.2562 -0.0561
 8684TIP3    H147467   1.279   5.648  11.417 -2.7136 -0.8589 -0.0908
 8684TIP3    H247468   1.274   5.767  11.512 -1.5728  0.3743 -1.5242
 8685TIP3   OH247469   2.169   5.143   1.485  0.4548  0.4676  0.1498
 8685TIP3    H147470   2.149   5.065   1.433  0.4291  0.1299  0.6582
 8685TIP3    H247471   2.087   5.164   1.530 -0.5247  2.6932 -2.3851
 8686TIP3   OH247472   3.070   0.024   5.482 -1.0155 -0.3050 -0.0698
 8686TIP3    H147473   3.089  -0.057   5.436 -0.9340 -0.8274  0.8661
 8686TIP3    H247474   2.975   0.034   5.475 -0.9470 -0.0657 -0.8363
 8687TIP3   OH247475   3.168   5.074  12.270  0.1436 -0.6216  0.0115
 8687TIP3    H147476   3.125   5.151  12.232  0.4604 -0.3700  0.1624
 8687TIP3    H247477   3.232   5.110  12.331  0.0773 -1.0135  0.3120
 8688TIP3   OH247478   0.791   5.544   2.470  0.5820 -0.2892 -0.2564
 8688TIP3    H147479   0.793   5.456   2.509  2.4328  0.4289  1.4350
 8688TIP3    H247480   0.822   5.532   2.380 -0.3843 -1.5042 -0.4554
 8689TIP3   OH247481   0.317   6.038  15.892 -0.5425  0.1942  0.0854
 8689TIP3    H147482   0.253   6.098  15.855 -1.3097 -0.1311  0.8654
 8689TIP3    H247483   0.295   5.953  15.854 -0.7342  0.0364  0.5449
 8690TIP3   OH247484   6.035   2.981  12.913  0.2470 -0.4131  0.1720
 8690TIP3    H147485   6.025   3.050  12.979 -2.8892 -1.8493  1.3996
 8690TIP3    H247486   5.948   2.973  12.874  0.4391 -3.6961  0.1391
 8691TIP3   OH247487   4.346   6.017   4.029  0.1265 -0.3845 -0.7510
 8691TIP3    H147488   4.264   5.971   4.015 -0.0521  0.1436 -1.4545
 8691TIP3    H247489   4.410   5.968   3.977  0.2855 -0.8446 -0.1391
 8692TIP3   OH247490   3.428   0.435   4.555 -0.1559  0.0095  0.0223
 8692TIP3    H147491   3.506   0.402   4.600  0.5715  1.1054 -0.4068
 8692TIP3    H247492   3.411   0.370   4.486  0.4208 -0.2079  0.0801
 8693TIP3   OH247493   4.106   5.033  15.299  0.4690 -0.3881 -0.2750
 8693TIP3    H147494   4.172   4.990  15.244  0.9707  2.0729 -1.7217
 8693TIP3    H247495   4.070   4.962  15.353  2.6979 -2.2035 -1.0277
 8694TIP3   OH247496   4.467   0.967  13.564 -0.1437  0.1370 -0.1112
 8694TIP3    H147497   4.490   0.930  13.649 -0.3733 -0.0840 -0.1442
 8694TIP3    H247498   4.437   0.892  13.513 -0.8436  0.4034 -0.1021
 8695TIP3   OH247499   0.671   5.057  16.569 -0.3255 -0.0929 -0.1618
 8695TIP3    H147500   0.733   5.060  16.643  0.2798  0.7320 -0.6848
 8695TIP3    H247501   0.716   5.103  16.498 -0.9141 -0.8542 -1.0414
 8696TIP3   OH247502   0.470   5.307  13.706 -0.2353  0.3766  0.6711
 8696TIP3    H147503   0.450   5.255  13.628  3.5461 -0.6282  0.1493
 8696TIP3    H247504   0.425   5.390  13.693 -3.5788 -1.3686 -0.1885
 8697TIP3   OH247505   4.057   0.963   3.239  0.3817 -0.7008  0.0638
 8697TIP3    H147506   4.006   0.916   3.305 -1.6988  2.0657  0.5984
 8697TIP3    H247507   4.144   0.972   3.279 -0.0777 -1.3581  1.2748
 8698TIP3   OH247508   2.571   4.369   1.838  0.9171  0.4900 -0.0806
 8698TIP3    H147509   2.615   4.323   1.766 -1.7619  0.4601 -1.8761
 8698TIP3    H247510   2.615   4.453   1.843  2.8135 -0.4486  0.0135
 8699TIP3   OH247511   1.164   2.275  12.867  0.3705 -0.0449  0.0289
 8699TIP3    H147512   1.139   2.232  12.785  0.5939  0.5477 -0.3570
 8699TIP3    H247513   1.250   2.238  12.888  0.2436 -0.3124  0.0764
 8700TIP3   OH247514   1.712   6.258   4.714 -0.2183  0.4831  0.4884
 8700TIP3    H147515   1.692   6.338   4.761  1.4222  2.2761 -1.6420
 8700TIP3    H247516   1.807   6.247   4.725 -0.3435 -0.9277  0.3577
 8701TIP3   OH247517   4.928   5.608   2.745 -0.2004 -0.0833 -0.6195
 8701TIP3    H147518   4.858   5.570   2.797  0.2470  0.4022  0.3622
 8701TIP3    H247519   4.955   5.686   2.793 -0.2241  0.7686 -1.9268
 8702TIP3   OH247520   3.875   1.352  14.143 -0.3015 -0.4750 -0.3359
 8702TIP3    H147521   3.822   1.305  14.078 -0.8567 -0.7556  0.3086
 8702TIP3    H247522   3.833   1.332  14.227  0.1790  0.1941  0.0711
 8703TIP3   OH247523   3.279   2.353  14.946  0.0481  0.3946 -0.0789
 8703TIP3    H147524   3.314   2.405  15.019  0.9144 -0.8209  0.3921
 8703TIP3    H247525   3.308   2.264  14.963  1.3750  0.2737 -2.5870
 8704TIP3   OH247526   6.636   6.267   1.796  0.1307  0.4208 -0.7296
 8704TIP3    H147527   6.615   6.327   1.723  0.5760  0.8417 -0.5176
 8704TIP3    H247528   6.634   6.323   1.873 -1.1070 -0.1758 -0.3042
 8705TIP3   OH247529   1.761   1.640   6.571  0.1390 -0.2360 -0.3466
 8705TIP3    H147530   1.725   1.625   6.485 -3.3586 -1.8069  1.2163
 8705TIP3    H247531   1.847   1.598   6.569 -0.4330 -1.4079 -2.6203
 8706TIP3   OH247532   4.057   2.683  12.186  0.3344  0.0310  0.3218
 8706TIP3    H147533   4.020   2.771  12.194  2.2251  1.2723 -2.7703
 8706TIP3    H247534   4.136   2.685  12.240 -1.4336 -1.1187  3.1982
 8707TIP3   OH247535   5.477   5.826   5.590 -0.5001  0.1493 -0.4170
 8707TIP3    H147536   5.556   5.879   5.583  0.0379 -0.5608  0.1739
 8707TIP3    H247537   5.450   5.832   5.681  0.0735 -1.2861 -0.1300
 8708TIP3   OH247538   5.358   6.044  13.365 -0.7222  1.1330  0.0628
 8708TIP3    H147539   5.287   5.979  13.374  0.7102 -0.4708  0.2682
 8708TIP3    H247540   5.418   6.024  13.437  0.2898  2.0267 -0.4994
 8709TIP3   OH247541   1.035   3.834  12.443  0.4057  0.6136 -0.1072
 8709TIP3    H147542   0.985   3.916  12.445 -0.2407  0.4333  4.8661
 8709TIP3    H247543   0.988   3.776  12.503  1.4709 -3.1298 -2.5361
 8710TIP3   OH247544   1.847   3.582  14.522 -0.3946 -0.2679 -0.3489
 8710TIP3    H147545   1.919   3.549  14.470 -0.9404  0.3844 -1.5530
 8710TIP3    H247546   1.886   3.649  14.578  0.1726 -0.8907  0.0104
 8711TIP3   OH247547   5.222   2.892  15.693  0.1505  0.5317  0.2025
 8711TIP3    H147548   5.128   2.897  15.708  0.2278  1.3430  0.4613
 8711TIP3    H247549   5.231   2.878  15.599 -0.2562 -1.2980  0.3914
 8712TIP3   OH247550   1.898   6.707   5.169  0.0027  0.4312 -0.3538
 8712TIP3    H147551   1.987   6.736   5.192  1.1787 -1.6586 -1.8846
 8712TIP3    H247552   1.894   6.616   5.199 -0.4328 -0.5312 -3.1009
 8713TIP3   OH247553   4.726   2.930   1.850 -0.1251  0.0057 -0.3198
 8713TIP3    H147554   4.739   3.004   1.910  1.0192  0.3807 -1.0150
 8713TIP3    H247555   4.750   2.964   1.764  3.0425 -1.8612 -0.3277
 8714TIP3   OH247556   4.797   2.942   2.535  0.3378 -0.4963 -0.0304
 8714TIP3    H147557   4.846   2.863   2.559 -0.7109 -0.8639  1.0707
 8714TIP3    H247558   4.858   2.995   2.486  2.2955 -0.3394  2.3697
 8715TIP3   OH247559   0.245   5.785   1.692  0.2085  0.5919 -0.1404
 8715TIP3    H147560   0.274   5.767   1.782 -0.7730  1.1750  0.3066
 8715TIP3    H247561   0.253   5.701   1.647  0.3291  0.1999  0.5943
 8716TIP3   OH247562   1.769   3.430   5.545  0.3160 -0.2472 -0.4892
 8716TIP3    H147563   1.837   3.462   5.605 -1.2226 -0.1081  1.2834
 8716TIP3    H247564   1.809   3.357   5.499  1.4706 -0.5755  0.9825
 8717TIP3   OH247565   0.452   6.202   3.709 -0.2658  0.0956 -0.1632
 8717TIP3    H147566   0.451   6.297   3.697 -1.6185  0.1648  0.3151
 8717TIP3    H247567   0.523   6.171   3.652  0.0030  1.3567 -0.5410
 8718TIP3   OH247568   2.393   3.061  12.434  0.5640  0.1737 -0.4358
 8718TIP3    H147569   2.449   3.009  12.376  0.9067 -0.5051  0.4882
 8718TIP3    H247570   2.314   3.009  12.446  0.3653  0.4497 -0.5370
 8719TIP3   OH247571   3.029   4.475  15.930  0.8139  0.2134  0.2809
 8719TIP3    H147572   3.089   4.409  15.966 -0.6249 -1.2101  0.1887
 8719TIP3    H247573   2.942   4.441  15.950  0.0156  1.3482 -1.1249
 8720TIP3   OH247574   3.770   2.785   2.642  0.2413 -0.1376  0.1390
 8720TIP3    H147575   3.683   2.822   2.628  0.2455 -0.4421 -0.7706
 8720TIP3    H247576   3.755   2.691   2.651  0.5273 -0.2523 -0.5514
 8721TIP3   OH247577   0.556   1.661   5.940  0.1761 -0.0890 -0.1944
 8721TIP3    H147578   0.480   1.610   5.910 -0.5599  0.7911  0.1280
 8721TIP3    H247579   0.525   1.752   5.942  1.9273  0.6655 -2.4097
 8722TIP3   OH247580   0.652   3.217  15.155 -0.5038  0.0211  0.4041
 8722TIP3    H147581   0.743   3.186  15.158 -0.8059 -1.3399 -2.0968
 8722TIP3    H247582   0.659   3.312  15.155  0.9743 -0.0551 -0.2900
 8723TIP3   OH247583   3.653   4.941   4.748 -0.4240 -0.6368  0.6028
 8723TIP3    H147584   3.644   4.945   4.652  0.3067  0.8885  0.5733
 8723TIP3    H247585   3.728   4.997   4.767 -2.6085  1.9301  2.3311
 8724TIP3   OH247586   1.064   3.555  16.846  0.5026 -0.6530 -0.2811
 8724TIP3    H147587   1.087   3.623  16.910  0.8236 -1.3233  0.3238
 8724TIP3    H247588   1.044   3.478  16.899 -0.9517 -0.7302 -0.9026
 8725TIP3   OH247589   2.606   3.314  14.705 -0.2920  0.3903  0.3308
 8725TIP3    H147590   2.665   3.331  14.631  0.7510  0.0471  1.0661
 8725TIP3    H247591   2.664   3.300  14.779 -1.3236  0.5151  1.1821
 8726TIP3   OH247592   1.163   0.054  11.004 -0.2801  0.7348  0.6373
 8726TIP3    H147593   1.184   0.099  10.922 -0.6836 -0.6723 -0.2596
 8726TIP3    H247594   1.137   0.125  11.063  0.9699  1.8797 -0.1138
 8727TIP3   OH247595   1.031   1.689  11.501  0.3708 -0.1056  0.7760
 8727TIP3    H147596   0.968   1.618  11.490 -0.2652  0.7599 -1.7928
 8727TIP3    H247597   0.984   1.768  11.477  1.6235  0.9675  1.6679
 8728TIP3   OH247598   6.716   2.260   6.421 -0.2468 -0.1828 -0.0411
 8728TIP3    H147599   6.733   2.169   6.399 -1.3141 -0.1994 -0.8278
 8728TIP3    H247600   6.799   2.305   6.403 -0.1338 -0.7534 -1.0099
 8729TIP3   OH247601   3.117   6.456   4.558  0.2419 -0.4148 -0.4701
 8729TIP3    H147602   3.024   6.447   4.575 -0.1867  0.5760 -2.0750
 8729TIP3    H247603   3.146   6.368   4.533 -0.4768 -0.5280 -0.9171
 8730TIP3   OH247604   5.348   3.540   3.993  0.3917 -0.0774  0.1118
 8730TIP3    H147605   5.373   3.473   4.057  0.9955 -0.9077 -0.9447
 8730TIP3    H247606   5.358   3.623   4.040  1.7947 -0.5964  0.8127
 8731TIP3   OH247607   3.459   4.912  14.872  0.1917  0.3140  0.6099
 8731TIP3    H147608   3.498   4.965  14.802  1.1926  0.1355  1.0216
 8731TIP3    H247609   3.373   4.952  14.886  0.7598  1.5928  0.6262
 8732TIP3   OH247610   1.566   0.170  16.365 -0.0960 -0.3693 -0.3971
 8732TIP3    H147611   1.478   0.170  16.404  0.5099 -0.7093  1.0541
 8732TIP3    H247612   1.584   0.078  16.347  0.4494 -0.4652  0.5427
 8733TIP3   OH247613   3.131   2.061  16.089  0.1299 -0.3404 -0.2710
 8733TIP3    H147614   3.128   2.154  16.068 -0.0865 -0.9850 -3.5412
 8733TIP3    H247615   3.160   2.019  16.008  3.0016 -2.9198  1.8830
 8734TIP3   OH247616   0.793   5.714  12.255 -0.0515  0.0085  0.0533
 8734TIP3    H147617   0.735   5.752  12.321  1.0346 -1.7695  2.1884
 8734TIP3    H247618   0.864   5.777  12.246 -1.1994  1.1886 -0.9564
 8735TIP3   OH247619   4.473   2.447   1.463  0.5993 -0.2979 -0.4357
 8735TIP3    H147620   4.437   2.428   1.376 -3.2083 -2.0740  1.2839
 8735TIP3    H247621   4.545   2.385   1.473 -0.2062 -1.4927 -1.6313
 8736TIP3   OH247622   0.507   2.901  12.660  0.1853 -0.3338  0.0131
 8736TIP3    H147623   0.538   2.862  12.578  2.8148  1.0164  0.2715
 8736TIP3    H247624   0.569   2.870  12.726  0.0494  1.2178  0.9051
 8737TIP3   OH247625   6.136   0.178   1.569 -1.0531  0.1639 -0.2563
 8737TIP3    H147626   6.100   0.103   1.617 -1.9817 -1.3089 -3.0444
 8737TIP3    H247627   6.081   0.252   1.596 -1.8753 -0.6986  0.5395
 8738TIP3   OH247628   5.050   1.540   4.276  0.1926 -0.1386 -0.0449
 8738TIP3    H147629   5.057   1.625   4.321  0.7073 -0.0429 -0.2975
 8738TIP3    H247630   5.077   1.476   4.341 -1.4045 -0.2376  0.5494
 8739TIP3   OH247631   5.218   3.778   4.820  0.1953  0.0580 -0.6787
 8739TIP3    H147632   5.303   3.784   4.776  0.5366  0.1971 -0.0151
 8739TIP3    H247633   5.193   3.686   4.810  0.3443  0.0500 -1.0140
 8740TIP3   OH247634   5.128   4.628  11.799  0.4625  0.3368  0.0547
 8740TIP3    H147635   5.158   4.601  11.712  0.4772 -0.7438  0.3753
 8740TIP3    H247636   5.033   4.618  11.796  0.5958 -1.7977  0.7818
 8741TIP3   OH247637   2.867   2.784   4.824  0.1097  0.1623  0.2268
 8741TIP3    H147638   2.848   2.829   4.741 -2.1353  0.0798  0.6493
 8741TIP3    H247639   2.918   2.848   4.874  1.0689  0.4033 -1.0030
 8742TIP3   OH247640   1.175   0.013   5.584 -0.6389  0.3228  0.1757
 8742TIP3    H147641   1.126   0.068   5.523 -0.1014 -1.6740 -2.2114
 8742TIP3    H247642   1.130  -0.071   5.582  0.9252 -0.5573  0.4995
 8743TIP3   OH247643   4.137   5.737   1.341 -0.3716 -0.0317  0.2440
 8743TIP3    H147644   4.219   5.740   1.291  0.3786  0.5762  1.4723
 8743TIP3    H247645   4.073   5.780   1.285  0.3288  0.1684 -0.4126
 8744TIP3   OH247646   0.167   4.321   1.389 -0.0581  0.1910  0.5084
 8744TIP3    H147647   0.160   4.406   1.431 -3.1672  0.3010  0.0174
 8744TIP3    H247648   0.228   4.334   1.317 -1.4425  2.4042 -0.3447
 8745TIP3   OH247649   4.853   2.621  16.899  0.1534  0.2926 -0.2692
 8745TIP3    H147650   4.850   2.664  16.814 -0.5405  0.0592 -0.3639
 8745TIP3    H247651   4.793   2.671  16.954 -0.3165 -0.2740 -0.2562
 8746TIP3   OH247652   4.936   2.461   4.207  0.3677  0.1311  0.2240
 8746TIP3    H147653   4.887   2.529   4.161 -0.4451 -0.5771  0.0209
 8746TIP3    H247654   5.011   2.443   4.149 -0.1141 -0.0579 -0.3511
 8747TIP3   OH247655   4.894   6.587  14.076 -0.5092 -0.3458  0.6016
 8747TIP3    H147656   4.859   6.593  14.164 -0.3418  0.9337  0.5959
 8747TIP3    H247657   4.964   6.652  14.073 -1.3239  0.5112 -0.8477
 8748TIP3   OH247658   4.320   3.742  12.314  0.0728 -0.3653  0.3666
 8748TIP3    H147659   4.311   3.692  12.233 -2.6010  0.5352 -0.0003
 8748TIP3    H247660   4.353   3.828  12.285  0.8357 -0.6146  0.4816
 8749TIP3   OH247661   4.489   5.702   3.572  0.7513 -0.0264 -0.5567
 8749TIP3    H147662   4.470   5.610   3.554  0.5232 -0.1090  0.0757
 8749TIP3    H247663   4.406   5.738   3.603  0.5852  0.6440 -1.7574
 8750TIP3   OH247664   2.812   3.557  16.860  0.4504  0.2405 -1.0647
 8750TIP3    H147665   2.844   3.602  16.938  0.0577  0.4004 -0.9944
 8750TIP3    H247666   2.720   3.583  16.853  0.3607 -0.1307 -1.3232
 8751TIP3   OH247667   0.611   5.631   5.724 -0.3902  0.0027 -0.0354
 8751TIP3    H147668   0.678   5.645   5.658 -0.6988  0.5395 -0.2423
 8751TIP3    H247669   0.607   5.536   5.735  0.0040 -0.0611 -0.4307
 8752TIP3   OH247670   5.003   2.452   0.769  0.2835  0.1105  0.0438
 8752TIP3    H147671   5.036   2.480   0.854 -0.3524  2.1726 -0.3336
 8752TIP3    H247672   5.079   2.414   0.725  0.4221 -1.8538  1.8065
 8753TIP3   OH247673   1.190   5.367  14.108 -0.0195 -0.3238  0.3710
 8753TIP3    H147674   1.129   5.294  14.124  0.4600 -0.9418 -0.5408
 8753TIP3    H247675   1.267   5.345  14.160  0.2897 -0.6924 -0.2347
 8754TIP3   OH247676   6.624   4.771  12.589  0.4575  0.1710 -0.4266
 8754TIP3    H147677   6.687   4.844  12.586  0.1479  0.4139 -1.1511
 8754TIP3    H247678   6.675   4.697  12.622  1.6053 -0.0962 -2.6512
 8755TIP3   OH247679   2.601   0.798  16.956  0.2875  0.0671  0.2591
 8755TIP3    H147680   2.673   0.807  17.019  0.3039 -1.2836  0.4680
 8755TIP3    H247681   2.527   0.841  16.999  0.7773  0.8407  0.3546
 8756TIP3   OH247682   6.353   5.999   3.877  0.4046  0.6510 -0.1663
 8756TIP3    H147683   6.329   6.051   3.953 -2.6282  1.1850 -1.3254
 8756TIP3    H247684   6.367   6.063   3.807 -2.5533  0.1209 -1.4044
 8757TIP3   OH247685   1.123   2.735   5.924  0.5917  0.0001  0.4119
 8757TIP3    H147686   1.197   2.724   5.864 -0.1767  0.4192 -0.6380
 8757TIP3    H247687   1.161   2.776   6.002  1.3977  0.6176 -0.2909
 8758TIP3   OH247688   3.829   4.159  14.395 -0.3955  0.0285 -0.1646
 8758TIP3    H147689   3.781   4.240  14.380  0.9101  0.9538  0.4143
 8758TIP3    H247690   3.809   4.136  14.486 -0.4605 -0.0879 -0.2079
 8759TIP3   OH247691   1.128   5.119   3.261 -0.1427 -0.0648 -0.2850
 8759TIP3    H147692   1.070   5.048   3.290 -0.6209 -0.0736 -1.2460
 8759TIP3    H247693   1.139   5.105   3.167  1.5821 -0.1648 -0.0918
 8760TIP3   OH247694   3.999   6.106   1.094  0.1484 -0.2359 -0.2826
 8760TIP3    H147695   3.973   6.014   1.097 -0.3907 -0.1396 -1.3954
 8760TIP3    H247696   3.980   6.140   1.181 -2.1604 -0.5235 -0.6213
 8761TIP3   OH247697   2.103   0.621  14.681  0.1827  0.8897  0.3815
 8761TIP3    H147698   2.161   0.624  14.604 -0.8054  0.0055 -0.4267
 8761TIP3    H247699   2.162   0.604  14.754  0.9286 -0.5494 -0.4958
 8762TIP3   OH247700   3.594   0.968  15.663 -0.1727  0.1344 -0.0325
 8762TIP3    H147701   3.606   0.909  15.737  0.2942  0.9863  0.5851
 8762TIP3    H247702   3.683   0.995  15.640 -0.3271  0.0403 -0.7836
 8763TIP3   OH247703   5.984   4.832  14.984  0.3226  0.1976 -0.4853
 8763TIP3    H147704   6.055   4.873  15.033  0.8911 -0.5227 -0.6916
 8763TIP3    H247705   5.918   4.811  15.051  1.6771 -2.0528  0.2499
 8764TIP3   OH247706   2.561   0.912   1.590  0.3321  0.2652  1.0113
 8764TIP3    H147707   2.582   0.855   1.516 -3.2417  0.7643 -0.6410
 8764TIP3    H247708   2.583   0.861   1.667 -0.9732 -2.6655 -0.4014
 8765TIP3   OH247709   1.414   3.618   3.947 -0.1953  0.0700  0.4444
 8765TIP3    H147710   1.395   3.586   3.859  1.1468  1.4381 -0.3868
 8765TIP3    H247711   1.336   3.667   3.972 -0.5341 -0.2214 -0.0337
 8766TIP3   OH247712   5.977   2.380  16.006 -0.0639 -0.0071  0.5825
 8766TIP3    H147713   5.927   2.453  15.968 -0.1826  0.0058  0.7623
 8766TIP3    H247714   5.923   2.350  16.079 -0.6103 -1.0535 -0.2138
 8767TIP3   OH247715   0.696   0.083  13.865  0.0341 -0.0245 -0.4595
 8767TIP3    H147716   0.663  -0.007  13.871  0.6983 -0.1532  2.0667
 8767TIP3    H247717   0.617   0.137  13.863 -0.4099 -0.5306  1.4418
 8768TIP3   OH247718   1.707   5.376  13.702 -0.0261 -0.3367 -0.6575
 8768TIP3    H147719   1.699   5.285  13.730 -0.4572  0.0058  0.3814
 8768TIP3    H247720   1.786   5.378  13.649  1.2666 -0.8791  1.1740
 8769TIP3   OH247721   4.847   3.342   1.251  0.2015  0.4441 -0.4432
 8769TIP3    H147722   4.848   3.388   1.167 -0.1796 -1.2915 -1.4444
 8769TIP3    H247723   4.884   3.405   1.313 -1.5572  2.5825 -1.4513
 8770TIP3   OH247724   5.819   0.584  11.978 -0.5181 -0.3761 -0.6226
 8770TIP3    H147725   5.826   0.584  11.883 -0.0382 -0.2378 -0.5901
 8770TIP3    H247726   5.749   0.646  11.997  1.4306  2.0182 -0.7611
 8771TIP3   OH247727   3.622   5.313   5.743 -0.9524  0.8669  0.0663
 8771TIP3    H147728   3.563   5.239   5.753 -0.6421  0.6878  0.5999
 8771TIP3    H247729   3.576   5.373   5.683 -3.2307  2.2859  2.9609
 8772TIP3   OH247730   3.679   5.272  16.974 -0.6140 -0.3534  0.3047
 8772TIP3    H147731   3.729   5.322  17.037 -1.2049  1.8052 -0.8231
 8772TIP3    H247732   3.698   5.180  16.994 -0.3389  0.2514  3.1763
 8773TIP3   OH247733   0.819   0.483   5.450 -0.4519 -0.3327 -0.3295
 8773TIP3    H147734   0.878   0.479   5.375 -0.1677  0.5827 -0.1561
 8773TIP3    H247735   0.764   0.405   5.440  1.3017 -1.6496 -0.0315
 8774TIP3   OH247736   5.571   0.785  11.554  0.2655  0.2307  0.3765
 8774TIP3    H147737   5.501   0.850  11.550  0.9839  0.9655 -2.1022
 8774TIP3    H247738   5.530   0.702  11.529  0.5294  1.0354 -3.3187
 8775TIP3   OH247739   4.614   4.151   0.872 -0.4221 -0.1084  0.0221
 8775TIP3    H147740   4.552   4.110   0.811 -1.3402  0.6975  0.3901
 8775TIP3    H247741   4.683   4.186   0.815 -0.1495 -1.2309 -0.3729
 8776TIP3   OH247742   2.641   1.227   2.990  0.1234  0.2104  0.1592
 8776TIP3    H147743   2.726   1.244   3.030  0.5839 -2.9379  0.7828
 8776TIP3    H247744   2.652   1.254   2.899  1.3930  0.9001  0.4886
 8777TIP3   OH247745   0.126   3.500  13.434 -0.0533 -0.2364 -0.1381
 8777TIP3    H147746   0.116   3.451  13.516  0.6122  0.3420  0.2934
 8777TIP3    H247747   0.168   3.438  13.375  3.4028  0.5922  1.2331
 8778TIP3   OH247748   6.536   1.961   5.487 -0.1661 -0.0388  0.1470
 8778TIP3    H147749   6.494   1.902   5.550 -0.3582 -1.0648 -0.8948
 8778TIP3    H247750   6.606   1.909   5.449 -0.7476  0.1627 -1.2596
 8779TIP3   OH247751   5.676   2.780  14.250 -0.2983 -0.7826 -0.1943
 8779TIP3    H147752   5.695   2.701  14.199  1.1298 -0.9036  0.4887
 8779TIP3    H247753   5.698   2.852  14.191  2.1909 -0.9156  0.4606
 8780TIP3   OH247754   5.332   2.487   5.499  0.0398 -0.0540 -0.1981
 8780TIP3    H147755   5.248   2.498   5.455  1.3202  1.9071 -2.4363
 8780TIP3    H247756   5.335   2.559   5.563 -0.0751 -0.2415  0.0163
 8781TIP3   OH247757   5.076   3.782   2.695 -0.3212  0.2114  0.2071
 8781TIP3    H147758   4.994   3.738   2.675  0.4540 -1.1754 -0.1038
 8781TIP3    H247759   5.105   3.743   2.778  0.9268 -0.7648 -0.6334
 8782TIP3   OH247760   1.407   1.294   3.330 -0.1878  0.3217  0.1145
 8782TIP3    H147761   1.455   1.261   3.406 -0.8499 -0.7827  0.0715
 8782TIP3    H247762   1.465   1.275   3.256 -0.1547  0.1114  0.1928
 8783TIP3   OH247763   0.125   2.801   3.971 -0.4309  0.0861 -0.2848
 8783TIP3    H147764   0.162   2.728   4.020 -0.7953  0.6426  0.8643
 8783TIP3    H247765   0.054   2.762   3.920 -0.3994 -0.4270  0.0496
 8784TIP3   OH247766   6.108   6.613  16.249  0.9127 -0.0220 -0.6803
 8784TIP3    H147767   6.043   6.662  16.298 -1.4493 -2.1000 -1.5271
 8784TIP3    H247768   6.183   6.607  16.308  0.3405  2.2898  0.4042
 8785TIP3   OH247769   4.464   2.507  14.876  0.0312 -0.1371  0.2146
 8785TIP3    H147770   4.468   2.515  14.971  0.2838  0.4700  0.1609
 8785TIP3    H247771   4.389   2.450  14.859  0.8242 -1.4063  0.8208
 8786TIP3   OH247772   6.538   2.779  12.106 -0.2655  0.5169  0.2884
 8786TIP3    H147773   6.488   2.811  12.031 -0.9924  0.4826  0.7546
 8786TIP3    H247774   6.506   2.690  12.121 -2.4254  1.5691  2.5695
 8787TIP3   OH247775   1.480   2.787  15.037 -0.1156  0.1825 -0.0806
 8787TIP3    H147776   1.572   2.790  15.064 -0.0203 -0.7985 -0.2764
 8787TIP3    H247777   1.481   2.737  14.956 -0.8945 -0.3846  0.2520
 8788TIP3   OH247778   5.604   3.080  11.496  0.1628  0.4208 -0.5435
 8788TIP3    H147779   5.633   3.086  11.587  1.8553 -0.0054 -1.0249
 8788TIP3    H247780   5.510   3.060  11.502  0.5452 -1.0453  1.1136
 8789TIP3   OH247781   2.583   3.444   1.081  0.2941  0.5182 -0.0627
 8789TIP3    H147782   2.545   3.516   1.031  0.8880  0.4738 -0.5891
 8789TIP3    H247783   2.522   3.431   1.154  0.0059  1.3303 -0.1436
 8790TIP3   OH247784   5.696   2.018   2.566 -0.5620 -0.2393  0.0270
 8790TIP3    H147785   5.715   1.963   2.643  1.4132 -0.8079 -0.8088
 8790TIP3    H247786   5.670   2.102   2.603  1.0064 -0.2844  1.3582
 8791TIP3   OH247787   4.473   3.563   4.486 -0.5129  0.0752  0.0813
 8791TIP3    H147788   4.414   3.638   4.475 -0.9747 -0.3691 -0.5142
 8791TIP3    H247789   4.417   3.486   4.477 -0.2574 -0.3650  1.8383
 8792TIP3   OH247790   0.400   5.655   1.933 -0.0058 -0.1655  0.3627
 8792TIP3    H147791   0.459   5.658   2.008 -1.4533 -0.0828  1.5588
 8792TIP3    H247792   0.333   5.591   1.959 -1.9560  1.7256  0.2706
 8793TIP3   OH247793   6.167   2.296   2.854 -0.1939 -0.3915 -0.1141
 8793TIP3    H147794   6.193   2.211   2.816 -0.0842 -0.9391  1.1554
 8793TIP3    H247795   6.248   2.347   2.854 -0.5557  0.2808 -2.2378
 8794TIP3   OH247796   5.802   1.000   1.516 -0.0649  0.5569 -0.8909
 8794TIP3    H147797   5.875   1.047   1.555 -0.0818  1.1921 -1.6091
 8794TIP3    H247798   5.728   1.060   1.523 -0.6656 -0.2703  0.2906
 8795TIP3   OH247799   3.846   6.361   3.160  0.7884 -0.2294 -0.4458
 8795TIP3    H147800   3.877   6.273   3.181  1.0453 -0.1665 -0.5550
 8795TIP3    H247801   3.751   6.352   3.152  0.6697 -0.2464  0.8105
 8796TIP3   OH247802   2.137   1.587   1.540 -0.3985 -0.1610  0.1200
 8796TIP3    H147803   2.223   1.620   1.564  0.4873 -1.3781 -1.1822
 8796TIP3    H247804   2.120   1.516   1.602 -1.0200  0.8379  1.1198
 8797TIP3   OH247805   4.079   6.782  16.693 -0.2077 -0.2444 -0.3751
 8797TIP3    H147806   4.033   6.839  16.756  1.7903 -0.3481  1.2590
 8797TIP3    H247807   4.163   6.825  16.679  0.5578 -1.7885 -0.6497
 8798TIP3   OH247808   0.127   1.508   4.390 -0.2461  0.0057 -0.1612
 8798TIP3    H147809   0.067   1.441   4.423 -0.5852  0.0421 -0.7046
 8798TIP3    H247810   0.070   1.578   4.359  0.1160  0.7543  0.8192
 8799TIP3   OH247811   4.824   0.338  14.950  0.3942  0.0881 -0.4691
 8799TIP3    H147812   4.885   0.264  14.949 -0.1432 -0.3637 -0.4229
 8799TIP3    H247813   4.757   0.312  15.013  1.3709  1.5760  1.2840
 8800TIP3   OH247814   2.647   5.899   1.672  0.0826  0.0700  0.1118
 8800TIP3    H147815   2.613   5.892   1.761  0.6478  0.5788  0.3718
 8800TIP3    H247816   2.580   5.857   1.618  0.0038 -0.7572  0.8278
 8801TIP3   OH247817   1.658   1.411   2.581 -0.7799 -0.8486  0.1161
 8801TIP3    H147818   1.647   1.414   2.486  1.1272 -0.8669 -0.1449
 8801TIP3    H247819   1.616   1.491   2.612  2.3823  1.5516 -1.2546
 8802TIP3   OH247820   3.009   0.271  14.416  0.1498 -0.2097  0.0533
 8802TIP3    H147821   2.952   0.315  14.479 -1.2347  0.5624 -1.6567
 8802TIP3    H247822   3.081   0.332  14.403 -0.0767  0.0795  0.1354
 8803TIP3   OH247823   4.815   4.126  12.428 -0.5604  0.2479  0.2860
 8803TIP3    H147824   4.888   4.118  12.366 -0.9257  1.4498 -0.3219
 8803TIP3    H247825   4.739   4.146  12.373 -1.6416 -2.2118  0.7834
 8804TIP3   OH247826   3.409   2.910  12.371 -0.4812  0.0079 -0.0281
 8804TIP3    H147827   3.318   2.902  12.343  0.5175 -2.3791 -3.1965
 8804TIP3    H247828   3.430   3.003  12.360 -1.9643  0.2304 -1.2619
 8805TIP3   OH247829   2.644   6.138  15.391 -0.0982  0.0418  0.0772
 8805TIP3    H147830   2.689   6.187  15.459  1.5879 -1.5135  0.1819
 8805TIP3    H247831   2.657   6.189  15.311  0.4808  0.4363  0.4180
 8806TIP3   OH247832   1.879   2.283  14.668 -0.5702 -0.0390 -0.6688
 8806TIP3    H147833   1.926   2.225  14.608  0.2536  0.2854 -0.3477
 8806TIP3    H247834   1.841   2.224  14.733  1.6515 -0.1547  0.6292
 8807TIP3   OH247835   0.880   4.613  10.956  0.2207  0.5001  0.0745
 8807TIP3    H147836   0.873   4.619  10.861 -0.8831 -0.8615  0.0390
 8807TIP3    H247837   0.917   4.698  10.983  0.4607  0.9401 -1.5385
 8808TIP3   OH247838   3.457   0.684  16.298  0.3942  0.3256 -0.5407
 8808TIP3    H147839   3.517   0.646  16.363  0.2641  0.3408 -0.4113
 8808TIP3    H247840   3.513   0.702  16.222  0.2585 -1.1262 -1.0057
 8809TIP3   OH247841   5.214   6.511   5.683  0.4001 -0.2083  0.3639
 8809TIP3    H147842   5.204   6.480   5.773  0.3415 -0.8428  0.1419
 8809TIP3    H247843   5.125   6.512   5.648  0.3680  0.4835  0.4546
 8810TIP3   OH247844   1.509   0.980   0.927  0.6722 -0.0379 -0.3801
 8810TIP3    H147845   1.415   0.966   0.936  0.6514  0.6580  0.6470
 8810TIP3    H247846   1.518   1.073   0.908  1.1096 -0.2936 -1.4907
 8811TIP3   OH247847   6.617   2.363  16.143  0.6305  0.3059  0.3790
 8811TIP3    H147848   6.565   2.285  16.122 -0.4466  0.9051  0.7349
 8811TIP3    H247849   6.640   2.353  16.235  2.2954 -0.5889 -0.1040
 8812TIP3   OH247850   5.310   1.487  11.215  0.3160  0.9211 -0.1473
 8812TIP3    H147851   5.230   1.483  11.268  0.1346 -0.8285 -0.4800
 8812TIP3    H247852   5.381   1.487  11.279  0.1236 -1.9442  0.1903
 8813TIP3   OH247853   6.320   5.339   4.609  0.0681 -0.0859  0.3119
 8813TIP3    H147854   6.273   5.298   4.536  0.9471 -0.9043  0.1826
 8813TIP3    H247855   6.369   5.266   4.649  0.0238  0.4525  1.3814
 8814TIP3   OH247856   6.354   4.694   5.839 -0.2413 -0.7341  0.4004
 8814TIP3    H147857   6.406   4.638   5.783 -1.2245  0.4384 -1.7948
 8814TIP3    H247858   6.405   4.774   5.849 -0.2222 -0.8048  0.9401
 8815TIP3   OH247859   5.433   4.031  13.133 -0.4745 -0.3789 -0.0546
 8815TIP3    H147860   5.491   4.100  13.101 -1.8968  0.6707 -0.4789
 8815TIP3    H247861   5.347   4.053  13.096 -0.7688 -3.0042 -1.1504
 8816TIP3   OH247862   2.976   4.037  12.421 -0.3085  0.5284  0.3644
 8816TIP3    H147863   2.994   3.966  12.360  0.7753 -0.4086  1.7290
 8816TIP3    H247864   3.052   4.095  12.414 -1.5465  2.1056 -1.3602
 8817TIP3   OH247865   0.174   1.375   3.678  0.1155 -1.0088 -0.0944
 8817TIP3    H147866   0.127   1.294   3.697  0.3672 -1.0210  0.4809
 8817TIP3    H247867   0.109   1.430   3.633  0.4561 -2.2020 -2.1734
 8818TIP3   OH247868   4.269   5.188   1.327 -0.5129  0.3038 -0.5494
 8818TIP3    H147869   4.346   5.199   1.271 -0.2300 -0.4351 -0.3082
 8818TIP3    H247870   4.195   5.214   1.271 -0.1086  0.8539 -0.8327
 8819TIP3   OH247871   2.602   2.397  12.782  0.5327 -0.4656 -0.1856
 8819TIP3    H147872   2.574   2.464  12.720  2.0450 -0.3331 -0.7637
 8819TIP3    H247873   2.575   2.431  12.868  0.7784  0.6142 -0.5174
 8820TIP3   OH247874   1.444   6.146   4.272  0.4862 -0.0453 -0.4536
 8820TIP3    H147875   1.464   6.239   4.272 -1.3771  0.3871 -1.1954
 8820TIP3    H247876   1.462   6.117   4.183 -0.3069 -0.0695 -0.6119
 8821TIP3   OH247877   4.109   5.276   3.516  0.4959  0.4741 -0.0800
 8821TIP3    H147878   4.111   5.251   3.608  0.6516  0.7095 -0.0174
 8821TIP3    H247879   4.094   5.371   3.517  1.2267  0.5927 -0.2779
 8822TIP3   OH247880   5.996   0.815  11.789 -0.3849 -0.2984  0.3005
 8822TIP3    H147881   5.990   0.899  11.835  1.0052 -0.5380  0.9612
 8822TIP3    H247882   6.082   0.816  11.747 -1.4101 -0.2949 -1.9570
 8823TIP3   OH247883   3.080   0.472  11.614  0.2081  0.2617 -0.4641
 8823TIP3    H147884   3.147   0.407  11.634 -0.9322 -0.6749  0.4279
 8823TIP3    H247885   3.035   0.437  11.537 -0.9054 -0.4467  0.4685
 8824TIP3   OH247886   3.937   5.039   3.575  0.4856  0.2227 -0.4163
 8824TIP3    H147887   3.940   5.060   3.669  0.4461  0.7567 -0.5305
 8824TIP3    H247888   4.007   5.092   3.537 -1.5111  2.4856 -1.1502
 8825TIP3   OH247889   4.119   5.283  17.071 -0.1073  1.1378 -0.4317
 8825TIP3    H147890   4.125   5.191  17.045 -0.7269  0.3385  1.9998
 8825TIP3    H247891   4.208   5.317  17.060  0.4966 -0.2061  0.1468
 8826TIP3   OH247892   1.403   5.963  14.389  0.5235  0.2938  0.2627
 8826TIP3    H147893   1.386   5.889  14.447 -3.0859  0.7672  0.0171
 8826TIP3    H247894   1.408   5.924  14.301  0.9862  0.1276  0.3589
 8827TIP3   OH247895   6.133   2.723   4.171 -0.1504  0.2314 -0.4618
 8827TIP3    H147896   6.198   2.772   4.222 -1.6653  2.0531 -0.1461
 8827TIP3    H247897   6.080   2.679   4.237 -0.1877 -0.0013 -0.6462
 8828TIP3   OH247898   3.616   0.811  16.733  0.1919 -0.2289 -0.1743
 8828TIP3    H147899   3.561   0.838  16.806  3.6806 -1.4520  3.2875
 8828TIP3    H247900   3.649   0.893  16.695 -0.7849  0.4298  0.3657
 8829TIP3   OH247901   6.585   4.508   6.602  0.5955  0.0273  0.0942
 8829TIP3    H147902   6.556   4.417   6.609 -1.0860  0.6518  2.7425
 8829TIP3    H247903   6.552   4.537   6.517  0.2075 -1.4954 -0.3105
 8830TIP3   OH247904   5.398   0.101   2.245  0.5192  0.7796  0.0683
 8830TIP3    H147905   5.350   0.182   2.229 -1.6689 -0.0746  1.6518
 8830TIP3    H247906   5.332   0.032   2.237  2.3771 -0.9326 -1.6156
 8831TIP3   OH247907   5.330   6.223   0.433  0.2806  0.1861 -0.6020
 8831TIP3    H147908   5.374   6.294   0.386 -1.2533  1.2225 -0.5391
 8831TIP3    H247909   5.359   6.233   0.524  0.5678  0.3245 -0.7080
 8832TIP3   OH247910   0.076   3.031  15.767 -0.3095 -0.2025  0.2452
 8832TIP3    H147911   0.064   3.010  15.675  0.4475  1.3522 -0.2470
 8832TIP3    H247912   0.093   2.947  15.809 -0.0475 -0.8655 -1.1279
 8833TIP3   OH247913   0.912   5.496   4.343  0.3140  0.1894  0.2463
 8833TIP3    H147914   0.931   5.413   4.299 -0.7973 -0.3466  0.7446
 8833TIP3    H247915   0.826   5.483   4.384  0.3791  1.3886  0.8162
 8834TIP3   OH247916   6.651   3.524   4.230 -0.6628 -0.9351  0.2534
 8834TIP3    H147917   6.597   3.600   4.206  2.2207  1.8831  1.8012
 8834TIP3    H247918   6.710   3.513   4.155 -1.0441 -1.6603  0.0548
 8835TIP3   OH247919   6.201   4.172   5.870 -0.0550  0.1708  0.0969
 8835TIP3    H147920   6.262   4.201   5.937 -0.2782 -0.0197  0.3834
 8835TIP3    H247921   6.133   4.125   5.918 -1.3653  1.8676 -0.0193
 8836TIP3   OH247922   1.693   5.067  10.635  0.5827 -0.1282 -0.2999
 8836TIP3    H147923   1.716   5.027  10.552  2.4158 -3.2220  1.5077
 8836TIP3    H247924   1.669   4.994  10.692  0.1022  1.7594  2.1339
 8837TIP3   OH247925   0.507   5.348  11.343  0.6659 -0.0617  0.4698
 8837TIP3    H147926   0.415   5.368  11.326  0.6263  1.0450  1.8212
 8837TIP3    H247927   0.518   5.365  11.436  1.9978 -1.2086  0.5498
 8838TIP3   OH247928   5.559   5.131  16.762 -0.3856 -0.7237 -0.2187
 8838TIP3    H147929   5.594   5.042  16.766  1.9033  0.0404 -1.1762
 8838TIP3    H247930   5.533   5.143  16.671 -0.2323 -0.2740 -0.2096
 8839TIP3   OH247931   1.182   1.334   6.164  0.0594  0.3620  0.1974
 8839TIP3    H147932   1.193   1.378   6.249 -1.0113  0.7285  0.1536
 8839TIP3    H247933   1.088   1.338   6.146 -0.0134 -1.4936 -0.0575
 8840TIP3   OH247934   2.002   3.921  15.498  0.0376  0.4247 -0.5595
 8840TIP3    H147935   2.063   3.995  15.504  1.4882 -0.7906  0.8646
 8840TIP3    H247936   1.932   3.943  15.559  1.1453  0.0816  0.8936
 8841TIP3   OH247937   4.256   4.236   0.975 -0.1462 -0.6407 -0.3531
 8841TIP3    H147938   4.326   4.292   1.009 -1.3841  2.0011 -1.8668
 8841TIP3    H247939   4.288   4.147   0.989  3.3524  0.4146 -0.6150
 8842TIP3   OH247940   6.477   3.687   0.738  1.0374  0.7221  0.6237
 8842TIP3    H147941   6.525   3.607   0.718 -0.2894  1.0054 -5.6882
 8842TIP3    H247942   6.541   3.757   0.724  0.8871  0.8990  0.8121
 8843TIP3   OH247943   5.684   5.574  10.377 -0.4361 -1.1197 -0.1966
 8843TIP3    H147944   5.665   5.617  10.293 -1.6485  3.1859  2.0118
 8843TIP3    H247945   5.598   5.547  10.409 -0.4081  0.0549  0.9358
 8844TIP3   OH247946   1.404   1.019   3.113  0.4867 -0.2498 -0.1886
 8844TIP3    H147947   1.497   1.031   3.095  0.3177  1.4282 -0.1732
 8844TIP3    H247948   1.394   0.926   3.132  2.1383 -0.4708 -0.2909
 8845TIP3   OH247949   3.889   0.419  11.176 -0.0176  0.2765 -0.4092
 8845TIP3    H147950   3.796   0.425  11.194 -0.0738  0.0611 -0.6142
 8845TIP3    H247951   3.932   0.446  11.257 -0.2584  0.1696 -0.2473
 8846TIP3   OH247952   3.434   0.597   2.730 -0.8035 -0.0498 -0.7221
 8846TIP3    H147953   3.391   0.656   2.668 -0.5931  1.6344  0.6504
 8846TIP3    H247954   3.366   0.577   2.795 -0.1783  0.8036  0.2240
 8847TIP3   OH247955   5.894   0.600  16.932  0.1567  0.4540 -0.4313
 8847TIP3    H147956   5.842   0.656  16.876 -1.5688  0.5527  1.1715
 8847TIP3    H247957   5.871   0.511  16.906 -0.2863  0.5006 -0.2038
 8848TIP3   OH247958   0.606   0.873  12.911 -0.2436  0.2777  0.2894
 8848TIP3    H147959   0.521   0.918  12.913  0.2538  1.2321  1.4498
 8848TIP3    H247960   0.670   0.943  12.925  0.7469 -0.4245 -0.6025
 8849TIP3   OH247961   2.185   4.920  11.438 -0.4381  0.0479 -0.0099
 8849TIP3    H147962   2.160   4.836  11.397 -3.8036  0.6146  0.5941
 8849TIP3    H247963   2.118   4.982  11.408  1.2334  2.2501  0.5847
 8850TIP3   OH247964   6.773   2.592  11.326  0.5380  0.0523  0.4056
 8850TIP3    H147965   6.772   2.588  11.422  1.7891 -0.1414  0.4264
 8850TIP3    H247966   6.796   2.683  11.307 -0.3430  0.2538  0.2703
 8851TIP3   OH247967   6.081   0.291  14.058 -0.1272  0.0773  0.0484
 8851TIP3    H147968   6.050   0.355  14.122 -0.1106  0.0626  0.0706
 8851TIP3    H247969   6.107   0.215  14.109  0.8306  0.4354  0.1120
 8852TIP3   OH247970   2.921   0.917  13.777 -0.4644 -1.0987 -0.5640
 8852TIP3    H147971   2.837   0.920  13.824 -0.6603  0.5366 -0.9486
 8852TIP3    H247972   2.901   0.871  13.696 -0.9159 -1.0519 -0.4853
 8853TIP3   OH247973   4.685   2.932  14.658  0.0334  0.0164 -0.2351
 8853TIP3    H147974   4.691   2.950  14.752  1.1447 -0.6652 -0.1533
 8853TIP3    H247975   4.616   2.866  14.651 -0.3602  0.3902  0.0515
 8854TIP3   OH247976   2.058   0.498  16.667  0.0511 -0.4247  0.2784
 8854TIP3    H147977   2.126   0.432  16.658  0.6868 -0.0313  1.8152
 8854TIP3    H247978   2.051   0.538  16.581  1.1101 -1.1067 -0.1376
 8855TIP3   OH247979   3.683   0.322  16.514 -0.1470 -0.0300 -0.5596
 8855TIP3    H147980   3.671   0.239  16.560  0.1036 -0.3073 -0.9927
 8855TIP3    H247981   3.655   0.304  16.425 -0.8631  0.5722 -0.4647
 8856TIP3   OH247982   0.626   3.084   4.656 -0.2939  0.5174  0.5187
 8856TIP3    H147983   0.633   3.153   4.722  1.6274  0.6568  0.2438
 8856TIP3    H247984   0.681   3.114   4.584  2.1979 -2.0524  1.1522
 8857TIP3   OH247985   5.815   6.712  11.412  0.1320  0.0829  0.3472
 8857TIP3    H147986   5.742   6.669  11.457  0.2599  0.7448  1.1990
 8857TIP3    H247987   5.789   6.711  11.319 -2.3070  2.7123  0.8567
 8858TIP3   OH247988   6.755   6.489   4.246  0.3621  0.2016  0.1466
 8858TIP3    H147989   6.838   6.463   4.286  0.0416 -0.3063  0.5005
 8858TIP3    H247990   6.757   6.584   4.247  1.3150  0.2013 -0.6404
 8859TIP3   OH247991   0.049   3.056  11.547 -0.3654 -0.4003  0.5761
 8859TIP3    H147992   0.066   3.064  11.453  0.6851  0.0210  0.7813
 8859TIP3    H247993  -0.045   3.069  11.556 -0.3192  0.6749 -0.3092
 8860TIP3   OH247994   6.463   3.773  12.419  0.1608 -0.5347 -0.1077
 8860TIP3    H147995   6.376   3.732  12.421  0.0841 -0.3572  0.2218
 8860TIP3    H247996   6.480   3.798  12.510  0.9742 -1.4300 -0.0033
 8861TIP3   OH247997   5.898   4.075  15.706  0.2143  0.3240 -0.2232
 8861TIP3    H147998   5.908   4.166  15.734  0.1330  0.2296  0.1094
 8861TIP3    H247999   5.965   4.027  15.754 -0.1753  0.1012  0.1038
 8862TIP3   OH248000   3.965   3.880  11.112  1.0610 -0.3046 -0.5350
 8862TIP3    H148001   3.875   3.868  11.080  0.4925  1.4617  0.2395
 8862TIP3    H248002   3.988   3.797  11.153 -1.0426 -0.1605  1.1060
 8863TIP3   OH248003   1.941   0.410  13.906 -0.0402  0.0775 -0.0909
 8863TIP3    H148004   1.998   0.468  13.854 -0.2237  1.2899  1.0272
 8863TIP3    H248005   1.987   0.399  13.989 -0.7788 -0.0863  0.3048
 8864TIP3   OH248006   5.256   5.442  16.479  0.5666  0.1945  0.5428
 8864TIP3    H148007   5.274   5.438  16.573  0.3979  1.7995  0.6695
 8864TIP3    H248008   5.340   5.423  16.437  0.4096 -1.6406  0.9696
 8865TIP3   OH248009   1.912   0.856  12.262  0.1325  0.0381  0.1184
 8865TIP3    H148010   1.957   0.829  12.182  0.5751 -0.7010  0.5994
 8865TIP3    H248011   1.933   0.949  12.272 -3.1434  1.2860 -2.7162
 8866TIP3   OH248012   6.774   6.757  13.907 -0.1277 -0.3378 -0.2784
 8866TIP3    H148013   6.837   6.691  13.878  1.2191 -0.1291  1.9187
 8866TIP3    H248014   6.818   6.803  13.978 -1.6557  1.8615 -0.6385
 8867TIP3   OH248015   2.880   4.837   2.145 -0.5560  0.0676 -0.1961
 8867TIP3    H148016   2.900   4.782   2.221  0.6203  1.3034  0.4394
 8867TIP3    H248017   2.928   4.795   2.073  1.2636  0.7992  0.5103
 8868TIP3   OH248018   5.463   6.555   2.842  0.1149  0.3677  0.5146
 8868TIP3    H148019   5.445   6.648   2.825  0.3790  0.3256 -0.0082
 8868TIP3    H248020   5.550   6.540   2.806  1.1235  0.4922  2.7780
 8869TIP3   OH248021   1.998   0.160   6.376 -1.2960  0.8885 -0.2808
 8869TIP3    H148022   1.902   0.158   6.381 -1.3121 -1.9406 -0.0280
 8869TIP3    H248023   2.020   0.088   6.316  0.7131 -0.4122  1.8516
 8870TIP3   OH248024   1.849   5.817  14.445 -0.2952  0.5704  0.3319
 8870TIP3    H148025   1.792   5.862  14.382 -0.3899  0.2094  0.1608
 8870TIP3    H248026   1.793   5.753  14.487  0.4766 -1.3867 -1.4346
 8871TIP3   OH248027   4.302   0.515   5.835  0.7506 -0.4739  0.4163
 8871TIP3    H148028   4.238   0.447   5.814  1.5000 -0.6710 -1.4591
 8871TIP3    H248029   4.267   0.559   5.913 -2.1520  0.0371 -1.0472
 8872TIP3   OH248030   6.042   2.051   3.397 -0.1702  0.5476  0.0484
 8872TIP3    H148031   5.973   2.088   3.452 -0.5702  0.8768 -0.6605
 8872TIP3    H248032   6.115   2.112   3.406 -0.0225  0.2998  0.6485
 8873TIP3   OH248033   0.893   0.405   4.647  0.1478 -0.0021  0.1254
 8873TIP3    H148034   0.949   0.480   4.670 -0.7305  0.6577  0.1686
 8873TIP3    H248035   0.912   0.341   4.716 -0.3220  0.8398  1.0723
 8874TIP3   OH248036   6.469   4.031  15.263  0.1906  0.1513 -0.0941
 8874TIP3    H148037   6.402   4.098  15.278 -0.8026 -1.0191  0.8962
 8874TIP3    H248038   6.540   4.054  15.324  0.2139  0.7386 -0.3311
 8875TIP3   OH248039   1.039   0.515   3.750  0.1283 -0.2298 -0.0702
 8875TIP3    H148040   1.078   0.467   3.677  1.0713 -0.0293  0.3014
 8875TIP3    H248041   1.063   0.606   3.735 -1.9799  0.2494 -0.9838
 8876TIP3   OH248042   3.824   3.969   2.338  0.3748  0.1444  0.0624
 8876TIP3    H148043   3.868   3.915   2.404 -1.8424 -0.4463  1.1409
 8876TIP3    H248044   3.743   3.922   2.319  1.0894  0.0355 -3.5127
 8877TIP3   OH248045   0.294   3.865   2.809 -0.3756 -0.4206 -0.1568
 8877TIP3    H148046   0.382   3.858   2.772  0.4568  2.1031  1.0805
 8877TIP3    H248047   0.256   3.940   2.763 -0.7824  0.2755  1.2832
 8878TIP3   OH248048   6.623   2.544  13.460 -0.1233 -0.3820  0.1310
 8878TIP3    H148049   6.715   2.538  13.485  0.2524 -0.1958 -1.1792
 8878TIP3    H248050   6.620   2.516  13.369 -1.5133 -1.2983  0.4155
 8879TIP3   OH248051   6.607   2.289  14.796  0.2292 -0.1140  0.0312
 8879TIP3    H148052   6.557   2.290  14.714 -0.6459  1.5295  0.5250
 8879TIP3    H248053   6.612   2.197  14.821 -0.8511 -0.4908 -1.0735
 8880TIP3   OH248054   5.394   2.019   2.431  0.2615 -0.4345  0.0666
 8880TIP3    H148055   5.463   2.006   2.495  0.6485  0.7096 -0.0848
 8880TIP3    H248056   5.314   1.989   2.475  0.4828  0.5212  1.1858
 8881TIP3   OH248057   2.690   4.210  14.973 -0.5337  0.2803 -0.2549
 8881TIP3    H148058   2.720   4.187  14.885 -0.6969  0.8832 -0.4736
 8881TIP3    H248059   2.756   4.173  15.031 -0.8423 -0.8111 -0.5858
 8882TIP3   OH248060   0.245   1.329  12.627 -0.7250 -0.7853  0.1285
 8882TIP3    H148061   0.284   1.364  12.707 -0.3789 -2.2772  0.6548
 8882TIP3    H248062   0.157   1.366  12.625 -0.4074  0.0369  0.6813
 8883TIP3   OH248063   5.603   4.254  11.469 -0.0354  0.3377  0.0063
 8883TIP3    H148064   5.691   4.290  11.477  0.2679 -0.4857  0.5594
 8883TIP3    H248065   5.591   4.203  11.549 -0.5586 -0.5072 -0.5898
 8884TIP3   OH248066   2.974   0.669  14.227 -0.1393 -0.1228 -0.6282
 8884TIP3    H148067   3.066   0.644  14.238 -0.1810  0.2840  0.8179
 8884TIP3    H248068   2.961   0.670  14.132  1.5301  0.4296 -0.8858
 8885TIP3   OH248069   2.799   5.032  15.209  0.4467  0.1210  0.0971
 8885TIP3    H148070   2.704   5.032  15.218  0.4349  3.2551  1.1803
 8885TIP3    H248071   2.832   5.016  15.297  0.9320 -0.5620 -0.2034
 8886TIP3   OH248072   4.308   1.026  14.975 -0.1767  0.0787  0.2287
 8886TIP3    H148073   4.317   0.992  14.886 -0.2704 -0.1090  0.2916
 8886TIP3    H248074   4.220   1.063  14.977  0.1199  0.8281 -0.0110
 8887TIP3   OH248075   3.361   5.845  16.514  0.3460 -0.7027 -0.0372
 8887TIP3    H148076   3.392   5.916  16.458 -0.2705  0.2640  0.8067
 8887TIP3    H248077   3.367   5.881  16.603 -2.5323 -0.6746  0.2296
 8888TIP3   OH248078   0.035   6.051  11.498 -0.0004  0.3483  0.4341
 8888TIP3    H148079   0.050   6.049  11.404 -0.3636 -0.3265  0.3831
 8888TIP3    H248080   0.009   6.141  11.517  2.9107  1.2838  0.3531
 8889TIP3   OH248081   3.349   5.250   6.057 -0.9430 -0.2053  0.0257
 8889TIP3    H148082   3.309   5.289   6.135 -3.3011 -2.0307 -0.1673
 8889TIP3    H248083   3.399   5.176   6.090  0.0737  0.4338 -0.0204
 8890TIP3   OH248084   4.960   6.033  15.290 -0.4721  0.5845  0.2518
 8890TIP3    H148085   4.924   6.121  15.294 -1.5307  0.2640 -1.3488
 8890TIP3    H248086   4.887   5.976  15.318 -0.4911  0.0917 -0.7482
 8891TIP3   OH248087   6.088   2.974   4.391  0.5150  0.1137  0.0429
 8891TIP3    H148088   6.163   3.033   4.400 -0.2464  1.2084 -0.6067
 8891TIP3    H248089   6.124   2.887   4.411  1.6649  0.7739  0.9707
 8892TIP3   OH248090   5.943   4.275  13.366 -0.6459 -0.3250  0.3491
 8892TIP3    H148091   5.990   4.314  13.440 -0.4924  0.5223 -0.1799
 8892TIP3    H248092   5.858   4.251  13.402 -0.9546  1.0232  0.5785
 8893TIP3   OH248093   5.816   1.672  15.706 -0.1777 -0.3582  0.1479
 8893TIP3    H148094   5.904   1.708  15.697  0.0176 -0.6284  0.8911
 8893TIP3    H248095   5.788   1.698  15.794  0.2848 -2.6518  1.0465
 8894TIP3   OH248096   2.514   3.083   1.941 -0.3411  0.3972  0.0053
 8894TIP3    H148097   2.500   3.177   1.947  0.2692  0.3993  2.4616
 8894TIP3    H248098   2.574   3.072   1.867  1.0120  2.1473  0.7700
 8895TIP3   OH248099   4.964   1.755   6.426 -0.0972  0.3797  0.1771
 8895TIP3    H148100   5.002   1.684   6.374 -0.9401  0.3894 -0.4687
 8895TIP3    H248101   5.039   1.806   6.456  0.7089 -1.8076  2.2059
 8896TIP3   OH248102   4.072   5.587  13.729  0.1723 -0.1147 -0.4764
 8896TIP3    H148103   4.150   5.632  13.696  1.4198  0.0503  2.4155
 8896TIP3    H248104   4.008   5.657  13.742  0.2018  0.0260 -1.0543
 8897TIP3   OH248105   0.939   1.587  15.966  0.1542  0.0325 -0.6640
 8897TIP3    H148106   0.950   1.504  16.013 -0.6042 -0.0765 -0.6734
 8897TIP3    H248107   0.853   1.580  15.925  0.1419  0.7749 -0.7716
 8898TIP3   OH248108   5.252   0.818  15.267  0.0730  1.2393 -0.0189
 8898TIP3    H148109   5.208   0.899  15.294  0.1070  0.8551  1.2581
 8898TIP3    H248110   5.212   0.750  15.321  1.6670  0.7667  0.6221
 8899TIP3   OH248111   3.389   5.650  14.053 -0.5355 -0.6926  0.0547
 8899TIP3    H148112   3.424   5.728  14.096  0.3721 -1.4567  0.7174
 8899TIP3    H248113   3.296   5.651  14.075 -0.5737  0.2899 -0.0892
 8900TIP3   OH248114   2.021   1.267  12.997 -0.5931 -0.2116  0.0210
 8900TIP3    H148115   2.027   1.362  12.995 -1.5677 -0.1509 -0.3949
 8900TIP3    H248116   2.014   1.245  13.090 -1.7058  0.2334  0.0608
 8901TIP3   OH248117   5.854   3.498  14.228  0.1741  0.2428  0.0175
 8901TIP3    H148118   5.764   3.467  14.234  0.5725 -0.8125  1.0063
 8901TIP3    H248119   5.904   3.422  14.198  0.7748  0.7504 -0.3038
 8902TIP3   OH248120   3.907   1.227   4.748  0.5229  0.5867 -0.3675
 8902TIP3    H148121   3.970   1.157   4.766  1.4308  1.6188  0.6192
 8902TIP3    H248122   3.932   1.260   4.662  0.2517 -0.1136 -0.7245
 8903TIP3   OH248123   5.698   0.723   1.555  0.1495  0.8461 -0.0379
 8903TIP3    H148124   5.756   0.797   1.538  1.2066  0.0827  0.1626
 8903TIP3    H248125   5.669   0.735   1.645  3.8229 -1.2271  1.6096
 8904TIP3   OH248126   6.292   2.263  13.854  0.3816 -0.4269 -0.0316
 8904TIP3    H148127   6.297   2.178  13.812 -1.4169 -0.8753  0.5767
 8904TIP3    H248128   6.234   2.250  13.930  2.7396  0.5607  2.0997
 8905TIP3   OH248129   0.419   3.665   3.841  0.1378  0.5957  0.0315
 8905TIP3    H148130   0.424   3.579   3.882 -1.1892  0.5737  0.1842
 8905TIP3    H248131   0.487   3.663   3.774 -1.3877 -1.5100 -1.6137
 8906TIP3   OH248132   1.461   6.331  14.589  0.3616 -0.1181  0.1886
 8906TIP3    H148133   1.504   6.365  14.510  0.3025 -0.5669 -0.0380
 8906TIP3    H248134   1.383   6.286  14.557  0.6949 -0.8907  0.4388
 8907TIP3   OH248135   4.702   1.744  13.194  0.4293  0.1450 -0.5311
 8907TIP3    H148136   4.786   1.745  13.148 -0.6299 -0.4014 -2.5698
 8907TIP3    H248137   4.669   1.834  13.186  0.6824  0.3078  0.0985
 8908TIP3   OH248138   0.706   0.872   5.071  0.1621  0.6917 -0.0850
 8908TIP3    H148139   0.701   0.962   5.038  1.4113  0.6788 -0.3697
 8908TIP3    H248140   0.747   0.822   5.000 -2.6790 -0.6502 -0.9124
 8909TIP3   OH248141   3.774   3.332   0.688 -0.4072  0.6595  0.4219
 8909TIP3    H148142   3.690   3.291   0.707  0.1133 -0.1428  1.0621
 8909TIP3    H248143   3.839   3.266   0.711  0.4143  1.4043  0.3065
 8910TIP3   OH248144   3.068   3.175  11.093  0.3475  0.0577  0.3871
 8910TIP3    H148145   3.037   3.086  11.076  0.3160 -0.0252  0.8767
 8910TIP3    H248146   3.012   3.231  11.039  2.9636 -0.4606 -3.3172
 8911TIP3   OH248147   1.801   0.081  12.745  0.4863 -0.5229  0.1341
 8911TIP3    H148148   1.858   0.097  12.670  0.6574 -0.1047  0.3459
 8911TIP3    H248149   1.717   0.120  12.721  0.4843 -0.5604  0.0817
 8912TIP3   OH248150   3.650   3.156  11.862  0.0148 -0.0706 -0.1829
 8912TIP3    H148151   3.697   3.097  11.803  0.1244 -0.6557  0.4665
 8912TIP3    H248152   3.715   3.220  11.890  0.3576 -0.6913  0.4681
 8913TIP3   OH248153   6.360   4.552   6.437 -0.2391  0.1634 -0.7539
 8913TIP3    H148154   6.277   4.565   6.393 -0.2920  0.2116 -0.6396
 8913TIP3    H248155   6.346   4.585   6.526  1.0270  3.8916 -1.7567
 8914TIP3   OH248156   1.302   2.062   3.417  0.0468  0.1452  0.4513
 8914TIP3    H148157   1.368   2.007   3.375  0.1424  0.2536  0.4570
 8914TIP3    H248158   1.351   2.110   3.484  0.1385  0.8699 -0.1214
 8915TIP3   OH248159   0.716   3.549  11.438  0.4871  0.1682  1.1190
 8915TIP3    H148160   0.726   3.455  11.450  0.5215  0.0435  0.1441
 8915TIP3    H248161   0.685   3.559  11.349 -0.6705  1.0145  1.5924
 8916TIP3   OH248162   3.495   2.036  16.004 -0.4944  0.2199  0.1763
 8916TIP3    H148163   3.415   2.028  15.952  0.4507 -1.0047 -1.1800
 8916TIP3    H248164   3.497   1.957  16.057 -0.5215  0.5937  0.7484
 8917TIP3   OH248165   0.911   1.075  15.050 -0.0236  0.0894 -0.1811
 8917TIP3    H148166   0.932   0.990  15.088 -1.2984 -0.0774  0.1992
 8917TIP3    H248167   0.839   1.057  14.990 -0.1265  0.8621 -0.2987
 8918TIP3   OH248168   4.713   2.730  11.400  0.0841  0.1627 -0.4721
 8918TIP3    H148169   4.698   2.638  11.421  1.6169 -0.0622 -0.2310
 8918TIP3    H248170   4.759   2.728  11.316 -0.8558  0.7816 -1.0227
 8919TIP3   OH248171   0.178   2.334   2.108 -0.4102 -0.6516 -0.7882
 8919TIP3    H148172   0.136   2.326   2.194  1.6561 -1.4138  0.2313
 8919TIP3    H248173   0.262   2.378   2.127  0.4089 -1.4842 -2.2982
 8920TIP3   OH248174   5.747   3.695   5.829 -0.1470 -0.7698 -0.0040
 8920TIP3    H148175   5.651   3.696   5.824 -0.2972 -1.5876  1.9546
 8920TIP3    H248176   5.766   3.640   5.905  1.8898 -0.5139 -0.2933
 8921TIP3   OH248177   6.704   1.196  11.697  0.1733  0.0733  0.0093
 8921TIP3    H148178   6.626   1.140  11.693  0.3668 -0.2373  0.4947
 8921TIP3    H248179   6.718   1.223  11.606 -0.0960 -0.4265 -0.1907
 8922TIP3   OH248180   2.382   2.259   1.970  0.4291  0.1919  0.3404
 8922TIP3    H148181   2.443   2.332   1.983  0.7448  0.0028 -0.0438
 8922TIP3    H248182   2.366   2.259   1.875  1.1112 -0.7774  0.2120
 8923TIP3   OH248183   2.245   5.766  16.700  0.0180 -0.0467 -0.2459
 8923TIP3    H148184   2.193   5.842  16.673  0.7154  0.5565  0.0756
 8923TIP3    H248185   2.263   5.719  16.619  0.6695  0.8335 -0.6222
 8924TIP3   OH248186   5.863   1.510   2.691  0.1895  0.4676  0.0256
 8924TIP3    H148187   5.831   1.428   2.729  0.8893  0.6941  1.1449
 8924TIP3    H248188   5.924   1.544   2.756 -0.2995  2.0201 -0.3057
 8925TIP3   OH248189   2.952   4.652   2.374 -0.5147 -0.3419 -0.0561
 8925TIP3    H148190   3.046   4.659   2.394 -0.6479  0.3484  0.3625
 8925TIP3    H248191   2.918   4.591   2.439 -0.5526  0.2615  0.4987
 8926TIP3   OH248192   5.035   3.362  13.148 -0.0624 -0.4274  0.4841
 8926TIP3    H148193   4.999   3.284  13.105  0.0790  0.1546 -0.7322
 8926TIP3    H248194   5.082   3.408  13.079 -1.4357  1.5421  0.7837
 8927TIP3   OH248195   3.199   4.252  15.998 -0.0249  0.0366 -0.4572
 8927TIP3    H148196   3.192   4.158  16.016 -0.3038 -0.0264 -0.8712
 8927TIP3    H248197   3.222   4.291  16.082 -2.6090 -0.0953  0.3881
 8928TIP3   OH248198   0.499   4.466  13.437 -0.2591  0.1519  0.1525
 8928TIP3    H148199   0.528   4.384  13.477  0.3169  0.1212 -0.3188
 8928TIP3    H248200   0.545   4.470  13.353 -1.9600 -0.1198 -0.8456
 8929TIP3   OH248201   1.184   6.678   2.886 -0.0246 -0.4782 -0.0805
 8929TIP3    H148202   1.168   6.621   2.811 -0.5857 -0.0694 -0.2800
 8929TIP3    H248203   1.259   6.731   2.861 -0.1055 -0.4614 -0.2875
 8930TIP3   OH248204   6.775   4.709   3.393  0.0518 -0.1827  0.1155
 8930TIP3    H148205   6.741   4.798   3.385  0.4310 -0.1102 -0.9390
 8930TIP3    H248206   6.732   4.673   3.470  0.0225  0.9737  0.6592
 8931TIP3   OH248207   1.016   4.656   1.718 -0.3080  0.6093 -0.4155
 8931TIP3    H148208   1.075   4.612   1.658  0.7691  3.0859 -1.2541
 8931TIP3    H248209   1.066   4.665   1.799  0.1199  1.8217 -0.8065
 8932TIP3   OH248210   0.293   6.692  14.536  0.0815  0.1986  0.1815
 8932TIP3    H148211   0.197   6.694  14.535  0.0776  0.6798  0.7175
 8932TIP3    H248212   0.317   6.762  14.597  0.7309 -1.2196  1.6312
 8933TIP3   OH248213   5.484   5.042  12.915 -0.5649  0.2622  0.0407
 8933TIP3    H148214   5.480   4.952  12.949  0.3267 -0.0652 -0.6947
 8933TIP3    H248215   5.517   5.033  12.826  1.5093  1.4647  0.6175
 8934TIP3   OH248216   0.845   4.169   4.807  0.1628  0.5570  0.0435
 8934TIP3    H148217   0.859   4.187   4.714  0.4060  0.0237 -0.0239
 8934TIP3    H248218   0.750   4.159   4.815  0.1836  0.0901 -0.2443
 8935TIP3   OH248219   1.582   3.795  11.897  0.2089 -0.2882 -0.5378
 8935TIP3    H148220   1.579   3.884  11.862  0.2598 -0.1533 -0.2009
 8935TIP3    H248221   1.669   3.787  11.936 -0.5244  0.2564  1.3440
 8936TIP3   OH248222   1.688   4.604  11.802  0.7223  0.2327 -0.3875
 8936TIP3    H148223   1.619   4.623  11.738  0.1933  1.4489  0.4973
 8936TIP3    H248224   1.700   4.686  11.849  1.6603 -0.4143  0.5487
 8937TIP3   OH248225   2.662   2.082  13.559 -0.7107  0.1621 -1.0998
 8937TIP3    H148226   2.612   2.114  13.634  1.0653  0.8447 -0.1494
 8937TIP3    H248227   2.714   2.010  13.594  0.8046  1.0673 -1.4345
 8938TIP3   OH248228   5.690   6.309   0.483  0.3385  0.2161  0.3713
 8938TIP3    H148229   5.676   6.216   0.502 -2.1882  0.4564 -0.0314
 8938TIP3    H248230   5.682   6.315   0.387 -1.4415  1.0885  0.5447
 8939TIP3   OH248231   5.194   6.492  13.825 -0.1670  0.8718  0.4527
 8939TIP3    H148232   5.190   6.432  13.899  2.9128  0.2310  0.2213
 8939TIP3    H248233   5.205   6.436  13.749  0.2381  1.6439 -0.0697
 8940TIP3   OH248234   2.224   5.204   0.177  0.2660  0.0123  0.3258
 8940TIP3    H148235   2.314   5.193   0.145 -0.2501  0.8497 -1.5094
 8940TIP3    H248236   2.233   5.205   0.273  2.0606 -1.0388  0.2141
 8941TIP3   OH248237   1.132   2.798  15.861  0.6657  0.1362 -0.1475
 8941TIP3    H148238   1.123   2.825  15.770 -1.7547  0.9082  0.2524
 8941TIP3    H248239   1.146   2.879  15.909 -1.9931  0.2998  0.5339
 8942TIP3   OH248240   5.104   6.760  13.878 -0.0769  0.2157  0.0832
 8942TIP3    H148241   5.171   6.805  13.826  1.2694 -1.3550  0.3726
 8942TIP3    H248242   5.112   6.668  13.853 -1.6937 -0.1057  0.6344
 8943TIP3   OH248243   3.356   5.522   5.187  0.5709  0.4886  0.2227
 8943TIP3    H148244   3.323   5.584   5.252  0.5320 -0.5675  1.2633
 8943TIP3    H248245   3.440   5.559   5.158  0.4558  1.1147  0.6688
 8944TIP3   OH248246   5.621   2.916   2.935  0.3927  0.7915 -0.4683
 8944TIP3    H148247   5.554   2.938   2.999  0.4467 -0.4305  0.0474
 8944TIP3    H248248   5.681   2.858   2.982  1.2383  1.0314 -1.2140
 8945TIP3   OH248249   1.587   0.461  15.334  0.5319 -0.4763  0.2451
 8945TIP3    H148250   1.604   0.553  15.311 -1.3765 -0.1050  0.1176
 8945TIP3    H248251   1.669   0.416  15.314  1.3958  1.1369 -0.0476
 8946TIP3   OH248252   2.070   3.797   1.817 -0.6360  1.0741  0.1013
 8946TIP3    H148253   1.982   3.825   1.791 -1.1530 -0.9762 -0.6276
 8946TIP3    H248254   2.055   3.738   1.891  0.1498  0.9363  0.1630
 8947TIP3   OH248255   5.093   3.000   2.177  0.1849 -0.1975  0.0389
 8947TIP3    H148256   5.091   3.094   2.158  0.8284  0.1109  1.3774
 8947TIP3    H248257   5.169   2.968   2.128 -0.1928 -0.0808 -0.6348
 8948TIP3   OH248258   2.653   6.155   3.357 -0.0935  0.7914  0.1477
 8948TIP3    H148259   2.709   6.215   3.308 -1.5059  1.0610 -1.1996
 8948TIP3    H248260   2.582   6.210   3.390 -1.2467 -0.0689 -0.8541
 8949TIP3   OH248261   5.613   6.072  11.164 -0.2026  0.2319  0.4930
 8949TIP3    H148262   5.525   6.069  11.202 -0.3228  0.7644  0.2743
 8949TIP3    H248263   5.644   5.982  11.166 -0.4411  0.1640  1.3081
 8950TIP3   OH248264   1.263   0.429  10.970 -0.2530 -0.5305  0.2656
 8950TIP3    H148265   1.239   0.489  11.041  0.4595  0.8224 -0.5885
 8950TIP3    H248266   1.182   0.416  10.921 -0.3699 -0.0745  0.3308
 8951TIP3   OH248267   2.391   3.234   0.243  0.1864 -0.0983  0.6740
 8951TIP3    H148268   2.461   3.296   0.259  0.4941  0.1695 -1.3822
 8951TIP3    H248269   2.329   3.281   0.187  0.8161 -1.7961 -1.6160
 8952TIP3   OH248270   2.129   2.623   2.377  0.6101  0.0029 -0.1237
 8952TIP3    H148271   2.039   2.634   2.347  1.2408  2.4754 -1.4791
 8952TIP3    H248272   2.129   2.541   2.427 -2.6330  0.5309  0.9999
 8953TIP3   OH248273   6.450   2.693   0.779  0.3502  0.8468  0.0903
 8953TIP3    H148274   6.472   2.780   0.745  1.3482  0.2307 -0.9313
 8953TIP3    H248275   6.398   2.652   0.710  1.8302 -0.1801 -0.4697
 8954TIP3   OH248276   0.863   6.059   3.456  0.6009  0.8223  0.1044
 8954TIP3    H148277   0.911   6.098   3.529  1.9317 -0.2016 -0.1782
 8954TIP3    H248278   0.771   6.080   3.474  0.7976  0.0202  2.4754
 8955TIP3   OH248279   2.531   4.624  16.310  0.0894  0.2022 -0.0388
 8955TIP3    H148280   2.624   4.609  16.296  0.2048 -0.8923  1.6166
 8955TIP3    H248281   2.504   4.680  16.237  2.5993  2.7631  0.8226
 8956TIP3   OH248282   1.880   2.207   1.960  0.6741  0.4557  0.3671
 8956TIP3    H148283   1.958   2.173   1.916  0.3155  1.3020 -0.9665
 8956TIP3    H248284   1.914   2.244   2.042  1.6529  0.6692 -0.1160
 8957TIP3   OH248285   3.451   2.111  13.852  0.2740 -0.0745 -0.3724
 8957TIP3    H148286   3.534   2.138  13.815  0.3677  1.4509  0.8329
 8957TIP3    H248287   3.388   2.178  13.823 -0.3192 -0.6722 -0.4871
 8958TIP3   OH248288   0.877   5.197   0.309  0.7705  0.0496  0.1957
 8958TIP3    H148289   0.819   5.238   0.374  1.9355  1.6585  0.2952
 8958TIP3    H248290   0.934   5.140   0.360  0.4679 -0.1246  0.3397
 8959TIP3   OH248291   6.241   0.003   5.139  0.0008  0.6623  0.6222
 8959TIP3    H148292   6.285   0.082   5.107 -0.5443  0.5863 -0.3572
 8959TIP3    H248293   6.296  -0.027   5.212  0.9684  1.1780  0.1335
 8960TIP3   OH248294   1.682   3.860  15.001  0.2041  1.5273  0.4301
 8960TIP3    H148295   1.745   3.921  15.042  1.3128  0.9912 -0.4220
 8960TIP3    H248296   1.717   3.773  15.022 -0.3414  1.2162  0.0542
 8961TIP3   OH248297   0.875   3.855  13.755  0.3358 -0.1429  0.0002
 8961TIP3    H148298   0.946   3.806  13.797  0.3384  0.5444  0.8375
 8961TIP3    H248299   0.903   3.947  13.760  0.8303 -0.1066 -2.4979
 8962TIP3   OH248300   5.978   6.741  16.048  0.1511 -0.1613 -0.2640
 8962TIP3    H148301   6.037   6.683  16.095 -0.8914  0.0638  1.4227
 8962TIP3    H248302   5.892   6.725  16.087 -0.6903  0.3962 -1.7932
 8963TIP3   OH248303   3.228   3.503   0.539 -0.0790 -0.0773  0.2996
 8963TIP3    H148304   3.182   3.434   0.588 -0.9867  0.3688  0.0915
 8963TIP3    H248305   3.173   3.580   0.548  0.5800  0.4464 -0.0556
 8964TIP3   OH248306   2.179   5.723  11.879 -0.2628  0.1453 -0.0761
 8964TIP3    H148307   2.166   5.665  11.804  1.3985  1.9287 -1.8579
 8964TIP3    H248308   2.138   5.806  11.853  0.8114  0.9589  0.7326
 8965TIP3   OH248309   1.594   5.976  11.602 -0.6523 -0.0481  0.5205
 8965TIP3    H148310   1.583   5.976  11.507  0.5828  0.0741  0.3609
 8965TIP3    H248311   1.561   5.891  11.629 -1.2967  0.0315  0.0255
 8966TIP3   OH248312   4.526   5.336   5.751  0.5468  0.3112  0.0925
 8966TIP3    H148313   4.612   5.310   5.718 -0.1090  0.5718 -1.9814
 8966TIP3    H248314   4.536   5.338   5.846  3.3818  2.3107 -0.1421
 8967TIP3   OH248315   2.237   3.228  15.124  0.0157  0.1125  0.5467
 8967TIP3    H148316   2.259   3.263  15.038 -1.0948 -0.9589 -0.1942
 8967TIP3    H248317   2.206   3.304  15.174 -0.5846  0.5075 -0.4140
 8968TIP3   OH248318   5.765   4.474  13.607  0.0616 -0.2310  0.0284
 8968TIP3    H148319   5.713   4.421  13.547 -1.6964  1.7036 -0.2846
 8968TIP3    H248320   5.805   4.541  13.552  0.5145  0.0612  0.6925
 8969TIP3   OH248321   3.394   4.128  11.491  0.3725 -0.1082  0.4202
 8969TIP3    H148322   3.311   4.166  11.464 -0.0308  0.0092  1.7775
 8969TIP3    H248323   3.435   4.100  11.409 -0.2886  1.2540 -0.4090
 8970TIP3   OH248324   4.600   0.078   2.958 -0.4362  0.1085  0.8052
 8970TIP3    H148325   4.678   0.036   2.921 -0.0178  0.0935  1.6958
 8970TIP3    H248326   4.590   0.158   2.907 -1.4762 -1.1893 -1.2058
 8971TIP3   OH248327   5.373   3.261  16.042  0.3837  0.1770  0.5739
 8971TIP3    H148328   5.346   3.349  16.018  0.4839 -0.0204 -0.2778
 8971TIP3    H248329   5.389   3.216  15.959 -1.2266 -1.1350  0.9013
 8972TIP3   OH248330   5.143   6.717   4.729 -0.0596 -0.1409  0.4216
 8972TIP3    H148331   5.176   6.806   4.720 -1.6438  0.4045 -0.3681
 8972TIP3    H248332   5.151   6.698   4.822 -1.8462  1.7486  1.0347
 8973TIP3   OH248333   2.397   1.666   5.291 -0.0096  0.1301  0.2301
 8973TIP3    H148334   2.393   1.725   5.366 -1.2645  1.6267 -0.9591
 8973TIP3    H248335   2.408   1.579   5.329  2.9296  1.1638  2.0067
 8974TIP3   OH248336   3.106   4.501   2.813 -0.5116  0.1055  0.1165
 8974TIP3    H148337   3.121   4.572   2.751  0.3842  0.0813  0.2977
 8974TIP3    H248338   3.011   4.489   2.813 -0.5219  0.1243 -1.2123
 8975TIP3   OH248339   3.591   4.969  13.633  0.2836 -0.6043  0.2329
 8975TIP3    H148340   3.667   5.028  13.631 -0.6429  0.6259  0.2599
 8975TIP3    H248341   3.547   4.989  13.716  0.3602 -1.8774  0.5928
 8976TIP3   OH248342   4.782   6.566   1.271 -0.4016 -0.1226 -0.0049
 8976TIP3    H148343   4.738   6.627   1.212  0.1103  0.2364 -0.0217
 8976TIP3    H248344   4.756   6.594   1.359  1.3178  1.3293  0.0920
 8977TIP3   OH248345   5.706   4.503  15.411  0.8927 -0.4557 -0.1271
 8977TIP3    H148346   5.784   4.470  15.368  1.2465  0.7605 -0.4386
 8977TIP3    H248347   5.637   4.494  15.346  1.3236  0.9123 -0.8099
 8978TIP3   OH248348   1.900   3.494  17.120  0.3414 -0.3446 -0.8311
 8978TIP3    H148349   1.877   3.523  17.032 -1.6349 -1.2076 -0.6587
 8978TIP3    H248350   1.843   3.546  17.178  1.1468 -0.2550 -0.1021
 8979TIP3   OH248351   2.101   4.340   0.723 -0.0781  0.2199  0.0781
 8979TIP3    H148352   2.100   4.255   0.768 -0.2127  0.1638 -0.0303
 8979TIP3    H248353   2.187   4.344   0.682 -0.4137 -0.2843 -0.7091
 8980TIP3   OH248354   6.159   3.075  12.527 -0.2397  0.2721 -0.1813
 8980TIP3    H148355   6.196   3.153  12.568 -0.4375 -0.0681  0.6861
 8980TIP3    H248356   6.064   3.084  12.538 -0.3596  0.5766 -1.3436
 8981TIP3   OH248357   4.277   1.188  10.732  0.0151 -0.1872 -0.2025
 8981TIP3    H148358   4.281   1.184  10.828 -3.3553 -0.4559  0.0364
 8981TIP3    H248359   4.289   1.098  10.703  0.6279 -0.1681 -0.0184
 8982TIP3   OH248360   6.637   2.541   0.111  0.3021  0.1694  0.0300
 8982TIP3    H148361   6.596   2.627   0.101  0.7798  0.1427 -3.5154
 8982TIP3    H248362   6.568   2.486   0.147 -0.8326  1.4546 -0.0729
 8983TIP3   OH248363   5.340   4.671  11.252 -0.0456 -0.4698  0.6172
 8983TIP3    H148364   5.370   4.580  11.243 -0.6636 -0.6566  0.3883
 8983TIP3    H248365   5.281   4.684  11.178 -0.2521  0.0049  0.8625
 8984TIP3   OH248366   4.464   0.075  13.504  0.3300  0.1883 -0.0958
 8984TIP3    H148367   4.440  -0.011  13.538 -0.5063  0.8779  1.1473
 8984TIP3    H248368   4.559   0.074  13.500  0.3713 -0.4840  0.7975
 8985TIP3   OH248369   2.564   0.460  12.839  0.3616  0.2536  0.3773
 8985TIP3    H148370   2.576   0.515  12.761  0.7472  0.1135  0.3363
 8985TIP3    H248371   2.520   0.517  12.902 -0.9816  0.0416 -0.3302
 8986TIP3   OH248372   1.450   1.602  16.652  0.2460  0.0832 -0.6518
 8986TIP3    H148373   1.401   1.586  16.571  0.2570 -0.7805 -0.5016
 8986TIP3    H248374   1.419   1.687  16.682 -0.9142 -0.2857 -0.7488
 8987TIP3   OH248375   4.694   3.715  15.773 -0.5357  0.0335  0.3965
 8987TIP3    H148376   4.753   3.776  15.730  1.6754 -2.5264 -0.4852
 8987TIP3    H248377   4.637   3.770  15.826  0.8023  2.8569 -0.8864
 8988TIP3   OH248378   3.078   2.281   3.923  0.0896 -0.7159 -0.1250
 8988TIP3    H148379   2.991   2.244   3.903 -0.0057 -0.6099  0.0912
 8988TIP3    H248380   3.125   2.208   3.964  0.4029 -1.0379 -1.0410
 8989TIP3   OH248381   1.471   1.106   0.311 -0.4233  0.0535  0.6522
 8989TIP3    H148382   1.420   1.098   0.230 -0.2871  2.5292  0.2329
 8989TIP3    H248383   1.410   1.145   0.374  0.7677  2.7707  0.2291
 8990TIP3   OH248384   4.876   1.771   2.120 -0.7021  0.1552 -0.4279
 8990TIP3    H148385   4.870   1.727   2.035  2.9415  0.7230 -1.1506
 8990TIP3    H248386   4.905   1.702   2.180 -1.6363  0.1338  0.0208
 8991TIP3   OH248387   3.437   0.647  14.992 -0.1181  0.8517 -0.4142
 8991TIP3    H148388   3.456   0.624  15.082 -0.8152  0.8180 -0.2723
 8991TIP3    H248389   3.483   0.581  14.940  0.4144  0.9655 -0.0918
 8992TIP3   OH248390   0.734   4.202  11.191 -0.1544  0.4974  0.1818
 8992TIP3    H148391   0.652   4.190  11.144 -0.8039  0.1241  1.3825
 8992TIP3    H248392   0.786   4.124  11.170 -0.0700  0.7590 -0.6185
 8993TIP3   OH248393   0.023   2.348   1.007 -0.2601 -0.2626 -0.3327
 8993TIP3    H148394   0.038   2.279   0.943 -1.9064 -0.0088 -1.0599
 8993TIP3    H248395   0.034   2.305   1.092 -0.5802 -1.2601 -0.7850
 8994TIP3   OH248396   4.326   4.939   4.248  0.4592 -0.2833  0.1505
 8994TIP3    H148397   4.235   4.970   4.249  0.3040 -0.6722 -0.7941
 8994TIP3    H248398   4.362   4.968   4.331 -0.7729 -0.8118  0.9062
 8995TIP3   OH248399   1.155   3.674  14.584  0.2737 -0.0017 -0.4109
 8995TIP3    H148400   1.074   3.667  14.634 -1.1559  3.6198 -1.8704
 8995TIP3    H248401   1.221   3.699  14.648 -0.6959  0.8816  0.2878
 8996TIP3   OH248402   1.663   1.873  11.565  0.0749  0.4747  0.4376
 8996TIP3    H148403   1.747   1.900  11.600 -0.3647 -0.0643  1.9946
 8996TIP3    H248404   1.630   1.950  11.519  1.6696  0.4900 -0.7583
 8997TIP3   OH248405   4.656   0.955   4.329  1.2389 -0.3077  0.0965
 8997TIP3    H148406   4.620   0.867   4.345  1.2141 -0.0883  1.3749
 8997TIP3    H248407   4.584   1.004   4.291  0.6824 -0.3594  1.0423
 8998TIP3   OH248408   4.623   3.315  11.844  0.3617 -0.2640  0.2286
 8998TIP3    H148409   4.669   3.231  11.848 -0.2364 -0.5957  0.2785
 8998TIP3    H248410   4.608   3.339  11.935  0.0235 -0.3859  0.2045
 8999TIP3   OH248411   0.566   2.848   5.505  0.2636 -0.0838  0.0657
 8999TIP3    H148412   0.657   2.825   5.522  0.1451  0.2021  1.0973
 8999TIP3    H248413   0.558   2.844   5.409  2.0956  2.6533 -0.3072
 9000TIP3   OH248414   5.118   6.362   1.659  0.7791  0.0841 -0.0339
 9000TIP3    H148415   5.207   6.353   1.625  0.5117 -1.2539 -0.4617
 9000TIP3    H248416   5.073   6.418   1.595  0.7629 -0.9708 -0.9810
 9001TIP3   OH248417   3.001   2.273   3.379 -0.1529  0.0726 -0.0497
 9001TIP3    H148418   2.945   2.315   3.444  0.0460  0.3750 -0.0686
 9001TIP3    H248419   3.042   2.200   3.426  0.3875  0.6011  0.3135
 9002TIP3   OH248420   4.089   1.595  14.918 -0.2594  0.0405  0.0863
 9002TIP3    H148421   4.035   1.564  14.991 -0.6201  2.0210  0.7006
 9002TIP3    H248422   4.029   1.597  14.843 -0.3825 -0.1306  0.1781
 9003TIP3   OH248423   5.657   0.484  16.761  0.4324 -0.2240 -0.4614
 9003TIP3    H148424   5.587   0.507  16.822  0.2551 -0.4130 -0.5934
 9003TIP3    H248425   5.616   0.426  16.697  0.5223  0.2854 -0.9944
 9004TIP3   OH248426   0.225   2.375  15.029 -0.0301 -0.6174  0.1974
 9004TIP3    H148427   0.223   2.279  15.032 -3.6980 -0.6565  1.9525
 9004TIP3    H248428   0.201   2.396  14.939 -0.8535 -1.4099  0.2116
 9005TIP3   OH248429   5.310   1.084  15.628  0.1530  0.1285  0.5202
 9005TIP3    H148430   5.400   1.053  15.625 -0.5010 -1.8757 -1.6913
 9005TIP3    H248431   5.299   1.136  15.549 -0.4950  0.7983  1.0364
 9006TIP3   OH248432   0.326   5.834   2.692  0.2406 -0.1776 -0.0967
 9006TIP3    H148433   0.309   5.777   2.617  1.9526 -1.4148  0.3873
 9006TIP3    H248434   0.239   5.859   2.724 -0.5587 -1.9163 -0.7921
 9007TIP3   OH248435   0.635   5.716   3.472  0.1927  0.5507 -0.3842
 9007TIP3    H148436   0.587   5.713   3.554  0.5453  0.7221 -0.1675
 9007TIP3    H248437   0.672   5.628   3.463  2.5086  1.2760  1.0898
 9008TIP3   OH248438   6.716   3.270  14.442  0.2104  0.6720 -0.1416
 9008TIP3    H148439   6.703   3.361  14.414 -0.5569  0.8237  0.6496
 9008TIP3    H248440   6.759   3.228  14.368 -1.1338  1.2268 -1.2833
 9009TIP3   OH248441   5.905   6.503  12.031  0.0944  0.1993  0.2790
 9009TIP3    H148442   5.892   6.408  12.027  0.9287  0.0272  1.3072
 9009TIP3    H248443   5.821   6.537  12.062 -0.6022 -0.0624 -1.2072
 9010TIP3   OH248444   4.142   0.140  13.096 -0.2532 -0.6684  0.0027
 9010TIP3    H148445   4.061   0.144  13.147 -0.2808  0.8046 -0.1207
 9010TIP3    H248446   4.139   0.054  13.053 -1.9065 -0.5189 -0.2393
 9011TIP3   OH248447   2.730   2.536  10.684 -0.4680  0.3922  0.1669
 9011TIP3    H148448   2.767   2.448  10.688  0.1199  0.6078 -0.4337
 9011TIP3    H248449   2.637   2.523  10.703 -0.6135 -0.5005 -1.0651
 9012TIP3   OH248450   2.081   6.235  14.941  0.4462 -0.5041 -0.1936
 9012TIP3    H148451   2.061   6.232  15.035  1.5671  0.2166  0.0762
 9012TIP3    H248452   2.176   6.235  14.937  0.4045 -0.4250 -1.3406
 9013TIP3   OH248453   6.781   1.270   0.847  0.1069 -0.3626 -0.0024
 9013TIP3    H148454   6.821   1.331   0.910 -0.9750 -0.4837  0.8331
 9013TIP3    H248455   6.834   1.191   0.853 -0.8773 -0.9385  1.9480
 9014TIP3   OH248456   6.183   3.868   2.126  0.5046  0.0373  0.2859
 9014TIP3    H148457   6.199   3.779   2.158 -0.0441 -0.9930 -2.0646
 9014TIP3    H248458   6.109   3.899   2.177  1.1441 -0.5491  1.6323
 9015TIP3   OH248459   0.759   4.595  15.241  0.1445 -0.0705  0.0011
 9015TIP3    H148460   0.851   4.619  15.240 -0.0273  0.8168  1.5153
 9015TIP3    H248461   0.757   4.506  15.276  0.4358 -0.2064 -0.3252
 9016TIP3   OH248462   2.438   4.215  16.616 -0.2441  0.2155 -0.3222
 9016TIP3    H148463   2.420   4.122  16.629  0.1230  0.1203 -0.4637
 9016TIP3    H248464   2.353   4.254  16.597 -0.7610  0.2710  1.8264
 9017TIP3   OH248465   6.514   0.811  16.042  0.2334  0.1530 -0.1266
 9017TIP3    H148466   6.588   0.871  16.037  1.0219 -0.8067 -0.2809
 9017TIP3    H248467   6.542   0.735  15.991 -1.0763 -0.0033 -0.6477
 9018TIP3   OH248468   5.304   1.677   2.076 -0.4358 -0.0166  0.0572
 9018TIP3    H148469   5.258   1.751   2.115 -0.5578  0.1647 -0.4194
 9018TIP3    H248470   5.234   1.618   2.047 -0.3501 -1.3659  2.3298
 9019TIP3   OH248471   6.718   0.533   3.569  0.1069 -0.5223  0.1072
 9019TIP3    H148472   6.771   0.594   3.621  0.0365 -0.1421 -0.2623
 9019TIP3    H248473   6.628   0.561   3.584  0.1232  0.0019 -0.7308
 9020TIP3   OH248474   2.864   2.830   3.708  0.0208  0.5860  0.6666
 9020TIP3    H148475   2.795   2.765   3.723  0.6634 -0.5080 -0.8493
 9020TIP3    H248476   2.942   2.777   3.694  0.7441  1.7485  0.2890
 9021TIP3   OH248477   4.329   4.014  12.245  0.0699  0.2937  0.1109
 9021TIP3    H148478   4.295   4.022  12.156  0.5363 -3.3539 -0.5229
 9021TIP3    H248479   4.423   4.031  12.236 -0.1982  2.1952  0.4072
 9022TIP3   OH248480   0.020   1.858   5.505  0.9651  0.4849 -0.7366
 9022TIP3    H148481   0.010   1.922   5.434  2.0444  2.3414  0.7022
 9022TIP3    H248482   0.111   1.869   5.534  0.4720 -0.0650  1.0898
 9023TIP3   OH248483   4.334   5.625  11.900 -0.0607 -0.0277  0.3421
 9023TIP3    H148484   4.300   5.714  11.885  0.9771  0.4784  0.8493
 9023TIP3    H248485   4.428   5.638  11.916  0.0984 -1.2203  0.4577
 9024TIP3   OH248486   3.273   1.698  11.563 -0.2925  0.3843  0.1885
 9024TIP3    H148487   3.344   1.691  11.499 -0.5223 -0.0772 -0.0283
 9024TIP3    H248488   3.261   1.792  11.577  2.1167  0.4762  2.2310
 9025TIP3   OH248489   0.312   0.753  13.511 -0.5582  0.3711  0.2266
 9025TIP3    H148490   0.376   0.760  13.440  2.1243 -0.1153  2.4054
 9025TIP3    H248491   0.294   0.659  13.518 -1.9567  0.5454 -0.6723
 9026TIP3   OH248492   0.081   6.471   2.728  0.1792  0.0448 -0.7698
 9026TIP3    H148493   0.075   6.376   2.712  0.7117  0.0994 -1.3732
 9026TIP3    H248494   0.005   6.508   2.684  0.8229  0.0383 -1.9529
 9027TIP3   OH248495   4.899   1.107  14.593  0.0619 -0.8181  0.3392
 9027TIP3    H148496   4.939   1.156  14.521  1.0016  0.2269  1.5092
 9027TIP3    H248497   4.905   1.015  14.566  1.4497 -0.5413 -0.4217
 9028TIP3   OH248498   1.134   0.338  16.932 -0.3066  0.2104 -0.1817
 9028TIP3    H148499   1.039   0.329  16.935 -0.4832  1.6416 -0.8029
 9028TIP3    H248500   1.158   0.312  16.843 -0.1193 -0.0214 -0.0668
 9029TIP3   OH248501   1.969   6.227   1.292  0.0842 -0.0625 -0.1889
 9029TIP3    H148502   1.993   6.254   1.380 -0.2250 -0.8539  0.1465
 9029TIP3    H248503   2.052   6.224   1.244  0.4393 -1.0175  0.4662
 9030TIP3   OH248504   5.480   5.788   1.862  0.7924 -0.2914 -0.5033
 9030TIP3    H148505   5.430   5.851   1.810 -2.0947 -0.3821  1.9293
 9030TIP3    H248506   5.459   5.703   1.822 -1.1231 -0.3235  0.4390
 9031TIP3   OH248507   5.901   3.296  15.719 -0.3786  0.3857  0.4273
 9031TIP3    H148508   5.872   3.217  15.674 -0.5401 -0.0039  1.2161
 9031TIP3    H248509   5.980   3.323  15.671 -0.3690 -0.1974  0.1080
 9032TIP3   OH248510   4.020   0.784  14.320  0.5306  0.0032  0.4888
 9032TIP3    H148511   3.975   0.768  14.238  0.1775 -0.2002  0.7235
 9032TIP3    H248512   3.987   0.869  14.350  2.1438  1.0565 -0.5808
 9033TIP3   OH248513   3.319   0.645  14.208 -0.3294  0.3664 -0.2897
 9033TIP3    H148514   3.377   0.574  14.237 -0.8518  0.8490  2.0721
 9033TIP3    H248515   3.375   0.700  14.153  1.4488  0.7301  1.7719
 9034TIP3   OH248516   1.134   5.173  12.939 -0.1681  0.2798  0.7100
 9034TIP3    H148517   1.179   5.228  12.875 -0.5421 -0.4293 -0.1887
 9034TIP3    H248518   1.202   5.148  13.001  0.1308  1.2484  0.7949
 9035TIP3   OH248519   2.789   3.765  14.012 -0.0309  0.3841  0.0746
 9035TIP3    H148520   2.870   3.771  14.063  0.4215  0.0591 -0.5969
 9035TIP3    H248521   2.788   3.846  13.960 -0.7325  0.9424  0.9360
 9036TIP3   OH248522   2.197   1.073  17.038 -0.2929  0.5657  0.0517
 9036TIP3    H148523   2.147   1.146  17.076 -0.7462 -0.9727  2.6342
 9036TIP3    H248524   2.283   1.079  17.079 -0.2348 -0.1538  0.0467
 9037TIP3   OH248525   4.667   0.827  17.151 -0.6305 -0.7332 -0.0313
 9037TIP3    H148526   4.680   0.733  17.162  0.8599 -0.5346  0.0425
 9037TIP3    H248527   4.663   0.861  17.241  1.0515 -0.4662 -0.0239
 9038TIP3   OH248528   5.353   3.641   1.187 -0.2435 -0.1789 -0.7140
 9038TIP3    H148529   5.277   3.595   1.153 -1.2602  1.1501 -0.2957
 9038TIP3    H248530   5.322   3.730   1.206  0.9969 -0.0328  0.9138
 9039TIP3   OH248531   0.760   5.887   4.955 -0.0032 -0.1087  0.4117
 9039TIP3    H148532   0.685   5.878   4.897  0.0616  2.2967 -0.1505
 9039TIP3    H248533   0.836   5.869   4.899 -0.0740 -0.5574  0.4630
 9040TIP3   OH248534   2.717   3.659   4.251 -0.8618  0.2186  0.2522
 9040TIP3    H148535   2.718   3.629   4.161 -1.2049  0.0794  0.2917
 9040TIP3    H248536   2.771   3.738   4.251  0.5812 -0.7377  0.2779
 9041TIP3   OH248537   0.702   5.869  14.731  0.1198  0.1648 -0.0331
 9041TIP3    H148538   0.773   5.875  14.667 -0.8259  1.8572 -1.0185
 9041TIP3    H248539   0.647   5.946  14.712 -1.3735 -0.4940  1.4013
 9042TIP3   OH248540   4.617   1.144   3.691  0.9600  0.0297  0.0914
 9042TIP3    H148541   4.627   1.166   3.599  0.4485  0.7103  0.1978
 9042TIP3    H248542   4.556   1.070   3.692  0.0450  0.7768 -0.0387
 9043TIP3   OH248543   2.292   1.687   3.968 -0.0728 -0.9121  0.3363
 9043TIP3    H148544   2.203   1.719   3.977  0.6395  1.1881  0.5719
 9043TIP3    H248545   2.292   1.638   3.885 -1.1097  0.3108 -0.4226
 9044TIP3   OH248546   2.535   1.693  14.782 -0.4542  0.0308  0.0644
 9044TIP3    H148547   2.467   1.683  14.849  0.3859  1.1778  1.1704
 9044TIP3    H248548   2.530   1.786  14.757  1.6147  0.5459  1.2844
 9045TIP3   OH248549   5.026   4.847   3.014 -0.0480 -0.4181 -0.4353
 9045TIP3    H148550   4.948   4.817   2.967  0.0942 -0.6590 -0.5187
 9045TIP3    H248551   5.089   4.776   3.004 -0.6227 -1.2863  1.6721
 9046TIP3   OH248552   4.125   2.101  10.909  0.2992  0.3196  0.1525
 9046TIP3    H148553   4.071   2.031  10.945 -0.9189  0.6445 -0.9408
 9046TIP3    H248554   4.183   2.057  10.847  0.8245  0.0543  0.8231
 9047TIP3   OH248555   3.467   0.357  14.703 -0.4683  0.1994  0.2236
 9047TIP3    H148556   3.553   0.398  14.706 -0.2700 -0.2399  1.0711
 9047TIP3    H248557   3.454   0.322  14.792  0.5288 -3.9035 -1.0465
 9048TIP3   OH248558   6.589   5.413   3.048 -0.4013  0.3003  0.7345
 9048TIP3    H148559   6.652   5.348   3.016  1.5376  1.7314  1.4335
 9048TIP3    H248560   6.504   5.382   3.016  0.7861 -1.0602 -1.3594
 9049TIP3   OH248561   5.667   3.831  14.379  0.2302 -0.0927  0.0708
 9049TIP3    H148562   5.585   3.785  14.395  0.0886  0.6979  1.8809
 9049TIP3    H248563   5.669   3.900  14.446  1.4964  1.0849 -1.1121
 9050TIP3   OH248564   0.034   4.366   3.075  0.4536  0.4850 -0.5655
 9050TIP3    H148565  -0.033   4.400   3.134 -1.0754 -0.7582 -1.4949
 9050TIP3    H248566   0.107   4.427   3.084 -0.2979  1.1958  1.4312
 9051TIP3   OH248567   2.586   5.737  13.541 -0.1427 -0.0053  0.3885
 9051TIP3    H148568   2.612   5.645  13.539 -0.0504 -0.0103  1.3015
 9051TIP3    H248569   2.665   5.785  13.519 -0.1458 -0.1306  0.0915
 9052TIP3   OH248570   6.442   0.341  14.591 -0.1007  0.2562 -0.0012
 9052TIP3    H148571   6.510   0.327  14.525  0.4203  2.7349 -0.1014
 9052TIP3    H248572   6.360   0.341  14.542 -0.0797 -1.3617 -0.0855
 9053TIP3   OH248573   3.603   3.538  13.811  0.0715 -0.1351  0.4409
 9053TIP3    H148574   3.671   3.473  13.827 -0.5874 -0.5338  1.7787
 9053TIP3    H248575   3.621   3.608  13.874  0.2947  0.6138 -0.4327
 9054TIP3   OH248576   2.475   0.210  12.954 -1.1809  0.2608 -0.1629
 9054TIP3    H148577   2.521   0.280  12.907  0.2722 -0.2073  0.4807
 9054TIP3    H248578   2.427   0.163  12.886  1.2963 -0.7415 -1.3843
 9055TIP3   OH248579   4.195   1.854  16.841  0.3720 -0.2990  0.2369
 9055TIP3    H148580   4.116   1.855  16.787  1.0396  0.0091 -0.7437
 9055TIP3    H248581   4.163   1.829  16.928 -1.0607  1.5184  0.2832
 9056TIP3   OH248582   3.468   2.894  15.275  0.2992  0.2427  0.3531
 9056TIP3    H148583   3.507   2.821  15.227 -0.1560 -0.8360  1.5836
 9056TIP3    H248584   3.392   2.919  15.222 -0.4529 -1.2192  0.6992
 9057TIP3   OH248585   2.074   4.652   4.067 -0.2153  0.1176  0.5553
 9057TIP3    H148586   2.101   4.742   4.048  2.5180 -0.8761 -1.0006
 9057TIP3    H248587   2.050   4.653   4.159  0.6586  2.2618  0.8319
 9058TIP3   OH248588   1.873   5.234   4.702 -0.0690 -0.0978  0.5285
 9058TIP3    H148589   1.942   5.207   4.762  0.0117 -3.6508 -0.9253
 9058TIP3    H248590   1.891   5.326   4.684  3.6625 -0.5927  1.0371
 9059TIP3   OH248591   6.208   6.555   5.063  0.4503  0.3088  0.0155
 9059TIP3    H148592   6.218   6.649   5.077  0.2285  0.1576  1.3247
 9059TIP3    H248593   6.180   6.521   5.148  0.0414 -0.8723 -0.5668
 9060TIP3   OH248594   0.445   1.590  13.877 -0.1560 -0.5322 -0.2875
 9060TIP3    H148595   0.391   1.549  13.810 -0.3042 -0.6877 -0.0744
 9060TIP3    H248596   0.387   1.599  13.953 -0.4257  0.9675 -0.6249
 9061TIP3   OH248597   4.025   5.678  14.239  0.7598 -0.1755 -0.0027
 9061TIP3    H148598   4.077   5.699  14.317 -0.6431  2.5081  0.3282
 9061TIP3    H248599   3.956   5.620  14.270  1.6288 -1.1221  0.2091
 9062TIP3   OH248600   4.081   2.581  16.955 -0.4090 -0.2483 -0.4523
 9062TIP3    H148601   4.128   2.523  16.896 -1.1930  1.6578 -3.1205
 9062TIP3    H248602   4.128   2.665  16.950 -1.6590  0.5141  0.0804
 9063TIP3   OH248603   3.571   4.972   1.977  0.2924  0.6777 -0.3104
 9063TIP3    H148604   3.636   4.915   2.018 -1.2666 -0.1699  1.1288
 9063TIP3    H248605   3.536   5.024   2.050 -1.3457  0.3701 -0.8235
 9064TIP3   OH248606   3.634   0.327  14.107 -0.0247 -0.2048  0.2799
 9064TIP3    H148607   3.562   0.268  14.087 -1.9285  1.9720  0.3207
 9064TIP3    H248608   3.701   0.307  14.042 -0.1933 -2.9629  0.8624
 9065TIP3   OH248609   5.829   1.083   2.972 -0.8790 -1.0763 -0.1951
 9065TIP3    H148610   5.773   1.112   2.900  0.4832 -2.5117 -1.9559
 9065TIP3    H248611   5.918   1.091   2.937  0.0159  0.2879  2.1827
 9066TIP3   OH248612   5.564   2.229   0.639  0.2351 -0.2134  0.2094
 9066TIP3    H148613   5.542   2.265   0.725  1.4281  0.5950  0.2015
 9066TIP3    H248614   5.580   2.306   0.584  1.4925 -0.7314 -0.1867
 9067TIP3   OH248615   6.645   1.838  17.136 -0.0374 -0.0602 -0.1226
 9067TIP3    H148616   6.565   1.889  17.148 -0.0230  0.4027 -1.7466
 9067TIP3    H248617   6.688   1.878  17.060  1.2497 -0.9225  0.1088
 9068TIP3   OH248618   4.394   1.369   1.126  0.1301  0.5085 -0.2087
 9068TIP3    H148619   4.388   1.276   1.147 -0.1402  0.3133 -1.0991
 9068TIP3    H248620   4.338   1.379   1.049  2.2928  0.8781 -1.8011
 9069TIP3   OH248621   5.138   6.455  13.114 -0.0159 -0.0474 -0.7485
 9069TIP3    H148622   5.188   6.382  13.151 -0.1472 -0.4106 -1.2743
 9069TIP3    H248623   5.090   6.492  13.188  1.0811  0.3562 -0.2210
 9070TIP3   OH248624   2.225   2.274   3.288  0.2101  0.0338  0.0861
 9070TIP3    H148625   2.172   2.221   3.228  0.2069  0.9672 -0.7793
 9070TIP3    H248626   2.238   2.219   3.365  0.5538 -1.3628 -0.9324
 9071TIP3   OH248627   2.839   1.530  16.377 -0.2054  0.6026  0.4052
 9071TIP3    H148628   2.929   1.503  16.398  0.0047  0.1610 -0.9490
 9071TIP3    H248629   2.801   1.455  16.333 -1.6779  0.3389  2.0160
 9072TIP3   OH248630   4.205   1.417  13.760  0.2115 -0.2676 -0.1224
 9072TIP3    H148631   4.253   1.348  13.715  1.7399 -0.5631  1.8240
 9072TIP3    H248632   4.174   1.377  13.841  1.0088  1.2493  0.9943
 9073TIP3   OH248633   0.703   1.039  10.882  0.3166  0.2054 -0.0290
 9073TIP3    H148634   0.742   1.123  10.907 -0.9280  1.1559 -1.1530
 9073TIP3    H248635   0.692   1.045  10.787 -0.6735 -0.8445  0.0039
 9074TIP3   OH248636   5.972   0.055   0.232 -0.3078 -0.2320  0.3885
 9074TIP3    H148637   5.941   0.079   0.319 -0.6655 -0.9657  0.4662
 9074TIP3    H248638   6.011  -0.032   0.242  1.6949  0.5855  0.2700
 9075TIP3   OH248639   4.813   4.318  15.627 -0.4914  0.3480 -0.1846
 9075TIP3    H148640   4.903   4.294  15.604 -0.5373  2.3226 -3.0806
 9075TIP3    H248641   4.760   4.282  15.556 -1.6644  1.1048  0.2840
 9076TIP3   OH248642   0.121   0.495   4.028  0.7447 -0.5035 -0.5516
 9076TIP3    H148643   0.090   0.409   4.058  0.5552 -0.5904 -0.9912
 9076TIP3    H248644   0.061   0.557   4.070 -1.1527 -0.7414 -2.7082
 9077TIP3   OH248645   4.566   5.649   3.029  0.7899 -0.0467 -0.1542
 9077TIP3    H148646   4.502   5.719   3.040 -0.8160 -1.5232  0.5240
 9077TIP3    H248647   4.586   5.621   3.119  1.2282 -0.5936 -0.4165
 9078TIP3   OH248648   5.830   5.735  15.320 -0.4967 -0.5444  0.9033
 9078TIP3    H148649   5.886   5.799  15.364  0.6096 -1.0434  0.2737
 9078TIP3    H248650   5.743   5.775  15.320  0.3280  1.4529 -0.3540
 9079TIP3   OH248651   4.977   3.188   5.241 -0.0123  0.3478 -0.3414
 9079TIP3    H148652   5.002   3.188   5.333  1.8151  0.7204 -0.7937
 9079TIP3    H248653   4.882   3.200   5.242  0.1287  1.7630  1.4585
 9080TIP3   OH248654   2.479   2.201   2.649 -0.2508 -0.5091 -0.5540
 9080TIP3    H148655   2.510   2.111   2.661  0.2803 -0.7965 -3.2998
 9080TIP3    H248656   2.386   2.198   2.671 -0.3099 -1.8161 -0.8942
 9081TIP3   OH248657   2.568   0.116   5.150 -0.5316 -0.4156 -0.2546
 9081TIP3    H148658   2.495   0.069   5.190  0.2792 -0.3445  1.4025
 9081TIP3    H248659   2.636   0.116   5.217  0.2231  1.3908 -0.9642
 9082TIP3   OH248660   4.978   2.956   5.376  0.1520 -0.4779 -0.3512
 9082TIP3    H148661   4.904   2.910   5.336 -1.4984  1.8478 -0.1917
 9082TIP3    H248662   5.013   3.011   5.305  0.1236  0.2607  0.1885
 9083TIP3   OH248663   3.911   4.511   2.541  0.2244 -0.1943 -0.1855
 9083TIP3    H148664   3.945   4.428   2.508  2.2375  0.5117 -0.0780
 9083TIP3    H248665   3.865   4.489   2.622  1.1164 -1.1722  0.0741
 9084TIP3   OH248666   1.809   0.697   4.295 -0.7110  0.1435 -0.1296
 9084TIP3    H148667   1.888   0.686   4.348 -1.2392 -0.4861  0.5351
 9084TIP3    H248668   1.800   0.792   4.287 -1.9706  0.4172  3.0356
 9085TIP3   OH248669   2.762   0.132   0.911  0.4765 -0.0164 -0.3405
 9085TIP3    H148670   2.843   0.181   0.898  1.4225 -1.7378 -1.4174
 9085TIP3    H248671   2.786   0.061   0.971 -0.8887  0.8470  1.3285
 9086TIP3   OH248672   6.735   0.028   4.732 -0.1815 -0.1661 -0.7801
 9086TIP3    H148673   6.799   0.004   4.665  0.9903 -0.5513  0.4291
 9086TIP3    H248674   6.698   0.111   4.700  1.9667  0.8407 -0.8579
 9087TIP3   OH248675   3.616   1.350  13.736  0.3559 -0.3710 -0.3457
 9087TIP3    H148676   3.697   1.339  13.687  0.4379 -1.1814 -0.0424
 9087TIP3    H248677   3.547   1.347  13.669  0.5415 -0.1855 -0.5463
 9088TIP3   OH248678   0.443   1.120   3.940 -0.1243 -0.3197 -0.2462
 9088TIP3    H148679   0.355   1.133   3.974  0.4125  1.8139  0.4850
 9088TIP3    H248680   0.500   1.164   4.003  1.7952 -3.7010  0.6639
 9089TIP3   OH248681   2.543   0.902   4.417 -0.2107 -0.3801  0.0075
 9089TIP3    H148682   2.482   0.976   4.412 -1.1406 -1.1529 -0.5684
 9089TIP3    H248683   2.498   0.839   4.473  0.3475 -0.7200  0.0774
 9090TIP3   OH248684   2.192   4.269  14.094  0.0808 -0.0240  0.1277
 9090TIP3    H148685   2.155   4.202  14.037 -0.9076  0.3600  0.2927
 9090TIP3    H248686   2.220   4.221  14.172  0.9858 -0.4786 -0.4527
 9091TIP3   OH248687   4.525   2.566  16.964 -0.3787  0.4267 -0.3885
 9091TIP3    H148688   4.586   2.494  16.946 -1.5769 -0.9709  0.8396
 9091TIP3    H248689   4.438   2.528  16.951 -1.0349  1.9852 -0.7918
 9092TIP3   OH248690   4.000   2.887  10.342  0.2269  0.0371 -0.5245
 9092TIP3    H148691   3.991   2.793  10.359 -0.4236  0.0723 -0.6341
 9092TIP3    H248692   4.091   2.906  10.361  0.4667 -0.6991 -0.8669
 9093TIP3   OH248693   1.020   2.676  14.585 -0.1240  0.5842 -0.4413
 9093TIP3    H148694   0.989   2.598  14.539  0.6064  0.4706 -0.7599
 9093TIP3    H248695   1.020   2.651  14.677  2.9809 -0.9242 -0.6878
 9094TIP3   OH248696   0.430   0.836  10.956  1.0877  0.0896 -0.3933
 9094TIP3    H148697   0.353   0.784  10.977  1.9824 -1.3642 -0.5673
 9094TIP3    H248698   0.395   0.914  10.912 -0.2927 -0.2857 -0.0179
 9095TIP3   OH248699   5.929   2.117  17.168  0.4414 -0.2904 -0.3527
 9095TIP3    H148700   5.914   2.092  17.259  1.6627 -2.3999 -0.6526
 9095TIP3    H248701   5.877   2.196  17.155 -1.1040 -0.8964  1.6828
 9096TIP3   OH248702   2.410   4.348  15.199  0.5893  0.3203  0.3488
 9096TIP3    H148703   2.383   4.258  15.180 -0.5027  0.6092  0.4865
 9096TIP3    H248704   2.368   4.400  15.131 -0.4588  0.9490  1.4376
 9097TIP3   OH248705   0.384   0.486   2.754  0.0510 -0.1358  0.4131
 9097TIP3    H148706   0.380   0.391   2.764 -0.0491 -0.1061  0.6453
 9097TIP3    H248707   0.361   0.521   2.840 -1.2635  0.1271 -0.0304
 9098TIP3   OH248708   0.934   0.487   5.926 -0.1048  0.2318 -0.5231
 9098TIP3    H148709   0.964   0.505   6.014  0.0960  2.7273 -1.0255
 9098TIP3    H248710   0.984   0.410   5.898 -0.6623 -1.0293  1.7045
 9099TIP3   OH248711   2.912   1.872   1.084 -0.6353  0.3473  0.3962
 9099TIP3    H148712   2.947   1.814   1.151 -0.3053  1.2874  1.0667
 9099TIP3    H248713   2.827   1.900   1.117 -0.6481  0.5074  0.2339
 9100TIP3   OH248714   1.638   2.889  13.869  0.2565 -0.4232  0.5413
 9100TIP3    H148715   1.619   2.848  13.784 -0.1624  1.2589 -0.2244
 9100TIP3    H248716   1.719   2.847  13.898 -1.5775 -3.8507  1.2484
 9101TIP3   OH248717   1.587   4.678   5.071 -0.6697 -0.2768 -0.6106
 9101TIP3    H148718   1.500   4.715   5.058 -1.0263 -1.0909 -0.6126
 9101TIP3    H248719   1.645   4.735   5.020 -1.0505  0.8635  0.1924
 9102TIP3   OH248720   4.576   5.628   2.634 -0.1645  0.0851 -0.0065
 9102TIP3    H148721   4.480   5.631   2.640 -0.0818 -0.4961  2.7445
 9102TIP3    H248722   4.600   5.542   2.668  1.3423  0.0215 -1.1353
 9103TIP3   OH248723   0.914   4.632   2.756 -0.0605 -1.0708  0.1191
 9103TIP3    H148724   0.847   4.624   2.824 -0.6307  2.6522  0.2084
 9103TIP3    H248725   0.874   4.686   2.689  1.9741 -0.9843 -1.1058
 9104TIP3   OH248726   1.951   3.850   2.841 -0.3640  0.0500 -0.2458
 9104TIP3    H148727   2.022   3.882   2.785 -1.3208  1.8126 -0.5087
 9104TIP3    H248728   1.991   3.843   2.928 -0.3337  3.3082  0.1434
 9105TIP3   OH248729   3.139   1.406   4.128  0.3209  0.2666  0.1619
 9105TIP3    H148730   3.084   1.382   4.202  1.5662 -0.0249  1.0229
 9105TIP3    H248731   3.099   1.487   4.094  0.8495  1.5681  2.4241
 9106TIP3   OH248732   1.011   0.921   3.631 -0.7290  0.3552  0.5661
 9106TIP3    H148733   1.054   1.005   3.646  0.4385 -0.0006 -0.6010
 9106TIP3    H248734   1.076   0.855   3.658 -0.3135 -0.1986 -1.6298
 9107TIP3   OH248735   3.079   5.820  12.453  0.3446 -0.4868 -0.1131
 9107TIP3    H148736   3.131   5.803  12.532 -0.3670 -3.7290 -0.1978
 9107TIP3    H248737   3.143   5.823  12.382  0.7992  0.3479  0.3173
 9108TIP3   OH248738   5.250   1.108  11.830  0.0478  0.3739 -0.0359
 9108TIP3    H148739   5.305   1.039  11.792 -1.0281 -0.3612 -0.3364
 9108TIP3    H248740   5.173   1.112  11.773  0.2111  2.0457 -0.1819
 9109TIP3   OH248741   1.637   0.968  16.351  0.3247  0.1216  0.2371
 9109TIP3    H148742   1.730   0.991  16.346  0.3345  0.0144 -0.0764
 9109TIP3    H248743   1.621   0.955  16.445 -0.7694  5.8546  1.2178
 9110TIP3   OH248744   1.314   0.113   2.002 -0.6413  0.0930  0.0518
 9110TIP3    H148745   1.226   0.078   2.021 -0.8648  1.1789  1.1326
 9110TIP3    H248746   1.309   0.205   2.028  0.7029  0.2782 -0.2948
 9111TIP3   OH248747   6.640   6.552   2.978  0.0090 -0.4120  0.2170
 9111TIP3    H148748   6.570   6.491   3.001 -1.0447  0.8115  0.3751
 9111TIP3    H248749   6.659   6.533   2.886 -0.3954 -0.9100  0.2342
 9112TIP3   OH248750   3.580   4.265  14.530  0.4123  0.1194  0.5062
 9112TIP3    H148751   3.486   4.278  14.518  0.4814 -0.8228 -1.4855
 9112TIP3    H248752   3.600   4.188  14.477  2.1589 -0.2780  1.6767
 9113TIP3   OH248753   2.135   2.967  16.987 -0.2206  0.7383  0.1106
 9113TIP3    H148754   2.087   3.028  16.931 -0.1429 -1.3373 -2.4038
 9113TIP3    H248755   2.068   2.912  17.026 -0.1464  0.9210  0.5007
 9114TIP3   OH248756   1.087   3.960   3.807 -0.5823  0.6524  0.0880
 9114TIP3    H148757   1.121   3.896   3.744  0.4319  0.4142  0.8557
 9114TIP3    H248758   1.081   4.041   3.757 -1.3107  0.1198 -0.7363
 9115TIP3   OH248759   5.449   4.241   2.890 -0.3183  0.2918 -0.0366
 9115TIP3    H148760   5.467   4.332   2.911  0.0732  0.2114 -0.0232
 9115TIP3    H248761   5.526   4.193   2.920 -1.9844 -0.5566  3.4126
 9116TIP3   OH248762   4.262   1.346  16.871  0.1782  0.0524  0.2418
 9116TIP3    H148763   4.246   1.252  16.885 -1.4039  0.1987 -0.3939
 9116TIP3    H248764   4.258   1.384  16.958 -2.0784 -0.0975  0.2571
 9117TIP3   OH248765   4.343   0.176   3.540  0.5347 -0.0891  1.0416
 9117TIP3    H148766   4.364   0.104   3.481  0.6030  0.0181  0.9342
 9117TIP3    H248767   4.313   0.247   3.482 -2.1277 -0.9097  1.3191
 9118TIP3   OH248768   4.129   6.542  15.533 -0.0973 -0.2325  0.3227
 9118TIP3    H148769   4.094   6.631  15.541  1.3363  0.1989  2.8252
 9118TIP3    H248770   4.157   6.519  15.622  0.1013 -2.9968 -0.3627
 9119TIP3   OH248771   0.018   1.600  16.600 -0.2268 -0.6526  0.4400
 9119TIP3    H148772   0.012   1.681  16.652 -0.3172 -1.0027  0.9859
 9119TIP3    H248773  -0.043   1.613  16.528 -1.7613 -1.0120  1.6131
 9120TIP3   OH248774   3.598   1.244   3.709 -0.0601  0.0688  0.3769
 9120TIP3    H148775   3.534   1.256   3.780 -0.5018 -0.2603  0.0390
 9120TIP3    H248776   3.681   1.274   3.746 -0.3223  0.0598  0.9780
 9121TIP3   OH248777   5.925   1.247  13.531  0.2781  0.1351  0.3702
 9121TIP3    H148778   5.944   1.333  13.494 -0.9278  0.4604  0.4443
 9121TIP3    H248779   6.009   1.214  13.561  1.2009  0.1296 -2.0615
 9122TIP3   OH248780   6.528   2.280   3.532 -0.1692  0.3297 -0.4531
 9122TIP3    H148781   6.501   2.310   3.619 -0.5116 -1.6907  0.1981
 9122TIP3    H248782   6.515   2.356   3.475  0.2889  1.7770  1.2823
 9123TIP3   OH248783   2.277   1.222  11.572 -0.0104  0.6511 -0.2549
 9123TIP3    H148784   2.272   1.132  11.539  1.1587 -0.4187  2.1819
 9123TIP3    H248785   2.218   1.272  11.516 -1.4366 -1.8113 -1.1052
 9124TIP3   OH248786   2.247   4.249  11.935 -0.7838  0.4414  0.0341
 9124TIP3    H148787   2.240   4.314  11.866  3.1212  1.2822  0.1698
 9124TIP3    H248788   2.217   4.294  12.014 -0.8910  1.0574 -0.3528
 9125TIP3   OH248789   3.922   0.400   1.766 -0.4359  0.0420 -0.0141
 9125TIP3    H148790   4.000   0.380   1.714 -0.0786  0.4313  0.3597
 9125TIP3    H248791   3.893   0.485   1.732 -0.2982  0.2177  0.3014
 9126TIP3   OH248792   3.738   5.111   3.232  0.1888 -0.8702  0.2406
 9126TIP3    H148793   3.834   5.109   3.234  0.1759 -2.4113  0.7765
 9126TIP3    H248794   3.712   5.051   3.301 -1.1559 -1.3812 -0.6867
 9127TIP3   OH248795   5.604   5.679  16.719  0.6977  0.0320 -0.1987
 9127TIP3    H148796   5.669   5.669  16.789 -0.2775  0.7973  0.8687
 9127TIP3    H248797   5.555   5.597  16.720 -0.3467  0.6184  1.1692
 9128TIP3   OH248798   3.803   4.888   0.459 -0.2723  0.1291  0.5484
 9128TIP3    H148799   3.849   4.925   0.383 -0.1041 -0.5447  0.3164
 9128TIP3    H248800   3.763   4.964   0.502 -0.5669  0.4903 -0.3404
 9129TIP3   OH248801   6.529   5.901   3.357  0.1925 -0.3910 -0.0016
 9129TIP3    H148802   6.588   5.850   3.412 -0.4650  0.0058  1.1098
 9129TIP3    H248803   6.444   5.856   3.364 -0.2024  0.3837  0.3679
 9130TIP3   OH248804   4.224   6.046   5.913 -0.2697  0.0799 -0.7013
 9130TIP3    H148805   4.184   6.079   5.994 -0.3534  0.1595 -0.7741
 9130TIP3    H248806   4.193   5.956   5.906  0.4088 -0.2042 -0.2053
 9131TIP3   OH248807   3.136   2.037  12.326  0.4202 -0.6807 -0.0416
 9131TIP3    H148808   3.183   1.992  12.396  0.6490  1.7906  1.5236
 9131TIP3    H248809   3.108   2.120  12.365 -2.9305 -0.8465 -1.7096
 9132TIP3   OH248810   0.804   0.936  13.635  0.1888 -0.2868  0.4809
 9132TIP3    H148811   0.784   1.016  13.587 -0.3867  0.1058  1.3652
 9132TIP3    H248812   0.858   0.885  13.574  1.9143  1.4345  0.4508
 9133TIP3   OH248813   1.488   3.828  12.751 -0.1226 -0.1391 -0.0600
 9133TIP3    H148814   1.561   3.795  12.699 -0.0330  1.7663 -1.2229
 9133TIP3    H248815   1.410   3.803  12.701 -0.1031  0.4498 -0.3950
 9134TIP3   OH248816   6.084   5.567  16.098  0.7363 -0.2001  0.1785
 9134TIP3    H148817   6.028   5.604  16.167 -0.1926  0.1010 -0.7163
 9134TIP3    H248818   6.067   5.473  16.102 -1.3201  0.0402 -1.2970
 9135TIP3   OH248819   4.150   6.462   1.321  0.1764 -0.5976 -0.4869
 9135TIP3    H148820   4.087   6.484   1.253 -0.7311  1.1440  0.8461
 9135TIP3    H248821   4.232   6.502   1.292 -0.4534  1.0263 -0.1061
 9136TIP3   OH248822   5.918   3.912  15.337 -0.4012  0.0618 -0.2210
 9136TIP3    H148823   6.000   3.864  15.347  0.7347  2.1236  1.2834
 9136TIP3    H248824   5.870   3.897  15.418 -0.2045  1.0795  0.1048
 9137TIP3   OH248825   6.713   0.175   0.169  0.2578  0.8946 -0.6654
 9137TIP3    H148826   6.750   0.138   0.089  1.7007  0.2710  0.2601
 9137TIP3    H248827   6.696   0.267   0.147  1.2708  0.9087 -1.4804
 9138TIP3   OH248828   2.489   2.549  17.121  0.0919  0.6642  0.1552
 9138TIP3    H148829   2.452   2.485  17.182  0.4742 -0.5978 -0.8772
 9138TIP3    H248830   2.426   2.621  17.122 -1.9999 -1.0054 -0.8665
 9139TIP3   OH248831   0.342   0.434  12.194  0.1048  0.0407  0.0543
 9139TIP3    H148832   0.345   0.362  12.257  1.8891 -1.9183 -2.0564
 9139TIP3    H248833   0.253   0.431  12.158 -0.0295 -0.7038  0.4302
 9140TIP3   OH248834   0.582   0.168  15.109 -0.3159 -0.1931 -0.5198
 9140TIP3    H148835   0.523   0.143  15.181  0.4609  0.8819  0.5306
 9140TIP3    H248836   0.629   0.244  15.143  2.1004 -1.3476 -1.1066
 9141TIP3   OH248837   1.335   6.526  15.297  0.0174 -0.3866  0.4886
 9141TIP3    H148838   1.367   6.608  15.260  0.7439 -0.0553  1.8059
 9141TIP3    H248839   1.277   6.490  15.229  1.2431  0.2219 -0.9171
 9142TIP3   OH248840   0.644   4.107   0.093 -0.3325  0.2763 -0.1457
 9142TIP3    H148841   0.661   4.162   0.017  0.6109 -0.2593 -0.3496
 9142TIP3    H248842   0.723   4.116   0.147 -1.0772  0.8060  0.8704
 9143TIP3   OH248843   4.868   3.469  13.317 -0.4237  0.2843 -0.1666
 9143TIP3    H148844   4.926   3.427  13.253  1.8366  0.8470  1.3864
 9143TIP3    H248845   4.786   3.420  13.311  0.3172 -0.8356 -2.1743
 9144TIP3   OH248846   5.903   3.701  14.381 -0.1826  0.3055 -0.3025
 9144TIP3    H148847   5.812   3.729  14.379 -0.4955 -0.2998  2.0965
 9144TIP3    H248848   5.907   3.628  14.319 -1.7492 -0.6901  0.6922
 9145TIP3   OH248849   0.834   1.383   3.823  0.0058  0.1133 -0.1030
 9145TIP3    H148850   0.794   1.470   3.827  1.3169  0.7163  0.0810
 9145TIP3    H248851   0.861   1.373   3.732  1.4428  0.6365  0.2490
 9146TIP3   OH248852   1.599   5.286   3.109 -0.6129 -0.6863  0.1433
 9146TIP3    H148853   1.670   5.329   3.062  0.5972 -1.6500  1.0340
 9146TIP3    H248854   1.547   5.245   3.040 -0.0245 -0.3806 -0.4984
 9147TIP3   OH248855   0.392   3.483   5.598 -0.0627 -0.1502 -0.2014
 9147TIP3    H148856   0.357   3.511   5.683  1.1416  2.0601 -0.3781
 9147TIP3    H248857   0.317   3.446   5.552 -2.0696  3.5109 -0.2206
 9148TIP3   OH248858   1.066   5.666   2.348 -0.0394  0.0153 -0.3079
 9148TIP3    H148859   1.064   5.664   2.252 -0.1574 -0.2949 -0.3012
 9148TIP3    H248860   1.115   5.745   2.370  1.3692 -0.7325 -0.6398
 9149TIP3   OH248861   1.460   2.429  14.678 -0.9161 -0.1483 -0.8736
 9149TIP3    H148862   1.386   2.392  14.630 -0.5284  1.7838 -3.1226
 9149TIP3    H248863   1.512   2.473  14.611  0.7398  1.0243  1.0846
 9150TIP3   OH248864   0.847   1.211  15.452  0.2237 -0.1361  0.2938
 9150TIP3    H148865   0.756   1.233  15.432  0.6595 -0.7997 -2.9196
 9150TIP3    H248866   0.845   1.118  15.474  0.2172 -0.3975 -0.7656
 9151TIP3   OH248867   3.592   3.718  16.207 -0.1275  0.2850  0.3593
 9151TIP3    H148868   3.615   3.642  16.153  0.2384  0.6073  0.0554
 9151TIP3    H248869   3.556   3.680  16.287  1.9897 -0.2819  1.1020
 9152TIP3   OH248870   1.490   6.222  11.746  0.1979 -0.1677 -0.3121
 9152TIP3    H148871   1.456   6.296  11.696  0.1519 -0.1318 -0.2277
 9152TIP3    H248872   1.533   6.167  11.681  0.3297 -0.0107 -0.3595
 9153TIP3   OH248873   2.298   0.286   4.687  0.3108 -0.4932  0.2227
 9153TIP3    H148874   2.324   0.229   4.614  0.4461  0.7712 -0.7441
 9153TIP3    H248875   2.357   0.262   4.758 -0.4397 -2.4120  0.2503
 9154TIP3   OH248876   2.294   4.030  13.563  0.3605  0.1083  0.2747
 9154TIP3    H148877   2.199   4.023  13.551  0.4536 -1.6695  0.3043
 9154TIP3    H248878   2.318   3.948  13.608  1.9984  0.2164 -0.3636
 9155TIP3   OH248879   2.073   6.359   2.686  0.3428  0.1504 -0.3822
 9155TIP3    H148880   2.099   6.380   2.776  1.3703 -0.1889 -0.5848
 9155TIP3    H248881   2.111   6.273   2.670  0.5787  0.4151 -1.3028
 9156TIP3   OH248882   1.085   5.254  11.927  0.0694 -0.0039  0.2476
 9156TIP3    H148883   1.153   5.283  11.987 -1.3595 -0.0206  1.9481
 9156TIP3    H248884   1.038   5.334  11.904  1.0263  0.1174 -1.4898
 9157TIP3   OH248885   6.314   0.612   4.876 -0.4159 -0.0201  0.2698
 9157TIP3    H148886   6.405   0.594   4.852 -0.6443 -0.2674 -0.4461
 9157TIP3    H248887   6.262   0.565   4.810 -1.0617  0.0827  0.6972
 9158TIP3   OH248888   1.343   2.446  10.491  0.6013  0.2633 -0.7910
 9158TIP3    H148889   1.404   2.395  10.544 -1.4722 -0.8830  0.5866
 9158TIP3    H248890   1.356   2.536  10.520  1.4743  0.0159 -0.3742
 9159TIP3   OH248891   0.992   4.925  15.474  0.2089  0.1218 -0.1092
 9159TIP3    H148892   1.039   4.882  15.545  0.1677 -0.3370 -0.3588
 9159TIP3    H248893   1.044   4.909  15.396 -0.0455  0.1287 -0.2825
 9160TIP3   OH248894   0.630   1.700   1.645 -0.4774  0.0057  0.2530
 9160TIP3    H148895   0.534   1.707   1.650 -0.5217  0.5907 -0.9596
 9160TIP3    H248896   0.662   1.777   1.690 -0.4912 -1.1662  2.3962
 9161TIP3   OH248897   0.996   2.097  12.395  0.3682  0.3414 -0.1985
 9161TIP3    H148898   1.090   2.086  12.405  0.4263  0.1325 -0.9329
 9161TIP3    H248899   0.986   2.175  12.341  0.0426  1.7660  1.8006
 9162TIP3   OH248900   2.021   4.332  10.756 -0.1788  0.1105 -0.0117
 9162TIP3    H148901   1.958   4.282  10.704  1.3975 -1.1371 -0.7976
 9162TIP3    H248902   1.967   4.391  10.809 -1.9355 -0.0160 -1.5691
 9163TIP3   OH248903   1.804   3.171  13.405 -0.5048 -0.7964 -0.0568
 9163TIP3    H148904   1.714   3.156  13.435 -0.5460  1.2891  1.0919
 9163TIP3    H248905   1.858   3.116  13.463 -0.8563  0.4620  1.5500
 9164TIP3   OH248906   4.950   1.200   4.719  0.4357  0.1335  0.4044
 9164TIP3    H148907   4.959   1.279   4.666 -1.1542  0.2319  0.2384
 9164TIP3    H248908   4.873   1.156   4.684  1.2772 -1.4968  0.5037
 9165TIP3   OH248909   5.559   0.538  12.239  0.7213  0.5302 -0.1019
 9165TIP3    H148910   5.501   0.580  12.302  0.7292 -0.3262  0.5023
 9165TIP3    H248911   5.562   0.598  12.164  0.5102  1.4367  0.6041
 9166TIP3   OH248912   0.262   3.498   2.266  0.2893  0.4464 -0.4297
 9166TIP3    H148913   0.213   3.526   2.189 -1.6590 -1.6464 -0.0712
 9166TIP3    H248914   0.301   3.578   2.301  1.1237  1.4933 -3.4436
 9167TIP3   OH248915   6.273   5.648  14.572  0.2165  0.2042  0.3499
 9167TIP3    H148916   6.303   5.739  14.569 -0.2555  0.3348 -0.5979
 9167TIP3    H248917   6.352   5.596  14.555  0.3607  0.4549  0.2448
 9168TIP3   OH248918   0.543   4.943  14.371 -0.2041  0.8109  0.1469
 9168TIP3    H148919   0.470   4.984  14.416  1.3226  2.3199  1.3831
 9168TIP3    H248920   0.541   4.852  14.401 -0.8756  1.1181  1.0799
 9169TIP3   OH248921   4.907   2.152  17.130  0.3687  0.3322  0.3707
 9169TIP3    H148922   4.878   2.080  17.185  2.5495 -0.3671  0.7110
 9169TIP3    H248923   4.969   2.201  17.184  1.5549  0.4123 -0.9955
 9170TIP3   OH248924   0.185   1.337  15.445  0.3508  0.3356 -0.2044
 9170TIP3    H148925   0.261   1.394  15.432  1.9959 -2.0103 -1.8092
 9170TIP3    H248926   0.186   1.279  15.369 -2.8444 -0.0942 -0.0379
 9171TIP3   OH248927   1.875   0.842   5.324 -0.2029 -0.0864  0.4908
 9171TIP3    H148928   1.957   0.811   5.362  0.3264  1.4539  0.6842
 9171TIP3    H248929   1.839   0.901   5.390 -2.3259 -1.9407  1.1297
 9172TIP3   OH248930   3.321   0.379  16.528 -0.4435 -0.2177 -0.3370
 9172TIP3    H148931   3.320   0.380  16.432  1.2398  1.3272 -0.3914
 9172TIP3    H248932   3.276   0.460  16.553  2.4233  1.3927  0.0072
 9173TIP3   OH248933   2.607   5.050   3.301 -0.1935  0.4571 -0.1544
 9173TIP3    H148934   2.548   5.119   3.330  0.2295  0.7178  0.0922
 9173TIP3    H248935   2.557   4.969   3.315 -0.2972  0.6357  0.5467
 9174TIP3   OH248936   4.015   6.199  15.207 -0.3678  0.3099  0.3242
 9174TIP3    H148937   3.975   6.153  15.281 -1.3568 -0.6869 -0.7895
 9174TIP3    H248938   4.080   6.257  15.248  0.9391 -2.0262  1.8184
 9175TIP3   OH248939   3.827   6.540   2.289 -0.5999  0.0805 -1.2055
 9175TIP3    H148940   3.861   6.612   2.342 -1.3292  0.1445 -0.8175
 9175TIP3    H248941   3.733   6.558   2.282 -1.1944 -1.9522  0.7007
 9176TIP3   OH248942   6.497   2.462   6.130 -0.0316 -0.3102 -0.3892
 9176TIP3    H148943   6.588   2.489   6.148 -0.7052  2.7861 -1.0957
 9176TIP3    H248944   6.445   2.511   6.192 -1.3206 -1.8304 -0.1980
 9177TIP3   OH248945   2.571   1.903  16.919 -0.3322  0.2395 -0.2215
 9177TIP3    H148946   2.644   1.942  16.870 -0.3625  0.5279 -0.0370
 9177TIP3    H248947   2.493   1.948  16.886 -0.4185 -0.0070 -0.3544
 9178TIP3   OH248948   1.460   2.679   2.979  0.5948 -0.3203 -0.7808
 9178TIP3    H148949   1.525   2.682   3.049  0.2174  1.5789 -0.4539
 9178TIP3    H248950   1.395   2.616   3.010  0.8678 -0.1496  0.1831
 9179TIP3   OH248951   3.916   5.996   1.452  0.1601  0.1980 -0.5516
 9179TIP3    H148952   3.824   5.972   1.443  0.8914 -2.4675 -1.7628
 9179TIP3    H248953   3.920   6.088   1.424 -1.8704 -0.1407 -2.1141
 9180TIP3   OH248954   5.517   2.649   0.163 -0.3225 -0.5934 -0.0057
 9180TIP3    H148955   5.527   2.589   0.237  1.7583 -1.1201 -0.6274
 9180TIP3    H248956   5.480   2.595   0.094 -1.0382 -0.4337  0.2439
 9181TIP3   OH248957   3.424   0.551   1.542 -0.0259 -0.0930  0.3662
 9181TIP3    H148958   3.481   0.475   1.535  0.4571  0.2165  0.8995
 9181TIP3    H248959   3.383   0.543   1.628  0.9241  0.8658  0.9158
 9182TIP3   OH248960   0.728   3.426   3.444 -0.2425 -0.5063  0.0863
 9182TIP3    H148961   0.758   3.388   3.361  1.1916 -0.6146  0.6242
 9182TIP3    H248962   0.796   3.402   3.507 -0.2971  1.2954  0.8728
 9183TIP3   OH248963   1.642   2.532   5.865 -0.2945  0.2190  0.0047
 9183TIP3    H148964   1.574   2.600   5.869 -0.8013 -0.0329 -2.4001
 9183TIP3    H248965   1.724   2.580   5.879 -0.8395  0.7125  1.8149
 9184TIP3   OH248966   6.713   2.596  11.655 -0.6086 -0.9997  0.0987
 9184TIP3    H148967   6.620   2.618  11.650 -0.5105 -0.2088  1.2384
 9184TIP3    H248968   6.753   2.672  11.698  0.6698 -1.0560 -0.9433
 9185TIP3   OH248969   0.926   5.871  16.769 -0.2725 -0.4870 -0.1880
 9185TIP3    H148970   0.950   5.939  16.706 -0.1320  0.0648  0.4513
 9185TIP3    H248971   0.832   5.856  16.753 -0.1162 -0.7639 -0.9063
 9186TIP3   OH248972   2.754   0.627   2.041 -0.0370  0.8325  0.6534
 9186TIP3    H148973   2.812   0.578   1.982 -0.4498  1.7185 -0.5290
 9186TIP3    H248974   2.772   0.591   2.128 -0.2489 -1.3416 -0.1372
 9187TIP3   OH248975   6.667   3.579  10.525  0.7578 -0.3358 -0.3751
 9187TIP3    H148976   6.694   3.624  10.605 -1.1788 -1.6813  1.1334
 9187TIP3    H248977   6.625   3.647  10.472 -1.0430 -0.0394  1.3273
 9188TIP3   OH248978   5.905   0.972  16.242  0.2366 -0.0012  0.4978
 9188TIP3    H148979   5.923   1.033  16.314 -0.4466  1.0120 -0.1571
 9188TIP3    H248980   5.818   0.997  16.210 -0.5133 -1.9856  0.8423
 9189TIP3   OH248981   2.125   4.708   5.409  0.5620 -0.4971  0.3874
 9189TIP3    H148982   2.145   4.745   5.494  1.8174 -2.2040  0.9063
 9189TIP3    H248983   2.100   4.617   5.428 -0.0753 -0.6306 -0.9789
 9190TIP3   OH248984   4.179   6.015  10.541 -0.1336 -0.4107  0.9802
 9190TIP3    H148985   4.224   6.084  10.590 -2.3282  0.7407  1.5083
 9190TIP3    H248986   4.100   6.058  10.506  0.0930 -1.8280 -1.5050
 9191TIP3   OH248987   3.261   2.153  13.452  0.1511  0.5050  0.5377
 9191TIP3    H148988   3.270   2.238  13.409 -3.1965  0.5841 -0.3266
 9191TIP3    H248989   3.222   2.096  13.385 -1.5048 -0.5016  2.2630
 9192TIP3   OH248990   3.532   6.293   5.657 -0.8332  0.4040 -0.1362
 9192TIP3    H148991   3.466   6.238   5.615  0.8779 -1.9630  0.0437
 9192TIP3    H248992   3.488   6.377   5.673 -3.5590 -0.8495 -0.5439
 9193TIP3   OH248993   6.326   2.032  13.387 -0.1225  0.6848  0.3606
 9193TIP3    H148994   6.392   1.997  13.447 -0.1688 -2.4937 -1.2428
 9193TIP3    H248995   6.252   2.054  13.444  1.1555  1.3525  1.8391
 9194TIP3   OH248996   5.394   4.436  15.406 -0.2336  0.0379 -0.1053
 9194TIP3    H148997   5.304   4.423  15.437 -0.8860 -0.5661 -2.1124
 9194TIP3    H248998   5.408   4.365  15.343  2.0833 -0.5668  0.9659
 9195TIP3   OH248999   0.948   2.464   2.590 -0.8511  0.1764  0.0093
 9195TIP3    H149000   0.895   2.541   2.572 -2.0788 -0.7442 -0.5014
 9195TIP3    H249001   0.957   2.421   2.505  2.2925  1.2019 -0.2946
 9196TIP3   OH249002   6.718   5.442  11.507  0.0806  0.5819 -0.1766
 9196TIP3    H149003   6.781   5.485  11.450 -1.3226  1.3774 -1.1898
 9196TIP3    H249004   6.652   5.407  11.447 -0.0759 -0.8751  0.8010
 9197TIP3   OH249005   1.625   4.484  15.153  0.0531  0.1804  0.3535
 9197TIP3    H149006   1.675   4.402  15.153  1.9810  1.2897  0.7276
 9197TIP3    H249007   1.681   4.546  15.199 -1.6488  1.5601  0.6618
 9198TIP3   OH249008   0.623   4.273   2.507  0.1180  0.0365  0.6689
 9198TIP3    H149009   0.620   4.185   2.469  2.6842 -0.4156  1.2977
 9198TIP3    H249010   0.665   4.327   2.441 -2.1632  1.0636 -0.0420
 9199TIP3   OH249011   5.575   2.462   1.371  0.2302  0.4786  0.2629
 9199TIP3    H149012   5.606   2.522   1.439 -0.5945 -1.0617  2.0847
 9199TIP3    H249013   5.537   2.389   1.420 -2.6346  0.4220 -1.8318
 9200TIP3   OH249014   3.681   5.038  14.718  0.1719  0.0751 -0.0247
 9200TIP3    H149015   3.750   5.010  14.659 -0.8729  0.8728 -1.7030
 9200TIP3    H249016   3.713   5.120  14.756 -0.1684  0.8914 -1.4458
 9201TIP3   OH249017   1.465   6.656   5.043 -0.1197  0.9294 -0.3335
 9201TIP3    H149018   1.441   6.626   4.955 -0.3270  1.0948 -0.3339
 9201TIP3    H249019   1.402   6.726   5.063  0.5126  1.5422 -0.4374
 9202TIP3   OH249020   5.053   1.760   5.196 -0.7181  0.2464  0.2872
 9202TIP3    H149021   5.058   1.790   5.105 -0.9788 -1.3400 -0.2748
 9202TIP3    H249022   5.111   1.684   5.199 -0.2838  0.6021  1.6099
 9203TIP3   OH249023   1.569   2.150  15.328 -0.0419  0.7419 -0.3704
 9203TIP3    H149024   1.506   2.221  15.333 -0.1305  0.7067 -0.9506
 9203TIP3    H249025   1.545   2.101  15.250  0.4968  0.5282 -0.4099
 9204TIP3   OH249026   2.463   5.603  11.561 -0.2489  0.2178  0.4893
 9204TIP3    H149027   2.470   5.685  11.513 -0.4560 -0.0481 -0.0099
 9204TIP3    H249028   2.547   5.559  11.546 -0.6116 -0.2301 -0.3363
 9205TIP3   OH249029   6.477   0.209   3.426  0.2656 -0.4623  0.2867
 9205TIP3    H149030   6.492   0.114   3.424  0.8038 -0.4686  2.3627
 9205TIP3    H249031   6.401   0.220   3.484 -0.3811  0.3446 -0.6785
 9206TIP3   OH249032   6.536   5.185   5.584  0.0928  0.1233 -0.3085
 9206TIP3    H149033   6.446   5.206   5.609  0.2254  1.9381 -1.1398
 9206TIP3    H249034   6.537   5.197   5.488  1.1083 -0.2735 -0.3566
 9207TIP3   OH249035   2.373   5.966   4.315 -0.2628 -0.0234 -0.0013
 9207TIP3    H149036   2.391   6.011   4.397 -0.4436 -0.0021  0.0270
 9207TIP3    H249037   2.444   5.992   4.257 -0.5465  0.5579 -0.0871
 9208TIP3   OH249038   1.267   0.877  11.307  0.2198 -0.1442  0.1216
 9208TIP3    H149039   1.288   0.943  11.241  0.3009  0.6791  0.9437
 9208TIP3    H249040   1.176   0.893  11.330 -0.4131 -1.6786 -1.1578
 9209TIP3   OH249041   4.955   5.803   0.719 -0.5507 -0.2565  0.3214
 9209TIP3    H149042   5.014   5.825   0.791 -0.5320  0.3904  0.1150
 9209TIP3    H249043   5.013   5.796   0.642 -0.7362  0.3972  0.1144
 9210TIP3   OH249044   5.049   5.200  13.108  0.2350 -0.2047 -0.1207
 9210TIP3    H149045   5.071   5.109  13.129  0.9496  0.1863  0.9520
 9210TIP3    H249046   4.964   5.215  13.152 -1.2277 -1.0859 -2.4805
 9211TIP3   OH249047   5.678   3.265  12.757 -0.1893 -0.1056  0.4413
 9211TIP3    H149048   5.602   3.324  12.753 -0.3478 -0.3538 -0.4078
 9211TIP3    H249049   5.752   3.319  12.730 -0.1493  0.0003  0.7622
 9212TIP3   OH249050   6.719   1.434  16.881  0.0240 -0.4227 -0.1223
 9212TIP3    H149051   6.714   1.530  16.878 -0.4486 -0.4617 -1.3740
 9212TIP3    H249052   6.702   1.412  16.972  1.9404  0.7506  0.5829
 9213TIP3   OH249053   4.908   6.329   0.901  0.1735 -0.4221  0.5396
 9213TIP3    H149054   4.858   6.326   0.982 -0.1864  1.0138  0.3993
 9213TIP3    H249055   4.875   6.255   0.850 -1.2863  0.0175  0.7736
 9214TIP3   OH249056   0.460   4.319   4.532 -0.4713  0.2410  0.0375
 9214TIP3    H149057   0.522   4.246   4.535 -0.6325  0.0802 -0.4248
 9214TIP3    H249058   0.451   4.338   4.438 -0.9884  0.3731  0.1117
 9215TIP3   OH249059   0.322   5.627   4.193  0.6983  0.2935 -0.3613
 9215TIP3    H149060   0.394   5.564   4.198 -0.7169 -1.3276  1.4675
 9215TIP3    H249061   0.258   5.594   4.256 -1.4268  1.9487 -1.5284
 9216TIP3   OH249062   1.126   2.614  13.889  0.1103  0.1444  0.3302
 9216TIP3    H149063   1.215   2.635  13.859  0.1299  0.3945  0.5617
 9216TIP3    H249064   1.133   2.523  13.919 -0.1636 -0.4900 -1.4025
 9217TIP3   OH249065   3.106   0.617  13.998 -0.0201  0.5373 -0.3610
 9217TIP3    H149066   3.184   0.562  14.001  0.2550  0.9305 -0.1982
 9217TIP3    H249067   3.139   0.707  14.003 -0.4453  0.7322 -0.8865
 9218TIP3   OH249068   1.281   4.786   4.190  0.1197 -0.2968  0.3362
 9218TIP3    H149069   1.249   4.748   4.108  0.2905 -0.3203  0.2809
 9218TIP3    H249070   1.376   4.791   4.179  0.0624  0.5653  0.1536
 9219TIP3   OH249071   0.821   6.383  14.212 -0.5534 -0.3534  0.1658
 9219TIP3    H149072   0.777   6.338  14.139 -0.5777 -0.7510  0.4251
 9219TIP3    H249073   0.825   6.475  14.184 -1.9428 -0.2284  0.3339
 9220TIP3   OH249074   5.625   1.636   2.647 -0.0284  0.3491 -0.7859
 9220TIP3    H149075   5.704   1.582   2.648  0.2881  0.7575 -2.0892
 9220TIP3    H249076   5.649   1.716   2.692  0.3450  0.5214 -1.2858
 9221TIP3   OH249077   2.715   6.003  11.581  0.1826  0.0752  0.1916
 9221TIP3    H149078   2.775   6.062  11.535 -0.2634 -0.0829 -0.6156
 9221TIP3    H249079   2.721   6.028  11.673 -0.1395  1.4933 -0.1610
 9222TIP3   OH249080   1.174   1.797   4.121  0.1133  0.2735  0.4751
 9222TIP3    H149081   1.254   1.833   4.082  0.2248 -0.6336 -0.1673
 9222TIP3    H249082   1.203   1.761   4.205  0.4858 -0.4723  0.0349
 9223TIP3   OH249083   3.149   4.010  11.365 -0.5199  0.1121 -0.3587
 9223TIP3    H149084   3.064   3.982  11.331  0.2551 -2.8103 -0.2225
 9223TIP3    H249085   3.212   3.977  11.301  0.6621 -0.7531  1.1831
 9224TIP3   OH249086   4.110   1.629   5.191 -0.1616 -0.4005  0.9377
 9224TIP3    H149087   4.071   1.609   5.276  0.1116  0.0993  1.1861
 9224TIP3    H249088   4.036   1.657   5.136 -0.3846 -1.0381  0.9080
 9225TIP3   OH249089   1.108   3.846   2.497 -0.2876 -0.1597 -0.4330
 9225TIP3    H149090   1.025   3.884   2.526 -0.4001  0.7227 -1.8432
 9225TIP3    H249091   1.140   3.906   2.430 -0.1504 -2.2208 -2.3350
 9226TIP3   OH249092   1.900   0.084   5.996 -0.2225  0.2197  0.1330
 9226TIP3    H149093   1.947   0.004   5.972 -0.6542  0.2134 -0.7601
 9226TIP3    H249094   1.952   0.155   5.958 -1.3863  0.1559 -1.7514
 9227TIP3   OH249095   2.104   0.721   2.310  0.0690  0.4620  0.1268
 9227TIP3    H149096   2.080   0.780   2.238 -2.9141  0.0721  0.6655
 9227TIP3    H249097   2.079   0.768   2.389 -0.5526 -0.7316  0.6613
 9228TIP3   OH249098   4.494   0.263   5.806 -0.0616  0.7072 -0.3527
 9228TIP3    H149099   4.440   0.184   5.801 -0.5650  0.6965  3.1211
 9228TIP3    H249100   4.435   0.334   5.779 -0.7300  0.2967  0.0043
 9229TIP3   OH249101   6.317   0.358  12.689 -0.1238 -0.6751  0.2823
 9229TIP3    H149102   6.325   0.386  12.780  0.7148 -0.0447  0.0276
 9229TIP3    H249103   6.402   0.318  12.668 -1.1430 -3.0858  0.5030
 9230TIP3   OH249104   0.187   4.325   1.876  0.6465 -0.0852 -0.3209
 9230TIP3    H149105   0.161   4.247   1.925 -0.2542  1.4721  1.8225
 9230TIP3    H249106   0.115   4.341   1.816  0.0470 -0.0000  0.4030
 9231TIP3   OH249107   6.688   3.822   4.151  0.0550 -0.1387  0.3928
 9231TIP3    H149108   6.680   3.913   4.121 -2.5237 -0.0722  0.9923
 9231TIP3    H249109   6.598   3.790   4.153  0.5979 -1.8052  2.9246
 9232TIP3   OH249110   2.470   0.693   4.551 -0.5723  0.1449 -0.3276
 9232TIP3    H149111   2.470   0.687   4.647  0.1494  0.1603 -0.3219
 9232TIP3    H249112   2.394   0.641   4.524 -0.3780 -0.4448  0.2208
 9233TIP3   OH249113   4.690   6.701  16.151  0.5257  0.4175  0.5264
 9233TIP3    H149114   4.716   6.725  16.062 -0.4503 -0.6506 -0.0761
 9233TIP3    H249115   4.710   6.607  16.157 -0.9089  0.1150  0.8654
 9234TIP3   OH249116   4.113   4.524   1.303  0.2494  0.0952 -0.0031
 9234TIP3    H149117   4.153   4.483   1.379  0.0908 -1.4215 -0.6945
 9234TIP3    H249118   4.046   4.462   1.274  0.2183  0.6839 -1.2868
 9235TIP3   OH249119   5.279   2.728  13.634 -0.0789 -0.1521 -0.2388
 9235TIP3    H149120   5.372   2.715  13.611 -0.0184 -2.6086  1.0102
 9235TIP3    H249121   5.232   2.701  13.555  0.2596 -1.0723 -0.1464
 9236TIP3   OH249122   2.614   0.292   1.059  0.0568 -0.6945  0.1745
 9236TIP3    H149123   2.691   0.330   1.103 -0.5359 -0.4754  1.0384
 9236TIP3    H249124   2.651   0.227   0.998  0.8673 -1.5497  1.5274
 9237TIP3   OH249125   0.298   0.422   6.794 -0.1970 -0.1507  0.0884
 9237TIP3    H149126   0.308   0.345   6.738  0.0214  1.1361 -1.7519
 9237TIP3    H249127   0.376   0.421   6.850 -0.1181 -1.1763 -0.0175
 9238TIP3   OH249128   0.912   2.434   4.106 -0.0917 -0.7300 -0.2518
 9238TIP3    H149129   0.965   2.421   4.184 -0.6792 -0.8782  0.1273
 9238TIP3    H249130   0.953   2.378   4.039  1.1469  0.3333 -0.4160
 9239TIP3   OH249131   2.445   4.854   0.045 -0.0479 -0.5333  0.1646
 9239TIP3    H149132   2.522   4.883   0.094 -1.7385  1.0784  2.0279
 9239TIP3    H249133   2.371   4.892   0.091 -2.1184 -3.1930 -0.6865
 9240TIP3   OH249134   3.499   4.970   0.140  0.1703 -0.3979 -0.6631
 9240TIP3    H149135   3.476   4.985   0.232  0.1318 -1.2097 -0.5306
 9240TIP3    H249136   3.578   4.916   0.144  1.0156  0.7560 -1.1182
 9241TIP3   OH249137   3.348   5.383  11.669 -0.5916 -0.2301  0.2153
 9241TIP3    H149138   3.297   5.344  11.598 -1.0091  2.3426 -1.0286
 9241TIP3    H249139   3.430   5.412  11.627  1.7477 -3.5812  2.0106
 9242TIP3   OH249140   5.872   6.767   1.348 -0.1542  0.5860  0.3201
 9242TIP3    H149141   5.858   6.745   1.256  1.2897 -0.8912  0.4046
 9242TIP3    H249142   5.875   6.863   1.350  0.3061  0.6188 -1.2551
 9243TIP3   OH249143   3.419   0.767  15.543 -0.0772  0.5840  0.1753
 9243TIP3    H149144   3.383   0.718  15.469  1.2118 -0.6296  0.3232
 9243TIP3    H249145   3.505   0.796  15.513 -0.5445  2.2425  0.3299
 9244TIP3   OH249146   0.907   1.249   4.213 -0.1541  0.3222 -0.4138
 9244TIP3    H149147   0.837   1.314   4.213 -0.5482 -0.0559  1.7268
 9244TIP3    H249148   0.910   1.218   4.122 -1.3189  1.8487 -1.0228
 9245TIP3   OH249149   5.991   0.505   5.452  1.0107  0.1987 -0.2639
 9245TIP3    H149150   5.926   0.525   5.520 -0.5811  1.2080 -1.9752
 9245TIP3    H249151   6.005   0.411   5.460  0.0212  0.1147  0.7693
 9246TIP3   OH249152   6.189   1.465  12.156  0.2780 -0.2467  0.1702
 9246TIP3    H149153   6.226   1.516  12.084  0.6766 -1.0332 -0.1799
 9246TIP3    H249154   6.174   1.530  12.225  2.1245  0.1346  0.2681
 9247TIP3   OH249155   6.680   5.483   5.684  0.1445 -0.0385 -0.2497
 9247TIP3    H149156   6.701   5.409   5.741 -1.4587  0.5532  1.1681
 9247TIP3    H249157   6.696   5.561   5.738 -1.8145  0.5218 -0.3999
 9248TIP3   OH249158   1.724   4.246  11.925 -0.0448 -0.3208  0.1653
 9248TIP3    H149159   1.777   4.242  12.004 -0.4733 -0.3039  0.4548
 9248TIP3    H249160   1.762   4.319  11.875 -1.4161  1.4304  1.5626
 9249TIP3   OH249161   2.800   4.520   2.813  0.0970 -0.9873 -0.1116
 9249TIP3    H149162   2.717   4.477   2.797  0.1052 -2.3460  2.8388
 9249TIP3    H249163   2.779   4.593   2.870  0.9450 -1.7850  1.2864
 9250TIP3   OH249164   5.923   4.251  11.178  0.0381  0.0639 -0.8478
 9250TIP3    H149165   5.996   4.312  11.181  0.5246 -0.2770 -3.3197
 9250TIP3    H249166   5.942   4.187  11.246  0.2706  1.7974  0.7900
 9251TIP3   OH249167   1.528   3.515   4.802 -0.1005 -0.3313 -0.2555
 9251TIP3    H149168   1.481   3.456   4.861 -0.5648  0.6809  0.4263
 9251TIP3    H249169   1.479   3.512   4.720  0.8155 -2.1088 -0.7931
 9252TIP3   OH249170   6.270   1.198  15.755 -0.7771  0.2643  0.0374
 9252TIP3    H149171   6.340   1.154  15.804 -0.5515  0.4062 -0.1590
 9252TIP3    H249172   6.189   1.166  15.796 -0.6044 -0.0506  0.1379
 9253TIP3   OH249173   5.017   4.776  11.509 -0.2670  0.3674  0.1557
 9253TIP3    H149174   5.037   4.684  11.493 -0.8192  0.0526  1.1792
 9253TIP3    H249175   4.982   4.808  11.426  0.6713 -0.1217 -0.4466
 9254TIP3   OH249176   3.058   6.176   0.611 -0.0039 -0.4585  0.0317
 9254TIP3    H149177   3.044   6.213   0.524 -0.0104 -1.2789 -0.3230
 9254TIP3    H249178   3.070   6.252   0.668 -3.2580  0.2465 -0.0640
 9255TIP3   OH249179   3.289   1.875   6.487  0.5614 -0.1674 -0.5669
 9255TIP3    H149180   3.245   1.884   6.571  0.1610  2.1643 -0.9555
 9255TIP3    H249181   3.246   1.801   6.445 -0.4740 -0.2334  0.5590
 9256TIP3   OH249182   5.222   2.592   4.751 -0.2996 -0.2098 -0.1518
 9256TIP3    H149183   5.251   2.610   4.840 -0.4555 -2.1772  0.3409
 9256TIP3    H249184   5.135   2.553   4.761 -0.7240  0.4095 -1.2413
 9257TIP3   OH249185   1.446   3.697   0.213  0.3216  0.0116  0.1872
 9257TIP3    H149186   1.432   3.620   0.268  3.9436  0.2626  1.7237
 9257TIP3    H249187   1.434   3.771   0.273  0.0066  0.5127 -0.4857
 9258TIP3   OH249188   3.690   3.341  15.539 -0.5795 -0.1651  0.9501
 9258TIP3    H149189   3.676   3.435  15.549 -2.4951 -0.3693  0.4901
 9258TIP3    H249190   3.603   3.303  15.542  0.2127 -2.0354  1.9064
 9259TIP3   OH249191   3.770   2.515   4.886  0.3788  0.0814 -0.5325
 9259TIP3    H149192   3.820   2.557   4.816  1.6240  3.6660  2.2217
 9259TIP3    H249193   3.686   2.560   4.886 -0.0135 -0.6426 -0.3756
 9260TIP3   OH249194   2.829   0.135  12.976 -0.1085  0.6336 -0.1385
 9260TIP3    H149195   2.831   0.226  12.948  0.8882  0.5576 -0.3544
 9260TIP3    H249196   2.750   0.128  13.030  0.5333  1.9472  1.0146
 9261TIP3   OH249197   3.313   0.842   1.869 -0.0266  0.0732 -0.4303
 9261TIP3    H149198   3.220   0.822   1.885 -0.0995 -0.6561 -1.6798
 9261TIP3    H249199   3.315   0.937   1.855 -0.4921  0.1781  0.1754
 9262TIP3   OH249200   2.296   2.364   2.939  0.0921 -0.2485 -0.0181
 9262TIP3    H149201   2.244   2.286   2.921 -2.2398  1.4769 -1.3479
 9262TIP3    H249202   2.316   2.401   2.853  0.1319  1.2190  0.5793
 9263TIP3   OH249203   3.592   3.587  10.829  0.1092 -0.4675 -0.7592
 9263TIP3    H149204   3.515   3.551  10.784 -1.1128 -1.9486  2.2921
 9263TIP3    H249205   3.569   3.585  10.922  2.1855  3.1860 -0.0031
 9264TIP3   OH249206   2.864   1.098   1.727  1.3288  0.6917 -0.0922
 9264TIP3    H149207   2.920   1.021   1.723  0.3757 -0.1574  1.9699
 9264TIP3    H249208   2.851   1.122   1.635  6.3005  1.9534 -0.7595
 9265TIP3   OH249209   3.253   4.246  12.118  0.0523  0.7282 -0.1597
 9265TIP3    H149210   3.328   4.188  12.132 -2.2595 -2.0076  2.2891
 9265TIP3    H249211   3.234   4.240  12.025  1.6875 -0.0166 -0.4741
 9266TIP3   OH249212   5.098   5.420   5.059  0.3520 -0.0744 -0.1279
 9266TIP3    H149213   5.096   5.478   5.136  1.8825 -0.0109 -0.0994
 9266TIP3    H249214   5.112   5.478   4.985  3.0895 -0.4015  0.0160
 9267TIP3   OH249215   3.375   4.518  12.899  0.1160  0.2043  0.0544
 9267TIP3    H149216   3.333   4.518  12.813 -0.3335  1.5540  0.2504
 9267TIP3    H249217   3.469   4.516  12.881  0.0389 -2.1268 -0.4014
 9268TIP3   OH249218   5.419   5.745  16.488  0.0571 -0.2008  0.5191
 9268TIP3    H149219   5.479   5.762  16.561  0.1525  1.3946  0.1092
 9268TIP3    H249220   5.338   5.791  16.512  0.6032  1.6846 -1.0362
 9269TIP3   OH249221   5.597   2.095  13.115 -0.6519 -0.2574  0.3631
 9269TIP3    H149222   5.531   2.144  13.164 -1.0087  0.3038 -0.6538
 9269TIP3    H249223   5.635   2.034  13.179 -1.6549 -0.0920  1.1272
 9270TIP3   OH249224   5.915   1.439   0.003 -0.5519  0.4883  0.1612
 9270TIP3    H149225   5.870   1.497   0.065 -0.1087 -0.7420  1.7177
 9270TIP3    H249226   5.855   1.431  -0.071 -2.5589 -0.3813  1.7764
 9271TIP3   OH249227   0.943   5.937   0.300  0.6517  0.3931  0.0280
 9271TIP3    H149228   0.976   5.979   0.220  1.5246 -1.9842 -0.9654
 9271TIP3    H249229   0.901   6.008   0.349 -0.4312  1.8750 -2.7840
 9272TIP3   OH249230   0.037   0.933  14.501  0.2697  0.2850 -0.2589
 9272TIP3    H149231   0.023   0.914  14.409  1.7847  1.5627 -0.8192
 9272TIP3    H249232  -0.024   1.004  14.521 -0.2600 -0.1868 -0.1895
 9273TIP3   OH249233   6.274   1.643   4.579 -0.4005  0.2868 -0.0209
 9273TIP3    H149234   6.203   1.686   4.531  0.7004  1.1823 -0.8902
 9273TIP3    H249235   6.344   1.634   4.515  0.3129 -0.5324  0.8410
 9274TIP3   OH249236   3.603   3.039  10.998 -0.1327 -0.8035 -0.5185
 9274TIP3    H149237   3.597   2.943  11.000 -1.7282 -0.7196  0.4945
 9274TIP3    H249238   3.513   3.069  11.014  0.5298  0.8643  0.2885
 9275TIP3   OH249239   5.004   2.500   5.656 -0.7602  0.2747 -0.0342
 9275TIP3    H149240   5.017   2.406   5.668 -0.2743  0.6730  3.3350
 9275TIP3    H249241   5.079   2.541   5.699 -0.8195  2.2555 -1.6501
 9276TIP3   OH249242   4.937   1.578   2.296  0.6910  0.3218  0.3660
 9276TIP3    H149243   5.028   1.603   2.309  0.9543 -0.8191  0.8170
 9276TIP3    H249244   4.927   1.497   2.346 -0.1096 -0.5107 -1.0709
 9277TIP3   OH249245   0.454   5.932   1.372 -0.0765  0.5756 -0.0364
 9277TIP3    H149246   0.527   5.877   1.400  0.9022  1.7083 -0.2599
 9277TIP3    H249247   0.482   6.021   1.393 -1.3611  1.0439 -0.2223
 9278TIP3   OH249248   0.285   2.058   2.021 -0.4832  0.1981  0.1775
 9278TIP3    H149249   0.336   2.064   1.940  1.7114  0.4738  1.5054
 9278TIP3    H249250   0.280   2.148   2.053 -0.3944 -0.0462  0.8964
 9279TIP3   OH249251   4.069   5.973  12.038  0.7331  0.4168 -0.0055
 9279TIP3    H149252   4.140   5.928  11.994  0.0214 -0.6688 -0.0757
 9279TIP3    H249253   3.990   5.926  12.011  0.0977  0.9194  0.9210
 9280TIP3   OH249254   6.239   1.719   0.878  0.0668 -0.0687 -0.6325
 9280TIP3    H149255   6.263   1.651   0.940  2.6646  0.2231 -1.1946
 9280TIP3    H249256   6.283   1.798   0.909  0.7884  0.2699 -2.3658
 9281TIP3   OH249257   4.999   4.021  16.573 -0.9321 -0.1754 -0.0358
 9281TIP3    H149258   4.921   3.967  16.584 -0.2299 -0.9923  1.2335
 9281TIP3    H249259   4.966   4.106  16.543 -2.2461 -0.6442  0.0210
 9282TIP3   OH249260   4.488   3.965  14.533  0.6002 -0.2348  0.5214
 9282TIP3    H149261   4.522   3.982  14.446 -0.6581 -1.2622 -0.2090
 9282TIP3    H249262   4.394   3.985  14.526  0.3638 -0.9529  1.4451
 9283TIP3   OH249263   3.939   1.236  10.823  0.1092  0.0689 -0.0860
 9283TIP3    H149264   4.010   1.282  10.779  0.6455 -2.1834 -1.7516
 9283TIP3    H249265   3.876   1.215  10.754 -2.3290  2.0172  1.3381
 9284TIP3   OH249266   0.403   1.782  11.816  0.2916 -0.2758  0.4195
 9284TIP3    H149267   0.490   1.779  11.856 -0.0136  0.1310  1.1286
 9284TIP3    H249268   0.372   1.871  11.833 -1.5015 -1.2409  2.8909
 9285TIP3   OH249269   4.107   3.951  16.720  0.0425  0.1031  0.4245
 9285TIP3    H149270   4.034   3.920  16.667 -2.3121  1.7025  2.4345
 9285TIP3    H249271   4.130   3.876  16.775 -1.4378  0.0584  1.0503
 9286TIP3   OH249272   6.045   2.717  15.531  0.0622  0.2577  0.4311
 9286TIP3    H149273   6.007   2.650  15.476 -1.7084  0.0353  1.8272
 9286TIP3    H249274   6.109   2.670  15.586 -0.3595 -0.0861  0.6323
 9287TIP3   OH249275   1.741   5.898   6.796  0.0575 -0.1485  0.3765
 9287TIP3    H149276   1.808   5.856   6.849  0.3868 -1.0881 -0.7283
 9287TIP3    H249277   1.746   5.853   6.711 -1.2930  0.4384 -0.0472
 9288TIP3   OH249278   3.598   3.023   1.066  0.3359  0.3194 -0.1526
 9288TIP3    H149279   3.611   3.052   1.156 -3.2920  1.7228  0.0933
 9288TIP3    H249280   3.636   2.935   1.064  2.3662  1.0199  2.0832
 9289TIP3   OH249281   2.108   1.653  16.243 -0.1250  0.0829  0.3924
 9289TIP3    H149282   2.066   1.736  16.220  0.1003  1.0014  2.9613
 9289TIP3    H249283   2.188   1.650  16.191 -1.2374  0.3537 -1.3929
 9290TIP3   OH249284   0.838   5.406  13.077 -0.3932  0.7325 -0.6449
 9290TIP3    H149285   0.871   5.324  13.039  0.8084  0.7830  0.2487
 9290TIP3    H249286   0.768   5.433  13.018 -0.5125 -0.7131 -1.1946
 9291TIP3   OH249287   2.557   0.591  15.422  0.8148 -0.1732 -0.1995
 9291TIP3    H149288   2.579   0.671  15.469 -1.3311  1.6820 -2.0744
 9291TIP3    H249289   2.556   0.617  15.330  0.3532 -2.4453 -0.9018
 9292TIP3   OH249290   4.721   3.157   2.032  0.3193  0.5711  0.2306
 9292TIP3    H149291   4.777   3.219   1.985  0.5572  2.9898  3.3597
 9292TIP3    H249292   4.768   3.140   2.114 -1.2824 -1.2442  0.8487
 9293TIP3   OH249293   2.801   0.995   3.669 -0.2212  0.2546 -0.0684
 9293TIP3    H149294   2.808   0.924   3.732 -0.0249 -1.7112 -2.1656
 9293TIP3    H249295   2.854   1.066   3.706  2.6120 -1.9902  0.4796
 9294TIP3   OH249296   2.489   1.117   3.402  0.2927 -0.0945 -0.5542
 9294TIP3    H149297   2.516   1.202   3.367  1.7801 -0.7193 -1.0011
 9294TIP3    H249298   2.553   1.055   3.367 -0.2946 -1.2838  0.4005
 9295TIP3   OH249299   6.339   5.205  11.387 -0.3767 -0.4255  0.1823
 9295TIP3    H149300   6.405   5.274  11.388 -1.3593  0.5589 -0.4911
 9295TIP3    H249301   6.390   5.123  11.389  0.8821  0.2873 -0.8142
 9296TIP3   OH249302   1.046   6.002   4.987  0.0553  0.2463  0.6223
 9296TIP3    H149303   1.123   5.946   4.975  1.2436  1.7387  1.0321
 9296TIP3    H249304   0.972   5.942   4.976  1.2509 -1.2268  0.1567
 9297TIP3   OH249305   6.503   5.058   1.248 -0.3245  0.0859 -0.0016
 9297TIP3    H149306   6.585   5.029   1.208  0.6134  3.4314 -0.7970
 9297TIP3    H249307   6.521   5.059   1.342  0.2975  0.0725 -0.1152
 9298TIP3   OH249308   1.131   5.504  12.901 -0.4767 -0.2448  0.3457
 9298TIP3    H149309   1.160   5.464  12.984 -1.8727 -0.7854  0.5976
 9298TIP3    H249310   1.166   5.447  12.833 -0.2020 -0.3864  0.6056
 9299TIP3   OH249311   2.626   0.621  15.035  0.6806 -0.0286 -0.3728
 9299TIP3    H149312   2.545   0.671  15.025  0.5789 -0.3870 -1.4326
 9299TIP3    H249313   2.597   0.531  15.051  0.8661  0.1619  1.2774
 9300TIP3   OH249314   6.493   0.927   3.527 -0.1215 -0.2867 -0.1767
 9300TIP3    H149315   6.409   0.920   3.573 -0.1015  0.9808  0.0897
 9300TIP3    H249316   6.496   0.849   3.471 -2.0860  0.2566 -1.1516
 9301TIP3   OH249317   6.049   6.202   4.118 -0.0727  0.2339 -0.3027
 9301TIP3    H149318   6.063   6.244   4.033 -2.0947  1.4302 -0.1185
 9301TIP3    H249319   6.016   6.115   4.096  2.1272 -0.5561 -0.6942
 9302TIP3   OH249320   0.295   2.381   0.861 -0.0031 -0.3775 -0.5377
 9302TIP3    H149321   0.300   2.364   0.955 -0.5014  0.5671 -0.3345
 9302TIP3    H249322   0.221   2.328   0.831 -0.4480  0.0636 -0.2248
 9303TIP3   OH249323   3.105   6.132   4.417  0.1753 -0.2673 -1.2283
 9303TIP3    H149324   3.176   6.181   4.459  0.4241 -1.9770  0.4835
 9303TIP3    H249325   3.124   6.137   4.323  0.7272  2.0078 -1.0531
 9304TIP3   OH249326   0.989   5.190   1.695  0.2198 -0.2597 -0.7813
 9304TIP3    H149327   0.895   5.209   1.701  0.6852  1.8924  2.5700
 9304TIP3    H249328   1.022   5.258   1.636 -0.0338  0.5487 -0.0167
 9305TIP3   OH249329   6.379   3.050   4.429  0.2988 -0.1438  0.0207
 9305TIP3    H149330   6.471   3.034   4.407 -0.2846 -0.5936 -2.3710
 9305TIP3    H249331   6.334   2.970   4.403 -0.9909  0.6847 -0.3575
 9306TIP3   OH249332   5.139   0.622  11.318  0.1885  0.4729  0.3045
 9306TIP3    H149333   5.094   0.611  11.234  1.3406 -1.7001 -0.0906
 9306TIP3    H249334   5.071   0.606  11.383 -0.0687 -0.9381 -0.2668
 9307TIP3   OH249335   3.085   5.394  15.624 -0.9380 -0.4049  0.2415
 9307TIP3    H149336   3.174   5.425  15.608 -1.2449 -0.2306 -1.2687
 9307TIP3    H249337   3.040   5.468  15.666 -0.5909 -0.2165  0.2841
 9308TIP3   OH249338   6.201   5.152   5.215 -0.2260  0.1422 -0.3326
 9308TIP3    H149339   6.183   5.068   5.172 -1.1938 -0.2283  0.7423
 9308TIP3    H249340   6.117   5.178   5.252  0.4467  0.7322  0.8259
 9309TIP3   OH249341   1.905   2.389  13.805 -0.3605 -0.1825 -0.6213
 9309TIP3    H149342   1.967   2.401  13.876  0.9783 -0.3811 -1.7018
 9309TIP3    H249343   1.929   2.304  13.766 -1.0336 -0.0701 -1.3143
 9310TIP3   OH249344   4.952   5.368  16.767 -0.9023 -0.3093 -0.2487
 9310TIP3    H149345   5.010   5.365  16.843 -2.1095  1.4474  0.8156
 9310TIP3    H249346   4.905   5.284  16.769  0.1646 -0.9116  0.0277
 9311TIP3   OH249347   5.107   4.994   3.786 -0.0958 -0.0451 -1.0724
 9311TIP3    H149348   5.199   4.979   3.808  0.0421  0.6356 -1.1675
 9311TIP3    H249349   5.069   5.031   3.866 -0.0237  0.7021 -1.3744
 9312TIP3   OH249350   2.352   1.730   1.641 -0.4894  0.1072  0.0196
 9312TIP3    H149351   2.389   1.736   1.729 -0.4490 -0.9783  0.0805
 9312TIP3    H249352   2.345   1.821   1.612  0.7214  0.4144  0.6363
 9313TIP3   OH249353   5.704   0.147   2.002 -0.2258 -0.0815  0.1199
 9313TIP3    H149354   5.748   0.168   2.084 -0.1054 -0.6168  0.1974
 9313TIP3    H249355   5.667   0.060   2.016  0.4480 -0.5072 -0.6521
 9314TIP3   OH249356   6.591   6.612  16.560 -0.0715 -0.1696  0.0206
 9314TIP3    H149357   6.503   6.604  16.598  0.6554  0.9484  2.0947
 9314TIP3    H249358   6.587   6.693  16.508 -0.9593 -1.4984 -2.0959
 9315TIP3   OH249359   0.740   4.846   0.242 -0.0612  0.2860 -0.1115
 9315TIP3    H149360   0.707   4.871   0.155  0.7034  0.7800 -0.2702
 9315TIP3    H249361   0.718   4.920   0.298  0.4588  0.4626 -0.1400
 9316TIP3   OH249362   3.759   4.093  11.908 -0.1293  0.9307 -0.4808
 9316TIP3    H149363   3.824   4.163  11.915  0.3823  0.3526  0.8686
 9316TIP3    H249364   3.694   4.114  11.976 -0.4399  0.5646 -0.6608
 9317TIP3   OH249365   0.725   3.515  15.198 -1.0863 -0.2133  0.0813
 9317TIP3    H149366   0.731   3.589  15.259 -1.8292  0.8816 -1.1326
 9317TIP3    H249367   0.772   3.544  15.120 -0.9601 -1.2320 -0.2401
 9318TIP3   OH249368   0.184   1.893   2.216  0.0476  0.3130  0.0960
 9318TIP3    H149369   0.249   1.880   2.285 -1.9385 -0.3801  1.9301
 9318TIP3    H249370   0.227   1.952   2.154  2.5155 -0.3466  1.0500
 9319TIP3   OH249371   2.787   4.190  13.469  0.1229  0.0061  0.1325
 9319TIP3    H149372   2.714   4.137  13.436  0.4413  0.1007 -0.7608
 9319TIP3    H249373   2.863   4.131  13.463  0.4485  0.4882 -0.7057
 9320TIP3   OH249374   2.857   4.102  16.098  0.3089  0.5999 -0.1019
 9320TIP3    H149375   2.920   4.035  16.071  0.3454  0.0066  1.3765
 9320TIP3    H249376   2.911   4.176  16.125  0.2744  1.1639 -1.5233
 9321TIP3   OH249377   0.425   5.311  14.130 -0.0455  0.5447  0.5597
 9321TIP3    H149378   0.473   5.301  14.212  1.1329 -0.7166 -0.2246
 9321TIP3    H249379   0.470   5.251  14.069 -1.5500  0.6374 -0.7013
 9322TIP3   OH249380   6.058   0.605   2.917  0.6298 -0.3971  0.4042
 9322TIP3    H149381   5.981   0.602   2.860  1.4381 -0.5070 -0.7099
 9322TIP3    H249382   6.088   0.515   2.921  1.6702 -0.1126 -0.5537
 9323TIP3   OH249383   0.001   5.236   1.211 -0.0981  0.2031 -0.0967
 9323TIP3    H149384  -0.026   5.186   1.134 -0.3148 -3.1418  1.9317
 9323TIP3    H249385   0.084   5.196   1.238  0.4782  1.9450  0.8804
 9324TIP3   OH249386   3.097   4.440   1.506 -0.0365 -0.2383 -0.0387
 9324TIP3    H149387   3.184   4.413   1.479  0.0412 -1.6043  1.4557
 9324TIP3    H249388   3.046   4.440   1.424  1.4495  1.1522 -1.0283
 9325TIP3   OH249389   3.231   0.592   5.145  0.2096  0.0727  0.1559
 9325TIP3    H149390   3.245   0.680   5.108 -1.4747  0.2128 -0.2676
 9325TIP3    H249391   3.156   0.603   5.203  0.1943 -1.0295  0.3564
 9326TIP3   OH249392   4.890   4.950  15.552 -0.2984 -0.0057 -0.8245
 9326TIP3    H149393   4.902   4.878  15.490 -1.1037 -1.3150  0.4722
 9326TIP3    H249394   4.796   4.970  15.546 -0.4946 -0.5107  0.3193
 9327TIP3   OH249395   3.434   4.047  12.684  0.1798  0.2717  0.1715
 9327TIP3    H149396   3.458   4.079  12.771  1.2803 -0.0504  0.0072
 9327TIP3    H249397   3.515   4.010  12.650 -0.7731 -1.6675 -0.1069
 9328TIP3   OH249398   3.021   0.727   6.335  0.1894 -0.1217 -0.3983
 9328TIP3    H149399   3.099   0.779   6.354 -1.6819  2.3906  1.1651
 9328TIP3    H249400   3.044   0.638   6.362  2.0387  0.8273  1.5133
 9329TIP3   OH249401   5.793   2.000  16.579 -0.0677 -0.7166 -0.5615
 9329TIP3    H149402   5.851   1.925  16.595 -0.3703 -0.3298  3.2024
 9329TIP3    H249403   5.758   1.984  16.491  0.9953 -4.1986 -0.5348
 9330TIP3   OH249404   0.655   6.725  11.174  0.1030  0.1737 -0.6856
 9330TIP3    H149405   0.642   6.793  11.239 -0.2483 -0.3825 -0.1622
 9330TIP3    H249406   0.750   6.717  11.166  0.1722 -0.4669  0.5371
 9331TIP3   OH249407   5.163   3.388   3.456 -0.5647  0.3608  0.3032
 9331TIP3    H149408   5.175   3.332   3.533  0.3363  2.1665  1.5325
 9331TIP3    H249409   5.217   3.347   3.388  0.4594  0.0017  1.3073
 9332TIP3   OH249410   0.965   1.104  15.775  1.1272  0.4475 -0.1612
 9332TIP3    H149411   0.978   1.121  15.868  1.3091  1.5662 -0.3839
 9332TIP3    H249412   1.036   1.152  15.731  0.4953  0.6892 -0.9392
 9333TIP3   OH249413   2.969   3.301  10.522 -0.0587 -0.3827  0.2351
 9333TIP3    H149414   3.042   3.345  10.477 -0.0946 -0.4318  0.1299
 9333TIP3    H249415   2.960   3.217  10.477  0.4049 -0.7560  0.8225
 9334TIP3   OH249416   1.613   0.412   6.535 -0.2913  0.1580  0.7014
 9334TIP3    H149417   1.673   0.445   6.602 -0.6535 -1.9685  2.1529
 9334TIP3    H249418   1.526   0.419   6.575 -0.7577  0.8570 -0.4028
 9335TIP3   OH249419   0.569   0.572  17.150 -0.2581 -0.4380  0.3822
 9335TIP3    H149420   0.663   0.564  17.135 -0.1218  1.0182  0.3231
 9335TIP3    H249421   0.536   0.483  17.138  0.4809 -0.3904 -4.0333
 9336TIP3   OH249422   3.317   0.425  13.965 -0.7868 -0.1846 -0.1111
 9336TIP3    H149423   3.389   0.434  14.028  0.0546 -0.0074 -1.0581
 9336TIP3    H249424   3.360   0.399  13.884 -1.4383  2.3896 -1.4021
 9337TIP3   OH249425   3.857   3.624   4.313  0.6671 -0.0009  0.3277
 9337TIP3    H149426   3.834   3.716   4.323  1.5526  0.4310 -1.2821
 9337TIP3    H249427   3.801   3.593   4.242  0.1341 -0.8105  1.0827
 9338TIP3   OH249428   4.757   1.902   0.088 -0.0856 -0.1397  0.0386
 9338TIP3    H149429   4.767   1.838   0.159  0.1397  3.2550  3.3713
 9338TIP3    H249430   4.837   1.893   0.036  0.9472 -1.1279  1.6993
 9339TIP3   OH249431   4.317   5.578  16.821 -0.0406  0.1345 -0.0795
 9339TIP3    H149432   4.313   5.629  16.740  0.7981 -1.2913 -1.0668
 9339TIP3    H249433   4.379   5.626  16.876  0.5213  0.3615 -0.8830
 9340TIP3   OH249434   6.053   4.010   6.013  0.0911  0.0832  0.1498
 9340TIP3    H149435   6.040   3.916   6.016 -0.1735  0.0299 -1.5688
 9340TIP3    H249436   6.023   4.042   6.098 -2.6726 -1.0670 -0.2976
 9341TIP3   OH249437   2.141   0.144  13.113 -0.3703 -0.2759 -0.1816
 9341TIP3    H149438   2.125   0.196  13.034 -2.6268  1.1137  1.0810
 9341TIP3    H249439   2.205   0.195  13.162  0.3598 -0.6882 -0.6958
 9342TIP3   OH249440   1.431   1.982  11.891 -0.2914  0.1798  0.2861
 9342TIP3    H149441   1.409   1.889  11.894  0.9000 -0.1121  0.5364
 9342TIP3    H249442   1.499   1.992  11.958 -1.0248  1.4098  0.8749
 9343TIP3   OH249443   4.584   0.888   0.229  0.2433  0.1130  0.3522
 9343TIP3    H149444   4.544   0.964   0.186 -2.6885 -1.4990 -0.0687
 9343TIP3    H249445   4.597   0.916   0.320  0.9562  1.6528 -0.1865
 9344TIP3   OH249446   4.332   3.763  13.549 -0.0192  0.1898  0.0844
 9344TIP3    H149447   4.367   3.675  13.535 -0.7419 -0.1240  0.2100
 9344TIP3    H249448   4.257   3.750  13.607  0.7782  1.0563  1.3657
 9345TIP3   OH249449   5.058   5.850  15.954  0.7633 -0.1084 -0.4942
 9345TIP3    H149450   5.074   5.772  15.901  0.9266  0.6415 -1.5677
 9345TIP3    H249451   4.988   5.823  16.014  0.2420 -0.8387 -1.3943
 9346TIP3   OH249452   0.445   4.199  17.003 -0.1231 -0.4047  0.2476
 9346TIP3    H149453   0.464   4.289  17.030 -0.2726  0.3591 -1.9174
 9346TIP3    H249454   0.528   4.153  17.012  0.6565  0.6694 -1.0654
 9347TIP3   OH249455   3.862   6.619   2.587 -1.2955  0.5725 -0.2244
 9347TIP3    H149456   3.909   6.689   2.543 -1.6195 -0.5299 -2.5106
 9347TIP3    H249457   3.930   6.559   2.617 -1.0535  1.4954  1.1182
 9348TIP3   OH249458   2.488   5.289   2.264 -0.0998  0.6379  0.6228
 9348TIP3    H149459   2.419   5.310   2.326 -0.6262  0.4139  0.1170
 9348TIP3    H249460   2.509   5.198   2.281 -0.5834  0.4356  0.1480
 9349TIP3   OH249461   0.392   4.896   3.208  0.6855 -0.0061  0.1235
 9349TIP3    H149462   0.377   4.900   3.114  1.0383  0.5917  0.0865
 9349TIP3    H249463   0.351   4.976   3.243  1.1078  0.0995  0.3918
 9350TIP3   OH249464   0.681   2.814  12.850  0.5660  0.5910 -0.9727
 9350TIP3    H149465   0.735   2.747  12.891 -0.3464 -0.3491 -1.2830
 9350TIP3    H249466   0.744   2.879  12.819  1.3341  0.9681  1.2038
 9351TIP3   OH249467   2.969   5.524   0.054 -0.3559  0.3343  0.2799
 9351TIP3    H149468   2.886   5.545   0.098 -2.0137 -2.8393 -0.9514
 9351TIP3    H249469   3.010   5.458   0.110  0.4134  0.5327 -0.0388
 9352TIP3   OH249470   4.720   6.320  13.426  0.1483  0.3135  0.9256
 9352TIP3    H149471   4.634   6.280  13.413 -0.7768  2.2799  0.6259
 9352TIP3    H249472   4.762   6.313  13.340 -0.3774  0.8143  0.6237
 9353TIP3   OH249473   2.902   5.356   2.687  0.2043  0.0708 -0.1619
 9353TIP3    H149474   2.843   5.306   2.743 -0.7045  1.3529  0.0524
 9353TIP3    H249475   2.947   5.416   2.747  1.4800 -0.6156 -0.3778
 9354TIP3   OH249476   3.280   3.429  16.199 -0.0719  0.0634 -0.8396
 9354TIP3    H149477   3.374   3.438  16.188 -0.1573  1.3315 -0.6795
 9354TIP3    H249478   3.259   3.346  16.157  1.4457 -1.4501  1.2090
 9355TIP3   OH249479   2.868   5.962  11.992 -0.1415  0.3294 -0.0894
 9355TIP3    H149480   2.883   5.869  11.976  2.6118  0.6427  0.0777
 9355TIP3    H249481   2.847   5.968  12.085  2.0706 -0.0004  0.4952
 9356TIP3   OH249482   2.888   2.266   2.294  0.0290 -0.4235  0.4482
 9356TIP3    H149483   2.845   2.244   2.376 -0.0467 -0.3675  0.4239
 9356TIP3    H249484   2.937   2.346   2.314 -0.2911 -0.1965  0.3389
 9357TIP3   OH249485   5.058   1.376  11.841  0.5056  0.1833 -0.0640
 9357TIP3    H149486   5.128   1.332  11.888  0.7155  0.4914 -0.0818
 9357TIP3    H249487   5.088   1.381  11.751  0.4652  0.3199 -0.0718
 9358TIP3   OH249488   2.773   2.192  11.769  0.8504 -0.5360 -0.3157
 9358TIP3    H149489   2.858   2.196  11.811  0.3009  0.0495  0.8011
 9358TIP3    H249490   2.710   2.189  11.841 -0.0579 -1.5654 -1.1142
 9359TIP3   OH249491   3.535   6.207  13.939  0.4406 -0.3548 -0.2474
 9359TIP3    H149492   3.497   6.173  13.858 -1.1616 -1.5525  0.9409
 9359TIP3    H249493   3.618   6.162  13.947  0.7737  0.0283 -1.3798
 9360TIP3   OH249494   2.637   4.687   2.522  0.4349  0.7121  0.4967
 9360TIP3    H149495   2.674   4.733   2.597  0.1569  2.4661 -0.3859
 9360TIP3    H249496   2.703   4.697   2.453 -0.8356  2.3921 -0.5759
 9361TIP3   OH249497   4.901   6.441   5.082 -0.4212  0.0254 -0.6392
 9361TIP3    H149498   4.835   6.388   5.128 -1.4785 -0.2299 -2.3656
 9361TIP3    H249499   4.887   6.530   5.115  0.0131 -0.4097  0.7816
 9362TIP3   OH249500   1.948   1.603   3.688 -0.3099 -0.1486 -0.6527
 9362TIP3    H149501   1.983   1.534   3.744  0.8416  1.0634  0.1714
 9362TIP3    H249502   1.859   1.574   3.668  0.1348 -1.8500 -0.3294
 9363TIP3   OH249503   3.439   1.735  15.876 -0.2953  0.2394  0.0007
 9363TIP3    H149504   3.393   1.818  15.879  1.5550  1.3273 -0.2612
 9363TIP3    H249505   3.485   1.735  15.792 -0.7577 -1.3440 -0.2969
 9364TIP3   OH249506   1.061   6.645   1.251  0.3854 -0.3035  0.5352
 9364TIP3    H149507   1.122   6.645   1.177 -0.7345  0.3468 -0.4429
 9364TIP3    H249508   1.116   6.635   1.328  1.5382 -1.8601 -0.4203
 9365TIP3   OH249509   6.055   2.189  14.802 -0.6924  0.1644 -0.1370
 9365TIP3    H149510   6.060   2.226  14.714  1.7867 -0.0859 -0.1876
 9365TIP3    H249511   6.045   2.264  14.860  0.6173  0.6417 -0.4862
 9366TIP3   OH249512   3.382   1.614   2.927  0.5417 -0.5878  0.3814
 9366TIP3    H149513   3.467   1.588   2.961  0.1238 -0.7900  1.2998
 9366TIP3    H249514   3.319   1.569   2.983 -0.1889  1.6393  1.4603
 9367TIP3   OH249515   0.118   1.576  14.691 -0.2997  0.2817  0.4477
 9367TIP3    H149516   0.109   1.510  14.623  0.2116 -0.8014  1.3877
 9367TIP3    H249517   0.166   1.531  14.761 -0.3483  1.5170  1.3011
 9368TIP3   OH249518   6.143   4.586  14.033 -0.8817  0.4104 -0.0070
 9368TIP3    H149519   6.095   4.668  14.020 -0.6663  0.5351 -0.0063
 9368TIP3    H249520   6.234   4.612  14.047 -0.9041  0.2048  0.5587
 9369TIP3   OH249521   3.574   0.751   6.150  0.2770  0.3339 -0.0125
 9369TIP3    H149522   3.517   0.827   6.139 -0.6194 -0.0721  1.5339
 9369TIP3    H249523   3.571   0.706   6.066 -1.7952  0.2759  0.0492
 9370TIP3   OH249524   2.562   2.788   1.725 -0.1732 -0.1458  0.3648
 9370TIP3    H149525   2.494   2.787   1.792  0.7346 -0.3610  1.3123
 9370TIP3    H249526   2.581   2.881   1.712 -0.1138 -0.1158  0.6576
 9371TIP3   OH249527   1.594   2.875   0.768 -1.0638  0.1047 -0.2913
 9371TIP3    H149528   1.648   2.934   0.715  1.9393  0.2482  2.5845
 9371TIP3    H249529   1.504   2.898   0.745  0.0104  2.7766 -2.4426
 9372TIP3   OH249530   0.963   2.265   3.874 -0.0200 -0.1320 -0.3700
 9372TIP3    H149531   1.057   2.283   3.885 -0.4187  2.0262 -0.1446
 9372TIP3    H249532   0.955   2.172   3.895  2.0790 -0.3994 -0.4925
 9373TIP3   OH249533   3.106   3.583   2.944 -0.0375 -0.1500 -0.7631
 9373TIP3    H149534   3.156   3.664   2.934  0.2904  0.0661  1.9596
 9373TIP3    H249535   3.172   3.514   2.944  0.0501 -0.0796  0.4088
 9374TIP3   OH249536   2.452   6.105   3.669 -0.0217  0.2569 -0.5179
 9374TIP3    H149537   2.499   6.039   3.720 -0.3106 -0.1267 -0.7457
 9374TIP3    H249538   2.442   6.178   3.730  0.2812  0.0839 -0.2553
 9375TIP3   OH249539   2.974   4.332  11.700  0.3072 -0.5474 -0.9162
 9375TIP3    H149540   2.961   4.241  11.675 -0.1093 -1.4277  2.1403
 9375TIP3    H249541   3.062   4.334  11.737 -1.5656 -1.3169  4.4869
 9376TIP3   OH249542   4.555   5.847   1.725  0.0832 -0.0685  0.1246
 9376TIP3    H149543   4.473   5.895   1.716  0.3661  0.4871  0.4736
 9376TIP3    H249544   4.610   5.879   1.654 -0.0726 -0.5937 -0.2368
 9377TIP3   OH249545   5.139   5.745  14.027 -0.3105 -0.1885  0.3828
 9377TIP3    H149546   5.228   5.770  14.000 -0.4310 -1.0427 -0.8588
 9377TIP3    H249547   5.127   5.790  14.111  1.7686 -1.0598  1.2230
 9378TIP3   OH249548   0.402   6.040  16.469 -0.1133  0.3070  0.3053
 9378TIP3    H149549   0.424   5.976  16.401 -0.7988 -1.2163  1.4411
 9378TIP3    H249550   0.422   5.995  16.551  0.6816  2.0877  1.1468
 9379TIP3   OH249551   1.156   3.690  11.905 -0.2643  0.7686  0.1876
 9379TIP3    H149552   1.092   3.713  11.972 -1.2573 -0.0922 -0.4502
 9379TIP3    H249553   1.137   3.749  11.832  1.3018  2.2373  0.8766
 9380TIP3   OH249554   4.225   2.895  13.291 -0.4136 -0.1446 -0.3053
 9380TIP3    H149555   4.197   2.804  13.278 -0.7142  0.0793 -1.2942
 9380TIP3    H249556   4.225   2.933  13.203 -1.5035  1.1716  0.2336
 9381TIP3   OH249557   2.275   3.940  12.094  0.3768 -0.1719  0.6228
 9381TIP3    H149558   2.335   4.000  12.049  0.2956  0.1996  1.0099
 9381TIP3    H249559   2.242   3.990  12.168  3.0035 -1.7824  3.1071
 9382TIP3   OH249560   3.950   3.989  12.565 -0.1519 -0.1021 -0.2336
 9382TIP3    H149561   3.971   4.035  12.483 -0.2125  0.4518  0.0591
 9382TIP3    H249562   4.003   4.033  12.631 -0.6934 -0.0381  0.1610
 9383TIP3   OH249563   4.526   2.965   1.324  0.1122  0.0447  0.1829
 9383TIP3    H149564   4.513   3.007   1.240 -0.2418 -0.8803 -0.2361
 9383TIP3    H249565   4.443   2.976   1.370  0.0800 -0.0467  0.1459
 9384TIP3   OH249566   3.739   3.489   4.824  0.2519 -0.1054 -0.0293
 9384TIP3    H149567   3.730   3.564   4.766 -0.7079 -0.5895 -0.5372
 9384TIP3    H249568   3.757   3.526   4.910  0.0385  0.6925 -0.3241
 9385TIP3   OH249569   3.808   5.174  13.654 -0.2069 -0.2025  0.0491
 9385TIP3    H149570   3.898   5.178  13.620 -0.4688 -0.2621 -0.6608
 9385TIP3    H249571   3.759   5.234  13.598 -0.8229 -0.9673 -0.2417
 9386TIP3   OH249572   2.499   3.694  17.174  0.7488  0.5143  0.5907
 9386TIP3    H149573   2.419   3.746  17.163  1.2861  0.9184 -2.4935
 9386TIP3    H249574   2.469   3.604  17.179  0.0527  0.7397  0.5763
 9387TIP3   OH249575   0.929   3.149   3.954 -0.4308 -0.0460  0.4812
 9387TIP3    H149576   0.843   3.108   3.963 -1.2450  1.1680 -1.1734
 9387TIP3    H249577   0.943   3.195   4.037 -1.2917 -0.4176  0.8432
 9388TIP3   OH249578   2.923   1.297  16.214  0.3825 -0.0769  0.1924
 9388TIP3    H149579   2.893   1.209  16.190 -0.9153  0.0785  1.1416
 9388TIP3    H249580   3.019   1.291  16.209  0.2893 -1.0206 -1.4814
 9389TIP3   OH249581   5.144   5.072  11.578  0.0754 -0.0102  0.2229
 9389TIP3    H149582   5.113   5.131  11.509 -1.4801 -1.0991 -0.0736
 9389TIP3    H249583   5.175   4.994  11.531  0.3591 -0.1863  0.6927
 9390TIP3   OH249584   2.448   2.631   5.109  0.1297 -0.1122  0.5279
 9390TIP3    H149585   2.530   2.678   5.097  0.4739 -0.8877 -0.3047
 9390TIP3    H249586   2.462   2.547   5.065 -1.4805  0.1621 -0.5919
 9391TIP3   OH249587   5.888   5.394   6.045  0.3699 -0.0539 -0.5454
 9391TIP3    H149588   5.900   5.486   6.024  0.6797 -0.4738 -2.4070
 9391TIP3    H249589   5.904   5.388   6.139  0.5226  1.7450 -0.4302
 9392TIP3   OH249590   2.213   0.989   2.946 -0.2670 -0.3541  0.1053
 9392TIP3    H149591   2.223   1.042   3.025 -0.8017 -1.2030  0.7554
 9392TIP3    H249592   2.217   1.052   2.874  4.0268  0.1088  0.4812
 9393TIP3   OH249593   4.797   4.263  12.171  0.7516 -0.5137 -0.0341
 9393TIP3    H149594   4.745   4.314  12.233  1.3397 -1.2990  1.1337
 9393TIP3    H249595   4.739   4.251  12.096 -0.5046 -0.7550  0.9383
 9394TIP3   OH249596   3.866   5.776  13.805  0.2858  0.2257  0.0416
 9394TIP3    H149597   3.848   5.852  13.749  3.8731 -0.7372 -2.8476
 9394TIP3    H249598   3.923   5.811  13.875  0.8190  0.4628 -0.5004
 9395TIP3   OH249599   5.424   3.915  11.393 -0.2054  0.6438  0.0238
 9395TIP3    H149600   5.430   3.974  11.318  1.3145 -1.1099 -1.3265
 9395TIP3    H249601   5.508   3.868  11.393 -0.6294 -0.2210  2.1479
 9396TIP3   OH249602   2.033   0.114  13.482  0.1609  0.2404 -0.0848
 9396TIP3    H149603   1.961   0.065  13.442  0.6632 -0.9361  0.3978
 9396TIP3    H249604   2.010   0.118  13.575 -0.3511  1.8096 -0.2396
 9397TIP3   OH249605   1.746   3.530   1.876  0.7561  0.2171  0.4581
 9397TIP3    H149606   1.654   3.530   1.901  0.4785  0.5313 -0.5270
 9397TIP3    H249607   1.781   3.450   1.916 -0.1237 -0.3108  0.2073
 9398TIP3   OH249608   6.727   2.364  13.753  0.1568  0.3907  0.2119
 9398TIP3    H149609   6.705   2.450  13.789 -0.5739 -0.3211  1.5643
 9398TIP3    H249610   6.739   2.308  13.830 -1.5621 -1.2379 -0.6037
 9399TIP3   OH249611   5.226   4.877  12.409  0.2315  0.2044 -0.0938
 9399TIP3    H149612   5.311   4.907  12.376  0.2441  0.6822  0.3646
 9399TIP3    H249613   5.167   4.950  12.394  0.0748  0.1610  0.2902
 9400TIP3   OH249614   6.413   1.602   3.841  0.0731  0.3177  0.5189
 9400TIP3    H149615   6.323   1.586   3.812  0.1108 -1.3186  1.1879
 9400TIP3    H249616   6.444   1.516   3.868  2.5567  0.4245 -1.6370
 9401TIP3   OH249617   1.738   5.717  13.576  0.3042  0.1205 -0.2884
 9401TIP3    H149618   1.736   5.625  13.550 -1.5202  0.0266  0.0751
 9401TIP3    H249619   1.815   5.724  13.632  0.1253 -1.3333  0.1787
 9402TIP3   OH249620   6.529   5.956  13.265 -0.3896  0.0785  0.2055
 9402TIP3    H149621   6.506   5.922  13.179  1.2126 -1.7690  0.4524
 9402TIP3    H249622   6.525   6.052  13.255 -3.2822 -0.0760 -1.0069
 9403TIP3   OH249623   1.981   5.938  13.533  0.5656  0.5079 -0.2066
 9403TIP3    H149624   2.039   5.930  13.609  1.3870 -0.1390 -0.8838
 9403TIP3    H249625   1.894   5.953  13.571  0.3229 -3.0930  1.0749
 9404TIP3   OH249626   1.113   2.533  15.720 -0.6849 -0.3186 -0.6139
 9404TIP3    H149627   1.148   2.612  15.759 -2.5347  0.3201 -0.1557
 9404TIP3    H249628   1.039   2.509  15.776  0.1919 -2.7351 -0.3828
 9405TIP3   OH249629   4.552   1.884   5.805 -0.8320  0.4703  0.0404
 9405TIP3    H149630   4.530   1.966   5.761  0.1688  0.2722 -0.8760
 9405TIP3    H249631   4.645   1.892   5.825 -1.0751  0.1906  1.3717
 9406TIP3   OH249632   4.552   2.365  10.740  0.3470  0.2891  0.1713
 9406TIP3    H149633   4.598   2.437  10.697 -0.8446  0.8766 -0.1899
 9406TIP3    H249634   4.468   2.360  10.694  0.7917 -2.0482 -0.5441
 9407TIP3   OH249635   2.797   2.611   4.204 -0.0823  0.0046 -0.1093
 9407TIP3    H149636   2.775   2.702   4.223  0.4363  0.1966 -0.4004
 9407TIP3    H249637   2.851   2.615   4.125 -1.0662 -0.6569 -0.8527
 9408TIP3   OH249638   1.521   3.588   2.755  0.1619  0.3622 -0.3197
 9408TIP3    H149639   1.578   3.629   2.820 -1.2076  2.9420 -0.5940
 9408TIP3    H249640   1.496   3.504   2.793  3.5692 -0.6085  0.0685
 9409TIP3   OH249641   3.005   6.641   1.515 -0.0309 -0.1090  0.1740
 9409TIP3    H149642   3.028   6.731   1.539 -3.1648  0.2284  2.5127
 9409TIP3    H249643   2.956   6.650   1.433 -1.1685  0.4921  0.8958
 9410TIP3   OH249644   5.479   2.491  13.767  0.0722  0.2813  0.6691
 9410TIP3    H149645   5.531   2.490  13.687 -1.1680  2.1984 -0.2474
 9410TIP3    H249646   5.489   2.581  13.800 -2.4381  0.6540  0.5551
 9411TIP3   OH249647   0.263   1.088   5.951 -0.0061  0.6178  0.4932
 9411TIP3    H149648   0.236   1.051   6.035 -1.4965  0.4092 -0.0322
 9411TIP3    H249649   0.342   1.039   5.927 -0.2927 -0.2115  1.1795
 9412TIP3   OH249650   6.509   6.043  11.793 -0.2136  0.0544 -0.7504
 9412TIP3    H149651   6.530   6.099  11.718  2.3255 -2.0318 -1.7955
 9412TIP3    H249652   6.582   6.055  11.853 -0.0233 -1.4528 -0.6366
 9413TIP3   OH249653   3.920   0.716   0.524 -0.0197  1.0285 -0.5220
 9413TIP3    H149654   3.960   0.631   0.506  0.4242  0.9652  0.6389
 9413TIP3    H249655   3.904   0.754   0.438  1.3966  0.5224 -1.0412
 9414TIP3   OH249656   1.204   0.766   2.979  0.6288  0.2084 -0.6049
 9414TIP3    H149657   1.146   0.828   2.935  0.9310  1.0675  0.1706
 9414TIP3    H249658   1.147   0.692   3.002 -0.4162  1.4219  0.9482
 9415TIP3   OH249659   5.775   2.515   0.919 -0.1230 -0.2109 -0.1636
 9415TIP3    H149660   5.854   2.484   0.875 -0.6193 -0.8251 -0.6285
 9415TIP3    H249661   5.771   2.609   0.898  0.1033 -0.3244 -0.7210
 9416TIP3   OH249662   5.566   5.624   5.027 -0.4367 -0.0613 -0.0616
 9416TIP3    H149663   5.579   5.605   5.120 -3.0685 -0.5492  0.2801
 9416TIP3    H249664   5.619   5.557   4.982 -0.7336 -1.1199  1.1059
 9417TIP3   OH249665   0.027   6.455   2.197  0.1673  0.0742  0.8409
 9417TIP3    H149666  -0.027   6.457   2.276 -0.5353  0.4903  0.3646
 9417TIP3    H249667   0.011   6.539   2.155  0.0083 -0.4076 -0.0857
 9418TIP3   OH249668   2.326   1.992  13.408 -0.2514  0.4710  0.0333
 9418TIP3    H149669   2.324   2.079  13.447  3.7259  1.5412 -1.6797
 9418TIP3    H249670   2.245   1.986  13.357 -0.9447  2.8269  0.7447
 9419TIP3   OH249671   1.629   4.353  13.425 -0.2097  0.3524  0.0113
 9419TIP3    H149672   1.604   4.326  13.513 -1.0417 -0.6488 -0.5168
 9419TIP3    H249673   1.723   4.336  13.420 -0.1775  0.3178  0.6611
 9420TIP3   OH249674   0.066   2.387   0.101  0.1252  0.5516 -0.0595
 9420TIP3    H149675  -0.012   2.441   0.098  0.0535  0.4403 -0.2544
 9420TIP3    H249676   0.090   2.382   0.193 -0.2033  0.4331  0.0188
 9421TIP3   OH249677   4.068   4.588   4.671  0.0843  0.3209  0.1972
 9421TIP3    H149678   4.144   4.642   4.651 -0.3187  0.7946 -0.0704
 9421TIP3    H249679   3.994   4.634   4.632 -0.2838 -0.3619  0.0665
 9422TIP3   OH249680   4.837   3.883   5.339  0.1697 -0.0312 -0.2073
 9422TIP3    H149681   4.810   3.792   5.335  0.4121 -0.0504 -1.8185
 9422TIP3    H249682   4.874   3.893   5.427  0.3795 -1.5444 -0.1005
 9423TIP3   OH249683   5.826   4.656  15.725  0.3173  0.0399  0.4781
 9423TIP3    H149684   5.922   4.665  15.719  0.5015 -0.8302  1.6774
 9423TIP3    H249685   5.806   4.686  15.814 -0.4863 -0.1293  0.3569
 9424TIP3   OH249686   6.131   0.802  15.632  0.0432 -0.2677  0.2985
 9424TIP3    H149687   6.163   0.855  15.559 -1.7608 -0.2923 -0.5625
 9424TIP3    H249688   6.038   0.821  15.637  0.1471 -0.0368  2.8379
 9425TIP3   OH249689   0.915   3.612   6.562 -0.2868 -0.1940  0.1472
 9425TIP3    H149690   0.891   3.544   6.626 -0.0447 -0.1625  0.2769
 9425TIP3    H249691   0.848   3.607   6.495 -0.1793 -0.6828  0.0665
 9426TIP3   OH249692   0.924   6.745   2.959 -0.3654  0.3842  0.0397
 9426TIP3    H149693   1.009   6.704   2.944 -0.8576 -0.4963 -0.4432
 9426TIP3    H249694   0.914   6.747   3.054 -0.3338 -0.6573  0.0757
 9427TIP3   OH249695   4.043   4.184   5.980 -0.1765 -0.2486  0.1156
 9427TIP3    H149696   4.006   4.205   6.066 -0.4390 -1.3682  0.3034
 9427TIP3    H249697   4.077   4.095   5.990  1.8717  0.4512 -0.2971
 9428TIP3   OH249698   4.518   2.541  12.808 -0.0881  0.3236 -0.5711
 9428TIP3    H149699   4.459   2.501  12.744  1.0735  0.0466 -1.4999
 9428TIP3    H249700   4.500   2.494  12.890  1.8440 -2.8495 -1.7892
 9429TIP3   OH249701   5.991   4.819   2.208  0.1152  0.0306  0.2345
 9429TIP3    H149702   6.085   4.837   2.209  0.2459 -0.6494  1.1766
 9429TIP3    H249703   5.969   4.813   2.115  0.7800  1.2585 -0.0320
 9430TIP3   OH249704   4.633   1.980   1.442 -0.0514 -0.4602  0.7044
 9430TIP3    H149705   4.601   2.030   1.367 -1.6284  2.6187  3.2229
 9430TIP3    H249706   4.586   1.896   1.436 -1.0959  0.1956 -1.0263
 9431TIP3   OH249707   4.532   1.941   0.835  0.6098  0.5771 -0.2261
 9431TIP3    H149708   4.614   1.946   0.786  0.9188  2.6383  0.3986
 9431TIP3    H249709   4.464   1.939   0.768  1.1365 -0.5044 -0.7454
 9432TIP3   OH249710   4.325   5.091  16.412 -0.0737 -0.0553  0.0694
 9432TIP3    H149711   4.375   5.009  16.419  0.1012  0.0995  0.6334
 9432TIP3    H249712   4.321   5.108  16.318 -0.5149 -0.9604 -0.0888
 9433TIP3   OH249713   3.099   5.397   3.623  0.2179 -0.4154  0.1431
 9433TIP3    H149714   3.139   5.351   3.696  0.7737 -0.0754  0.0559
 9433TIP3    H249715   3.170   5.409   3.560 -0.1775 -0.4051 -0.3075
 9434TIP3   OH249716   6.209   5.468  14.325 -0.4016  0.1849 -0.1286
 9434TIP3    H149717   6.170   5.547  14.364  1.6621  1.3040 -0.2137
 9434TIP3    H249718   6.302   5.475  14.344  0.0352 -1.5234 -1.4030
 9435TIP3   OH249719   5.256   3.253   3.697  0.0161 -0.3439 -0.8327
 9435TIP3    H149720   5.351   3.258   3.701  0.1571 -2.0550 -1.3770
 9435TIP3    H249721   5.227   3.262   3.788  0.7591 -0.8371 -0.5466
 9436TIP3   OH249722   1.173   1.119   1.878 -0.3459 -0.3251  0.5057
 9436TIP3    H149723   1.157   1.037   1.831 -1.2175 -0.5406  1.1521
 9436TIP3    H249724   1.217   1.175   1.814  0.1778 -1.2593  0.0270
 9437TIP3   OH249725   5.545   2.656  13.521 -0.1116 -0.0986  0.1365
 9437TIP3    H149726   5.534   2.721  13.451 -1.0584 -0.1665  0.2022
 9437TIP3    H249727   5.631   2.675  13.558 -0.6129  1.5133  0.5384
 9438TIP3   OH249728   3.044   5.864  11.470 -0.3175  0.1516  0.4015
 9438TIP3    H149729   2.987   5.908  11.408  0.4798 -1.3856 -1.5303
 9438TIP3    H249730   2.986   5.840  11.543 -1.8522 -0.2109 -0.8876
 9439TIP3   OH249731   5.612   1.758   3.021 -0.0189 -0.1227 -0.8573
 9439TIP3    H149732   5.609   1.666   3.050  0.4979  0.0550 -0.2349
 9439TIP3    H249733   5.591   1.809   3.100  0.1850  0.3144 -1.0839
 9440TIP3   OH249734   5.993   2.689  14.657 -0.0930  0.6608 -0.0816
 9440TIP3    H149735   5.997   2.763  14.718 -1.9316  0.4566  0.3607
 9440TIP3    H249736   5.933   2.717  14.589 -2.6913 -1.1420  1.2721
 9441TIP3   OH249737   5.320   2.982  14.861 -0.0637  0.0994  0.1469
 9441TIP3    H149738   5.235   2.942  14.881 -0.9287  1.8613  0.2260
 9441TIP3    H249739   5.300   3.047  14.793  1.1654  0.7350  0.3714
 9442TIP3   OH249740   2.744   5.507  15.821  0.2316 -0.1563 -0.1820
 9442TIP3    H149741   2.780   5.422  15.847 -0.6910 -0.1719  1.1816
 9442TIP3    H249742   2.817   5.568  15.826  0.2224 -0.2507  2.1687
 9443TIP3   OH249743   6.416   4.471  13.687  0.3753  0.0802  0.1593
 9443TIP3    H149744   6.387   4.558  13.660  1.4624 -0.0794 -1.6570
 9443TIP3    H249745   6.434   4.425  13.605 -1.0299 -2.1831  1.0331
 9444TIP3   OH249746   0.032   0.635   1.486 -0.4043  0.2609  0.1333
 9444TIP3    H149747   0.055   0.712   1.434 -0.5558 -0.3125 -0.8136
 9444TIP3    H249748  -0.023   0.668   1.557  1.4063  1.3320  1.0844
 9445TIP3   OH249749   2.251   4.379   6.450 -0.0044 -0.0449 -0.0720
 9445TIP3    H149750   2.323   4.352   6.393  0.3272 -1.9817  1.1752
 9445TIP3    H249751   2.294   4.428   6.520  0.2951 -1.9302  1.1369
 9446TIP3   OH249752   4.891   3.139   2.373 -0.0839  0.0615 -0.1417
 9446TIP3    H149753   4.899   3.199   2.299  1.0345 -1.0764 -0.9776
 9446TIP3    H249754   4.847   3.191   2.441  0.9993  1.8802 -0.7600
 9447TIP3   OH249755   2.782   5.514   4.387 -0.0079  0.0963 -0.0348
 9447TIP3    H149756   2.867   5.558   4.381  0.2326 -0.4391 -0.9140
 9447TIP3    H249757   2.767   5.480   4.298 -1.3949  0.6315 -0.0327
 9448TIP3   OH249758   1.379   5.250   2.348 -0.2019  0.1414 -0.2412
 9448TIP3    H149759   1.321   5.294   2.411 -0.5096  0.6774 -0.8796
 9448TIP3    H249760   1.388   5.313   2.276  1.9260  0.4511  0.2427
 9449TIP3   OH249761   3.326   5.684  14.794  0.4037 -0.5734 -0.2147
 9449TIP3    H149762   3.287   5.624  14.857  0.8036 -0.6376 -0.0281
 9449TIP3    H249763   3.392   5.631  14.748  1.6465  0.0381  0.8080
 9450TIP3   OH249764   2.999   4.822  11.361 -0.3212  0.6057 -0.2342
 9450TIP3    H149765   3.080   4.863  11.330 -0.3293  0.3047 -0.6678
 9450TIP3    H249766   2.945   4.815  11.282  0.6568 -2.5578 -0.7702
 9451TIP3   OH249767   4.498   3.109  13.209  0.1088 -0.0651 -0.2870
 9451TIP3    H149768   4.491   3.035  13.149  1.3753  0.0200 -0.5753
 9451TIP3    H249769   4.421   3.162  13.191  0.2894 -0.2197 -1.6011
 9452TIP3   OH249770   3.756   6.077  13.263  0.2983  0.1183  0.0199
 9452TIP3    H149771   3.779   6.114  13.348  1.2733 -1.2509  0.3889
 9452TIP3    H249772   3.841   6.066  13.218  0.1080 -1.8525  0.0405
 9453TIP3   OH249773   3.899   6.581  11.967 -0.5678  0.0209  0.6228
 9453TIP3    H149774   3.828   6.518  11.983  0.4052 -1.2408  0.2008
 9453TIP3    H249775   3.906   6.583  11.871  1.4155 -1.6316  0.6675
 9454TIP3   OH249776   3.659   2.142  11.246 -0.6129 -0.2677  0.0832
 9454TIP3    H149777   3.751   2.169  11.254 -1.1130  1.2962  1.1860
 9454TIP3    H249778   3.653   2.103  11.159  1.0889 -0.3922 -0.0241
 9455TIP3   OH249779   3.669   0.653  11.690 -0.5633 -0.5446  0.1494
 9455TIP3    H149780   3.678   0.646  11.595  0.7648 -1.0750  0.2902
 9455TIP3    H249781   3.612   0.728  11.704  0.6649  0.6551 -1.0284
 9456TIP3   OH249782   1.970   4.162  11.372  0.1957 -0.0048 -0.1174
 9456TIP3    H149783   1.973   4.086  11.431  0.8542 -0.3604 -0.5929
 9456TIP3    H249784   2.059   4.196  11.372 -0.1239  0.8521  0.1837
 9457TIP3   OH249785   3.235   3.481   2.059  0.3072  0.3345 -0.5584
 9457TIP3    H149786   3.197   3.550   2.005 -0.6608 -0.8896 -1.5105
 9457TIP3    H249787   3.184   3.403   2.037  1.9236 -0.8768 -0.1559
 9458TIP3   OH249788   6.695   0.406  14.189  0.3151 -0.3345  0.6266
 9458TIP3    H149789   6.715   0.488  14.143  2.2879 -0.8385  0.5306
 9458TIP3    H249790   6.700   0.338  14.122 -2.5051 -0.4933  0.4383
 9459TIP3   OH249791   0.257   4.672  13.833  0.4171  0.3113 -0.1297
 9459TIP3    H149792   0.287   4.590  13.871  2.4192  0.8006 -0.5231
 9459TIP3    H249793   0.243   4.652  13.741 -0.3819  0.1074  0.0333
 9460TIP3   OH249794   0.502   4.541  13.997  0.5360  0.0072 -0.5704
 9460TIP3    H149795   0.586   4.567  14.035 -0.1742  2.2635 -0.4138
 9460TIP3    H249796   0.526   4.492  13.919  2.0238 -3.4362  1.7695
 9461TIP3   OH249797   5.355   4.975   3.890  0.0921 -0.7655 -0.1511
 9461TIP3    H149798   5.364   4.920   3.968 -0.2679  0.2357  0.6294
 9461TIP3    H249799   5.424   4.946   3.831  1.0052 -0.8862  0.9506
 9462TIP3   OH249800   2.110   4.871   4.591 -0.0363  0.0060  0.0411
 9462TIP3    H149801   2.036   4.905   4.540 -0.1576 -0.8156 -0.3422
 9462TIP3    H249802   2.101   4.776   4.588  0.7538 -0.0961  0.4193
 9463TIP3   OH249803   4.931   4.236  11.672  0.6292 -0.6719 -0.0145
 9463TIP3    H149804   4.965   4.282  11.596  0.7969 -0.7017  0.0427
 9463TIP3    H249805   4.838   4.221  11.652 -0.0225  1.6773  0.9126
 9464TIP3   OH249806   6.411   5.824   2.674 -1.0227 -0.2370 -0.2853
 9464TIP3    H149807   6.440   5.880   2.603  1.8989 -1.6630 -0.3431
 9464TIP3    H249808   6.411   5.881   2.751  3.0053 -0.2263 -0.1125
 9465TIP3   OH249809   2.144   5.868   4.783  0.0760 -0.1255  0.7083
 9465TIP3    H149810   2.202   5.912   4.721  0.3176  1.1654  1.7975
 9465TIP3    H249811   2.069   5.841   4.730 -0.1107  1.6600 -0.0390
 9466TIP3   OH249812   3.024   5.640   2.520  0.0007  0.1533  0.2222
 9466TIP3    H149813   3.093   5.683   2.470 -1.4378  1.8090 -0.4342
 9466TIP3    H249814   3.038   5.669   2.611  1.0440 -0.7572  0.3739
 9467TIP3   OH249815   0.656   3.196   2.353 -1.3143 -0.1277 -0.0746
 9467TIP3    H149816   0.575   3.185   2.403 -0.9549  3.2001  1.5450
 9467TIP3    H249817   0.645   3.280   2.309  1.1879  0.3602  0.1036
 9468TIP3   OH249818   0.047   1.515  15.627 -0.0849  0.2686 -0.2433
 9468TIP3    H149819   0.097   1.443  15.591 -1.0625  0.2669 -1.6712
 9468TIP3    H249820  -0.044   1.486  15.623 -0.4280  1.2826 -0.1360
 9469TIP3   OH249821   5.693   0.368   6.667 -0.2516  0.3783  0.0126
 9469TIP3    H149822   5.782   0.358   6.634 -0.1014 -1.2613  0.7995
 9469TIP3    H249823   5.665   0.454   6.636  1.1213  0.3738 -1.3506
 9470TIP3   OH249824   6.348   1.236  11.020  0.6095 -0.3649  0.3494
 9470TIP3    H149825   6.432   1.238  11.065 -0.4727  0.4340  2.5116
 9470TIP3    H249826   6.326   1.328  11.004 -0.0792 -0.5269  0.3027
 9471TIP3   OH249827   2.577   4.891   4.000  0.1092  0.1054  0.2014
 9471TIP3    H149828   2.651   4.893   4.061 -1.3165  1.3325  2.0053
 9471TIP3    H249829   2.600   4.954   3.932  2.3304 -2.2565 -1.4196
 9472TIP3   OH249830   3.803   2.613  14.344 -0.0485 -0.0220 -0.1849
 9472TIP3    H149831   3.713   2.587  14.362  0.0779 -1.4924 -1.4613
 9472TIP3    H249832   3.830   2.662  14.422 -1.2101 -1.5287  1.2245
 9473TIP3   OH249833   5.144   3.119  15.560  0.4794 -0.4319 -0.8363
 9473TIP3    H149834   5.222   3.122  15.616  0.4268 -1.4843 -0.6974
 9473TIP3    H249835   5.084   3.060  15.604 -0.4013  0.3434 -0.9634
 9474TIP3   OH249836   1.673   5.374   2.365 -0.0825 -0.3138 -0.1454
 9474TIP3    H149837   1.681   5.333   2.279 -0.0934 -1.5245  0.4019
 9474TIP3    H249838   1.720   5.315   2.424 -1.1514 -0.1752  0.8831
 9475TIP3   OH249839   6.226   4.873   0.147  0.2100 -0.0320 -0.1564
 9475TIP3    H149840   6.189   4.814   0.213 -2.1794  1.7769  0.2565
 9475TIP3    H249841   6.209   4.960   0.182 -1.0229  1.0014 -3.0720
 9476TIP3   OH249842   1.595   1.371   6.258  0.3975  0.0746  0.0678
 9476TIP3    H149843   1.672   1.412   6.299  0.9583 -1.1131  0.2283
 9476TIP3    H249844   1.630   1.325   6.182 -0.2695  0.1046 -0.2623
 9477TIP3   OH249845   6.183   4.144   0.411  0.4029 -0.1240  0.4466
 9477TIP3    H149846   6.256   4.205   0.423  1.5115 -1.3493  0.0760
 9477TIP3    H249847   6.203   4.070   0.468  0.0728 -1.0142 -0.5477
 9478TIP3   OH249848   2.714   3.786  11.247 -0.2008  0.0706  0.5253
 9478TIP3    H149849   2.679   3.809  11.161  1.2268 -0.4902 -0.2275
 9478TIP3    H249850   2.805   3.817  11.245 -0.4925  1.1956  2.3143
 9479TIP3   OH249851   6.677   1.321   0.384  0.3435 -0.1445 -0.0276
 9479TIP3    H149852   6.764   1.296   0.412  0.5205  0.5951  0.1065
 9479TIP3    H249853   6.688   1.351   0.293  1.5075  5.8684  1.6698
 9480TIP3   OH249854   0.592   4.241  11.716  0.4089 -0.2620 -0.1079
 9480TIP3    H149855   0.629   4.290  11.788  0.4748  0.1462 -0.4157
 9480TIP3    H249856   0.622   4.286  11.637 -1.1787  0.4117 -0.3731
 9481TIP3   OH249857   2.478   0.279   3.964  0.2217  0.0419  0.1565
 9481TIP3    H149858   2.473   0.266   4.059  0.8814 -1.0996  0.0631
 9481TIP3    H249859   2.461   0.372   3.951  0.5213  0.2934  1.4327
 9482TIP3   OH249860   4.469   6.599   5.427  0.4597  0.2097  0.1425
 9482TIP3    H149861   4.374   6.605   5.426  0.4244 -0.0739  0.8644
 9482TIP3    H249862   4.494   6.587   5.336 -0.2736 -0.7913  0.0607
 9483TIP3   OH249863   1.522   2.805  13.315  0.0613  0.5442  0.0869
 9483TIP3    H149864   1.604   2.835  13.277 -0.3321  1.0534 -0.3825
 9483TIP3    H249865   1.514   2.714  13.287  0.3434  0.5676 -0.0730
 9484TIP3   OH249866   5.577   3.009   2.633 -0.5371 -0.3093 -0.3368
 9484TIP3    H149867   5.542   2.998   2.721 -2.7579 -2.0135 -1.3358
 9484TIP3    H249868   5.524   2.950   2.578  1.2719  0.0857 -2.6892
 9485TIP3   OH249869   1.791   6.636  14.476 -0.0100  0.4269 -0.1306
 9485TIP3    H149870   1.721   6.666  14.533  0.1226 -1.4670  1.1295
 9485TIP3    H249871   1.793   6.699  14.404 -1.3654  1.8828  1.0477
 9486TIP3   OH249872   1.458   4.517  15.447 -0.2793 -0.3897 -0.2572
 9486TIP3    H149873   1.537   4.533  15.497 -1.3354  0.2641  1.2877
 9486TIP3    H249874   1.467   4.428  15.415  0.8918 -0.4610  0.2256
 9487TIP3   OH249875   5.043   2.161  15.665  0.2419  0.5743  0.3942
 9487TIP3    H149876   5.022   2.068  15.660 -2.6743  1.1199  0.6857
 9487TIP3    H249877   5.047   2.180  15.758  3.0820  0.4092  0.4063
 9488TIP3   OH249878   5.713   3.282   4.474  0.7099  0.7714 -0.2056
 9488TIP3    H149879   5.685   3.343   4.543  0.3556  0.8156 -0.3832
 9488TIP3    H249880   5.641   3.219   4.467  0.0623  1.6186 -1.5431
 9489TIP3   OH249881   2.264   2.829  13.947 -0.0926  0.1327  0.4670
 9489TIP3    H149882   2.253   2.764  14.016  0.3734  0.2016  0.6104
 9489TIP3    H249883   2.278   2.912  13.994  2.8280 -0.1964  0.3981
 9490TIP3   OH249884   4.277   2.405   4.148 -0.6847 -0.4881 -0.0210
 9490TIP3    H149885   4.287   2.373   4.238  1.6064  1.3618  0.4995
 9490TIP3    H249886   4.367   2.418   4.118 -1.3793 -1.3573 -2.7453
 9491TIP3   OH249887   6.297   4.025  15.608  0.2984  0.3948 -0.0273
 9491TIP3    H149888   6.338   3.948  15.570  0.8851  0.2884  0.7871
 9491TIP3    H249889   6.316   4.019  15.702  2.9477  2.9998 -0.2395
 9492TIP3   OH249890   1.528   4.030   0.792  0.0236  0.1432  0.5706
 9492TIP3    H149891   1.611   3.985   0.779 -0.1730  0.3824 -2.2628
 9492TIP3    H249892   1.471   3.964   0.831  0.9389 -0.7031  0.5253
 9493TIP3   OH249893   3.995   5.353   4.894  0.5217  0.1454  0.4327
 9493TIP3    H149894   3.944   5.306   4.960 -0.0344  1.7830  1.2254
 9493TIP3    H249895   3.930   5.383   4.831  1.0061 -1.0733 -0.7012
 9494TIP3   OH249896   6.383   6.467   0.366 -0.0836 -0.4463  0.0500
 9494TIP3    H149897   6.455   6.530   0.359  0.4308 -0.9999  0.2969
 9494TIP3    H249898   6.364   6.461   0.459 -1.3474  0.6696 -0.0912
 9495TIP3   OH249899   5.421   3.632   1.709 -0.3613 -0.6103  0.0348
 9495TIP3    H149900   5.480   3.578   1.760 -2.7197 -2.3379  1.1079
 9495TIP3    H249901   5.442   3.611   1.618  0.6475 -1.1550  0.3788
 9496TIP3   OH249902   2.537   2.922  14.942 -0.2732 -0.0067 -0.0347
 9496TIP3    H149903   2.516   3.004  14.986  0.7186  1.6590 -2.4793
 9496TIP3    H249904   2.452   2.886  14.917 -0.7067  2.5387 -2.6831
 9497TIP3   OH249905   1.775   5.854  11.254 -0.1259  0.0628  0.1192
 9497TIP3    H149906   1.700   5.914  11.258  1.0741  1.6860 -0.6656
 9497TIP3    H249907   1.835   5.893  11.190  0.8666 -1.8339 -0.2025
 9498TIP3   OH249908   0.472   1.933   5.941 -0.0544 -0.2229  0.1336
 9498TIP3    H149909   0.413   1.936   6.017 -1.7568  0.3849 -1.1520
 9498TIP3    H249910   0.461   2.018   5.899  0.6535 -0.6513 -0.9519
 9499TIP3   OH249911   1.114   4.797  11.880  0.4416 -0.3385 -0.4154
 9499TIP3    H149912   1.161   4.736  11.937 -0.2313 -0.0682  0.4544
 9499TIP3    H249913   1.141   4.773  11.792  0.4473 -1.6846 -0.0695
 9500TIP3   OH249914   0.113   2.550  10.556 -0.2664  0.3811 -0.1351
 9500TIP3    H149915   0.149   2.612  10.619 -1.1379 -0.3763  1.1680
 9500TIP3    H249916   0.138   2.464  10.590  0.8016 -0.0192 -1.8321
 9501TIP3   OH249917   4.810   1.170  17.082  0.3838  0.0437  0.1143
 9501TIP3    H149918   4.721   1.178  17.115 -1.1569 -2.2439 -2.9593
 9501TIP3    H249919   4.853   1.252  17.107 -3.4882  2.6379 -0.9260
 9502TIP3   OH249920   0.713   5.374  15.756 -0.3927 -0.3670  0.4776
 9502TIP3    H149921   0.686   5.429  15.683  0.7940 -0.9921 -0.4568
 9502TIP3    H249922   0.801   5.402  15.777  0.2178 -1.8260  0.0232
 9503TIP3   OH249923   4.435   3.646  15.609  0.0202 -0.2610  0.6629
 9503TIP3    H149924   4.364   3.624  15.549 -1.4431 -3.3547  3.1638
 9503TIP3    H249925   4.391   3.682  15.686  0.9635 -2.5379  2.4089
 9504TIP3   OH249926   2.834   4.707  12.338  0.3224  0.3556 -0.0707
 9504TIP3    H149927   2.801   4.643  12.401  0.2818 -1.2073 -1.5924
 9504TIP3    H249928   2.857   4.784  12.390 -2.0528  0.0787  1.5163
 9505TIP3   OH249929   0.647   3.007   2.932 -0.1887  0.0831  0.4687
 9505TIP3    H149930   0.664   3.012   2.838  0.4283  1.0155  0.6196
 9505TIP3    H249931   0.633   3.098   2.959 -1.0637 -0.2373  1.1640
 9506TIP3   OH249932   6.720   4.463  11.362  0.0307  0.5448 -0.5883
 9506TIP3    H149933   6.764   4.436  11.443  0.4663  0.7061 -0.7672
 9506TIP3    H249934   6.701   4.381  11.316  0.3916  0.4851 -0.6353
 9507TIP3   OH249935   3.179   2.974  15.443 -0.4271  0.0600 -0.0633
 9507TIP3    H149936   3.180   2.915  15.368  1.5838  1.0789 -0.9221
 9507TIP3    H249937   3.249   2.941  15.500 -0.1989  0.8119  0.1029
 9508TIP3   OH249938   2.849   4.359   4.143 -0.0148 -0.2452 -0.0146
 9508TIP3    H149939   2.882   4.443   4.112  0.0950 -0.6951 -1.1726
 9508TIP3    H249940   2.782   4.381   4.207 -1.4869  0.7758 -1.8254
 9509TIP3   OH249941   1.507   6.425   5.654  0.0098  0.1517  0.0153
 9509TIP3    H149942   1.597   6.453   5.637  0.1454 -0.0825  0.3353
 9509TIP3    H249943   1.461   6.438   5.571  0.0984  1.1921  0.1162
 9510TIP3   OH249944   3.472   6.208  12.033  0.1578 -0.1974 -0.2076
 9510TIP3    H149945   3.492   6.182  11.943 -0.0280  1.4067 -0.7504
 9510TIP3    H249946   3.383   6.177  12.048  0.1271 -0.3213 -0.6343
 9511TIP3   OH249947   5.381   4.772   4.541 -0.4822 -0.0511  0.3948
 9511TIP3    H149948   5.318   4.771   4.613 -1.7335  0.3488 -0.6683
 9511TIP3    H249949   5.408   4.864   4.535  0.6894 -0.3082  1.2155
 9512TIP3   OH249950   1.519   5.695  12.282  0.2789 -0.4101  0.1703
 9512TIP3    H149951   1.603   5.685  12.237 -0.2058  0.2838 -0.9556
 9512TIP3    H249952   1.455   5.705  12.211 -0.7604 -0.8731  0.9983
 9513TIP3   OH249953   2.005   6.709   3.211 -0.6188 -0.5142  0.1382
 9513TIP3    H149954   1.970   6.691   3.124  1.3604 -0.2795 -0.7661
 9513TIP3    H249955   2.057   6.632   3.233 -0.7892 -0.4077  0.9647
 9514TIP3   OH249956   4.408   6.394   4.999 -0.1886 -0.7729 -0.4026
 9514TIP3    H149957   4.431   6.487   4.998 -1.3944 -0.4668 -1.0793
 9514TIP3    H249958   4.391   6.372   4.908 -0.4363 -1.5295 -0.1803
 9515TIP3   OH249959   2.296   3.104   3.208  0.5711  0.2735  0.1961
 9515TIP3    H149960   2.308   3.036   3.274  1.9711 -0.7030 -0.9805
 9515TIP3    H249961   2.360   3.171   3.231 -0.9361  1.3446  1.4638
 9516TIP3   OH249962   0.414   6.124   0.364 -0.2134  0.8442 -0.3183
 9516TIP3    H149963   0.383   6.204   0.406 -0.9208  0.2196  0.3888
 9516TIP3    H249964   0.340   6.064   0.369  0.2809  0.1666 -0.9082
 9517TIP3   OH249965   4.662   1.689   1.743  0.5691 -0.3010  0.1559
 9517TIP3    H149966   4.633   1.603   1.712 -0.5432 -0.0014  0.3026
 9517TIP3    H249967   4.636   1.691   1.836  0.6818  0.1454  0.1795
 9518TIP3   OH249968   3.656   6.096  16.158  0.3097  0.0104 -0.4878
 9518TIP3    H149969   3.577   6.060  16.117  1.5259 -1.1610 -1.9193
 9518TIP3    H249970   3.696   6.150  16.090  0.4409  1.1294  0.4456
 9519TIP3   OH249971   6.505   3.259  10.759  0.1868 -0.3556  0.4911
 9519TIP3    H149972   6.463   3.250  10.674 -0.2676 -1.1437  0.7942
 9519TIP3    H249973   6.453   3.326  10.804  0.6546  0.3368  0.0206
 9520TIP3   OH249974   4.173   0.596   6.077 -0.0077  0.5651 -0.4890
 9520TIP3    H149975   4.185   0.528   6.144  0.7309  1.1675  0.0008
 9520TIP3    H249976   4.123   0.664   6.121 -1.2783  0.1076 -1.1585
 9521TIP3   OH249977   6.361   0.906  15.835 -0.2903  0.2137  0.5290
 9521TIP3    H149978   6.413   0.874  15.909  1.2395  1.2798 -0.0164
 9521TIP3    H249979   6.273   0.871  15.850  0.7642 -2.5354  0.9812
 9522TIP3   OH249980   4.243   0.478   1.830 -0.2296  0.5781  0.2481
 9522TIP3    H149981   4.282   0.564   1.809  3.5532 -0.8169  0.7181
 9522TIP3    H249982   4.250   0.472   1.925 -0.3967 -0.2959  0.2076
 9523TIP3   OH249983   2.952   1.152   3.863  0.4383 -0.0380  0.1449
 9523TIP3    H149984   3.024   1.162   3.800 -0.4176 -0.0811 -0.8711
 9523TIP3    H249985   2.994   1.157   3.949  1.5150  0.9772 -0.4195
 9524TIP3   OH249986   1.329   6.587   4.504  0.0555 -0.0715 -0.2899
 9524TIP3    H149987   1.272   6.662   4.519  1.7755  1.3555 -0.5342
 9524TIP3    H249988   1.338   6.583   4.409  0.3690 -0.2690 -0.2530
 9525TIP3   OH249989   4.234   0.193   6.081  0.5475  0.8143  0.2107
 9525TIP3    H149990   4.232   0.288   6.089 -0.5246  0.9815 -1.4977
 9525TIP3    H249991   4.321   0.174   6.044  0.7405  1.1321  0.4954
 9526TIP3   OH249992   5.841   2.534  11.884 -0.4350  0.2132 -0.1501
 9526TIP3    H149993   5.851   2.555  11.791 -2.1903 -0.7505 -0.6220
 9526TIP3    H249994   5.895   2.456  11.897 -0.0371  0.4613 -0.3129
 9527TIP3   OH249995   6.233   6.051   5.877 -0.0027 -0.0976 -0.4615
 9527TIP3    H149996   6.308   5.998   5.903  0.8577  0.6988 -1.2938
 9527TIP3    H249997   6.266   6.110   5.810 -1.1414  0.9623 -0.1246
 9528TIP3   OH249998   2.611   5.559   5.016 -0.2319 -0.1406 -0.5920
 9528TIP3    H149999   2.705   5.548   5.004 -0.1351 -2.3872  1.6248
 9528TIP3    H250000   2.603   5.637   5.072  0.6239 -1.8981  2.1507
 9529TIP3   OH250001   4.196   5.563   0.735  0.1690 -0.3210 -0.2954
 9529TIP3    H150002   4.288   5.583   0.718  1.0494 -2.6996  1.2027
 9529TIP3    H250003   4.150   5.593   0.657  1.7713  3.3374 -0.0467
 9530TIP3   OH250004   1.437   2.683  14.768  0.5111  0.0097  0.5469
 9530TIP3    H150005   1.472   2.752  14.711 -1.3984  0.9775  0.4744
 9530TIP3    H250006   1.451   2.602  14.719  0.9408  0.5845 -0.2951
 9531TIP3   OH250007   6.082   4.042  17.102  0.1306  0.1859  0.2180
 9531TIP3    H150008   6.106   4.034  17.195 -0.7307 -0.9085  0.3660
 9531TIP3    H250009   5.987   4.052  17.102  0.2675  1.8374 -0.4931
 9532TIP3   OH250010   0.143   3.153  13.920 -0.3109 -0.2505  0.2785
 9532TIP3    H150011   0.106   3.116  13.840  0.7179 -0.5126 -0.0863
 9532TIP3    H250012   0.210   3.090  13.947  0.8781  0.9115  0.1243
 9533TIP3   OH250013   2.997   4.796  14.451 -0.3392 -0.0697 -0.4067
 9533TIP3    H150014   3.000   4.891  14.446  3.0487 -0.0489 -0.0238
 9533TIP3    H250015   2.953   4.769  14.370 -0.4206  1.7642 -1.0120
 9534TIP3   OH250016   6.791   5.409   0.541  0.1455  0.0355  0.6520
 9534TIP3    H150017   6.768   5.326   0.500  0.8618  0.2224 -0.1577
 9534TIP3    H250018   6.876   5.393   0.581  0.1121  0.2806  0.8245
 9535TIP3   OH250019   5.776   6.284  15.432  0.1827 -0.3864  0.0599
 9535TIP3    H150020   5.757   6.218  15.499  0.3492 -0.5125 -0.0164
 9535TIP3    H250021   5.799   6.362  15.482  2.0481 -0.9602  0.1740
 9536TIP3   OH250022   6.461   0.940  12.658 -0.2025 -0.1258  0.0198
 9536TIP3    H150023   6.513   0.923  12.580 -0.4482  0.7033 -0.3363
 9536TIP3    H250024   6.422   1.026  12.643 -0.8341 -0.2716  0.7397
 9537TIP3   OH250025   0.155   4.010  15.295  0.5112 -0.2392 -0.1750
 9537TIP3    H150026   0.237   3.960  15.297  2.1974  2.2859 -0.1843
 9537TIP3    H250027   0.138   4.032  15.387 -0.5798 -1.2957 -0.0985
 9538TIP3   OH250028   2.427   1.752   4.633 -0.4430  0.5581 -0.3204
 9538TIP3    H150029   2.406   1.790   4.718  0.6723  0.1179  0.1761
 9538TIP3    H250030   2.505   1.799   4.603 -0.3656  0.1809 -0.7310
 9539TIP3   OH250031   0.506   6.211   0.013  0.1927 -0.7357  0.6175
 9539TIP3    H150032   0.523   6.212  -0.082 -0.0968  0.8009  0.5465
 9539TIP3    H250033   0.438   6.145   0.024 -0.8812  0.1335 -0.4846
 9540TIP3   OH250034   0.386   2.723   3.848 -0.0221 -0.1013  0.2728
 9540TIP3    H150035   0.416   2.634   3.830 -0.9822 -0.9031  2.2263
 9540TIP3    H250036   0.425   2.744   3.933  1.0116  1.7919 -0.6075
 9541TIP3   OH250037   3.446   3.894  10.906  0.1165 -0.2157  0.0359
 9541TIP3    H150038   3.403   3.813  10.879 -1.9361  0.1542  1.8659
 9541TIP3    H250039   3.373   3.955  10.921  1.4563  1.2587  0.8599
 9542TIP3   OH250040   4.583   4.796   6.265  0.0098  0.7603 -0.3148
 9542TIP3    H150041   4.517   4.860   6.237 -0.9023  0.1743  0.4149
 9542TIP3    H250042   4.564   4.718   6.213  0.5391  0.7834 -0.5498
 9543TIP3   OH250043   3.303   2.432   4.460  0.8200  0.0639 -0.0478
 9543TIP3    H150044   3.213   2.441   4.430  1.3845  1.3308 -1.5094
 9543TIP3    H250045   3.297   2.383   4.542 -1.0822 -0.8546 -0.6813
 9544TIP3   OH250046   3.621   0.166   0.479  0.3626  0.4339  0.0755
 9544TIP3    H150047   3.644   0.255   0.453  1.3490  0.1972  0.0903
 9544TIP3    H250048   3.593   0.124   0.397  0.5456  0.5691 -0.0584
 9545TIP3   OH250049   5.271   5.708   1.290  0.0633 -0.1645 -0.6700
 9545TIP3    H150050   5.282   5.738   1.380 -0.9938 -0.9138 -0.2641
 9545TIP3    H250051   5.276   5.612   1.295 -0.1545 -0.2215 -1.3785
 9546TIP3   OH250052   2.863   5.777   3.294  0.0566  0.1241 -0.6433
 9546TIP3    H150053   2.854   5.873   3.292 -1.4803 -0.0112 -0.7148
 9546TIP3    H250054   2.851   5.750   3.203 -2.0380 -0.3224 -0.2813
 9547TIP3   OH250055   3.560   1.813  12.709 -0.1185 -0.3208  0.5542
 9547TIP3    H150056   3.512   1.778  12.634 -1.1019  0.3904  0.8443
 9547TIP3    H250057   3.644   1.767  12.706 -0.3179 -0.6525 -0.6999
 9548TIP3   OH250058   4.382   0.684   5.215 -0.4929 -0.8138  0.0216
 9548TIP3    H150059   4.467   0.666   5.255 -0.4832  0.4570  0.6355
 9548TIP3    H250060   4.335   0.734   5.281 -0.6779  0.8919 -1.3398
 9549TIP3   OH250061   0.116   1.077  16.267  0.5784 -0.0272 -0.7729
 9549TIP3    H150062   0.147   1.138  16.334  1.0201 -0.8184 -0.2390
 9549TIP3    H250063   0.192   1.021  16.249  0.1612 -0.4684 -1.1862
 9550TIP3   OH250064   1.698   6.794  11.822 -0.3334  0.6145 -0.4941
 9550TIP3    H150065   1.655   6.766  11.903  1.6941  0.9285  0.7672
 9550TIP3    H250066   1.791   6.772  11.836  0.0301  0.3983 -2.8741
 9551TIP3   OH250067   3.402   3.071  11.811  0.2092  0.1257 -0.3783
 9551TIP3    H150068   3.418   3.048  11.720  1.1654 -1.5599  0.1599
 9551TIP3    H250069   3.480   3.120  11.838 -0.2444  0.9602 -0.5553
 9552TIP3   OH250070   2.806   3.771   3.211  0.3724  0.4582 -0.1307
 9552TIP3    H150071   2.864   3.846   3.208  0.2859  0.5001 -0.8639
 9552TIP3    H250072   2.734   3.799   3.268  0.9126  0.5066  0.5414
 9553TIP3   OH250073   4.754   4.928   3.959  0.2544  0.4177 -0.1467
 9553TIP3    H150074   4.683   4.982   3.995 -0.6242 -1.9087  1.8589
 9553TIP3    H250075   4.741   4.932   3.864  0.4784  3.9067 -0.1653
 9554TIP3   OH250076   2.383   2.923  16.892  0.2138 -0.0940  0.2208
 9554TIP3    H150077   2.379   2.923  16.797 -1.7266  2.9219  0.1546
 9554TIP3    H250078   2.292   2.938  16.920  0.5860 -1.6421  2.6306
 9555TIP3   OH250079   0.405   3.870   0.559  0.9365  0.0398 -0.0415
 9555TIP3    H150080   0.432   3.911   0.641 -0.6153 -0.6793  0.8528
 9555TIP3    H250081   0.487   3.839   0.520  1.5395 -1.1248  2.0497
 9556TIP3   OH250082   3.937   2.325   2.931 -0.7248 -0.2431 -0.1788
 9556TIP3    H150083   3.964   2.397   2.874  0.0597 -0.2025  0.2336
 9556TIP3    H250084   3.899   2.367   3.007 -0.6805 -0.2687 -0.1422
 9557TIP3   OH250085   4.687   6.309   2.099  0.4663 -0.1797  0.1350
 9557TIP3    H150086   4.744   6.240   2.134  2.4731  1.4560  0.2119
 9557TIP3    H250087   4.659   6.358   2.176  1.1249  0.6199 -0.1229
 9558TIP3   OH250088   5.726   4.715   2.990  0.3222 -0.5837  0.7067
 9558TIP3    H150089   5.779   4.755   2.921 -0.7753  0.0675  0.2195
 9558TIP3    H250090   5.743   4.767   3.068  0.4495 -0.4251  0.5715
 9559TIP3   OH250091   0.180   1.896  14.375  0.2572 -0.1169  0.4244
 9559TIP3    H150092   0.234   1.884  14.297  0.8564 -0.2671  0.8597
 9559TIP3    H250093   0.242   1.913  14.445 -0.3068  0.6295  0.7626
 9560TIP3   OH250094   1.517   1.939   3.237  0.7296 -0.1368 -0.3470
 9560TIP3    H150095   1.594   1.888   3.212  1.4882  0.4382  0.7130
 9560TIP3    H250096   1.483   1.974   3.154  1.9998  0.1328 -0.7831
 9561TIP3   OH250097   5.406   3.650  12.485 -0.1266  0.1096  0.0882
 9561TIP3    H150098   5.468   3.582  12.459  1.0995  1.6319 -1.1723
 9561TIP3    H250099   5.425   3.665  12.578 -0.2866 -1.0962  0.3346
 9562TIP3   OH250100   1.276   2.038   5.591 -0.3684  0.4781 -0.1659
 9562TIP3    H150101   1.204   2.095   5.563 -0.9226  0.0364  0.3399
 9562TIP3    H250102   1.311   2.081   5.669  0.1743  0.8911 -0.6236
 9563TIP3   OH250103   5.556   1.507   2.014 -0.1022 -0.4022  0.4265
 9563TIP3    H150104   5.464   1.527   2.032  0.1909  0.9552  0.5708
 9563TIP3    H250105   5.604   1.552   2.084  0.6427 -2.0640  1.0500
 9564TIP3   OH250106   6.103   4.316   0.904  0.1121 -0.2302  0.5066
 9564TIP3    H150107   6.149   4.232   0.900  0.6695  0.0978 -2.2042
 9564TIP3    H250108   6.012   4.295   0.879  0.5887  0.0691 -1.7658
 9565TIP3   OH250109   6.370   0.710   0.304 -0.5871  0.0497 -0.2167
 9565TIP3    H150110   6.438   0.710   0.371 -0.9222 -0.9356  0.1367
 9565TIP3    H250111   6.299   0.761   0.342 -1.5584 -2.1131  1.0278
 9566TIP3   OH250112   3.884   6.660  15.537  0.5207 -0.5613 -0.5960
 9566TIP3    H150113   3.942   6.585  15.522  0.6419 -0.6297  0.1787
 9566TIP3    H250114   3.814   6.625  15.592  0.2697 -0.2414 -0.7120
 9567TIP3   OH250115   5.896   2.048   0.258  0.6502  0.1194 -0.1989
 9567TIP3    H150116   5.974   2.006   0.294  1.1740  1.4879  0.3043
 9567TIP3    H250117   5.888   2.130   0.305 -1.9755 -0.6176  0.8235
 9568TIP3   OH250118   5.107   2.404   1.482  0.2236 -0.1474  0.2069
 9568TIP3    H150119   5.026   2.453   1.472 -0.5499 -1.3451  0.3794
 9568TIP3    H250120   5.176   2.463   1.451 -0.8052  0.5747 -0.7413
 9569TIP3   OH250121   3.231   2.958   1.953 -0.2512 -0.3810 -0.2426
 9569TIP3    H150122   3.293   2.886   1.969  1.2088  1.1491  1.3779
 9569TIP3    H250123   3.267   3.032   2.002 -3.1445  0.7231  0.3950
 9570TIP3   OH250124   0.306   0.535  15.557 -0.3357 -0.2444  0.5541
 9570TIP3    H150125   0.371   0.483  15.510  0.2503 -0.0736  1.1698
 9570TIP3    H250126   0.276   0.477  15.627  0.6568  0.3859  1.5309
 9571TIP3   OH250127   6.073   0.600  13.733  0.1339  0.5583 -0.0843
 9571TIP3    H150128   6.076   0.590  13.638  0.5305  4.9052 -0.7199
 9571TIP3    H250129   5.987   0.566  13.758  0.4907 -1.7951 -1.7074
 9572TIP3   OH250130   3.082   3.248   2.673  0.0824 -0.3113 -0.2145
 9572TIP3    H150131   3.007   3.205   2.715  0.6273 -0.4977  0.5984
 9572TIP3    H250132   3.116   3.308   2.740  0.1740  0.3734 -0.8552
 9573TIP3   OH250133   1.587   3.694   0.678  0.8363 -0.1153  0.0058
 9573TIP3    H150134   1.634   3.762   0.727 -0.3260  0.2035  0.7277
 9573TIP3    H250135   1.567   3.627   0.743  2.3226 -1.3903 -0.7819
 9574TIP3   OH250136   0.648   3.371   4.200  0.2801  0.3535  1.2442
 9574TIP3    H150137   0.638   3.281   4.171 -2.9552  0.3924  1.8556
 9574TIP3    H250138   0.742   3.382   4.214  0.7324 -3.0640  1.6369
 9575TIP3   OH250139   5.965   2.007   2.008 -0.2642  0.3702 -0.0906
 9575TIP3    H150140   5.870   2.007   1.998 -0.3758 -1.5836  0.5729
 9575TIP3    H250141   5.984   2.090   2.052 -1.3464  1.9205 -2.3016
 9576TIP3   OH250142   4.979   3.510  13.669 -0.2076 -0.2141  0.2085
 9576TIP3    H150143   5.025   3.449  13.611 -0.5376 -0.6489  0.3965
 9576TIP3    H250144   5.047   3.542  13.729  0.0375 -0.1292 -0.1101
 9577TIP3   OH250145   2.428   1.960   1.490 -0.5128 -0.1783 -0.5258
 9577TIP3    H150146   2.412   2.053   1.471  1.6343  0.2669 -0.3586
 9577TIP3    H250147   2.523   1.953   1.499 -0.4294 -2.7148 -2.2473
 9578TIP3   OH250148   5.130   3.756   2.336  0.1734  0.0126  0.5910
 9578TIP3    H150149   5.054   3.764   2.394 -0.3672  0.0869 -0.1086
 9578TIP3    H250150   5.148   3.847   2.309 -0.1393 -0.1012 -0.0401
 9579TIP3   OH250151   4.050   2.415  15.799  0.0897  0.2211  0.1326
 9579TIP3    H150152   3.995   2.431  15.876 -1.0414 -0.4542 -0.5152
 9579TIP3    H250153   4.078   2.503  15.771  1.0854  0.4448  1.6810
 9580TIP3   OH250154   4.004   0.031  11.991  0.3742  0.2827 -0.0525
 9580TIP3    H150155   3.918   0.073  11.986  0.8715  1.6065  1.5306
 9580TIP3    H250156   3.985  -0.063  11.986 -1.2529  0.5091  1.0250
 9581TIP3   OH250157   0.523   1.750   1.135  0.2924  0.5912  0.3633
 9581TIP3    H150158   0.539   1.790   1.049  1.5720 -1.3598 -0.3747
 9581TIP3    H250159   0.560   1.812   1.197 -0.8248  2.1371 -0.4396
 9582TIP3   OH250160   3.628   6.503  16.850  0.5243 -0.0339 -0.0086
 9582TIP3    H150161   3.544   6.489  16.806  0.1380 -0.4092  0.8171
 9582TIP3    H250162   3.606   6.500  16.944  1.7479 -2.1171  0.2642
 9583TIP3   OH250163   5.452   0.829   3.686 -0.0368  0.5637 -1.2164
 9583TIP3    H150164   5.387   0.834   3.756 -0.2354  1.0920 -1.4362
 9583TIP3    H250165   5.487   0.740   3.693  0.3718  0.7923 -0.0677
 9584TIP3   OH250166   2.875   5.323  15.110 -0.0925  0.2390  0.4950
 9584TIP3    H150167   2.859   5.281  15.194 -0.0446 -1.0781 -0.1297
 9584TIP3    H250168   2.814   5.397  15.108 -0.1099  0.2772  1.6601
 9585TIP3   OH250169   1.571   3.430   2.408  0.0987 -0.7084 -0.6194
 9585TIP3    H150170   1.490   3.479   2.391 -1.7902 -2.7435  1.6238
 9585TIP3    H250171   1.556   3.344   2.367  1.8624 -0.6282 -1.5366
 9586TIP3   OH250172   0.310   2.382   1.160  0.0534 -0.2922 -0.1470
 9586TIP3    H150173   0.229   2.337   1.185  0.0559  0.0125  0.4226
 9586TIP3    H250174   0.340   2.424   1.241  0.5756 -0.0837 -0.4452
 9587TIP3   OH250175   1.947   6.261  13.440  0.4362  0.5071  0.3080
 9587TIP3    H150176   1.976   6.339  13.394 -1.1282  1.2270  0.4965
 9587TIP3    H250177   1.858   6.245  13.408  0.6861 -1.1577  0.3357
 9588TIP3   OH250178   2.830   1.716   3.838 -0.1649  0.1187 -0.7615
 9588TIP3    H150179   2.773   1.724   3.762  1.5575  2.0743 -1.9368
 9588TIP3    H250180   2.904   1.664   3.807 -0.1368 -0.3385  0.0368
 9589TIP3   OH250181   1.179   6.750  11.378 -0.2597  0.3983  0.5572
 9589TIP3    H150182   1.221   6.725  11.461 -2.5566 -3.4242  0.8120
 9589TIP3    H250183   1.252   6.764  11.318  1.4284  0.8869  2.6022
 9590TIP3   OH250184   0.441   5.490   0.788  0.1800  0.1014  0.4167
 9590TIP3    H150185   0.458   5.401   0.757 -1.5618  0.5744 -2.2198
 9590TIP3    H250186   0.520   5.539   0.764  1.5998 -0.8188  2.8186
 9591TIP3   OH250187   2.471   0.290   5.397 -0.0814 -0.2734 -0.2475
 9591TIP3    H150188   2.453   0.196   5.389  0.3364 -0.3872  0.1424
 9591TIP3    H250189   2.521   0.299   5.478 -1.5254  0.4934  0.5918
 9592TIP3   OH250190   6.288   3.374  11.425  0.2118  0.2029 -0.1224
 9592TIP3    H150191   6.337   3.340  11.350  0.0567  0.5942 -0.4060
 9592TIP3    H250192   6.214   3.420  11.385 -0.6320 -0.7475  0.3084
 9593TIP3   OH250193   5.057   2.934  14.864 -0.1840 -0.1377 -0.5992
 9593TIP3    H150194   5.021   3.019  14.836 -0.4245  0.2549  0.8330
 9593TIP3    H250195   4.990   2.896  14.920  0.0374 -1.1689 -1.0164
 9594TIP3   OH250196   2.679   5.552   0.366  0.5922  0.5675 -0.3539
 9594TIP3    H150197   2.631   5.612   0.423  0.5061 -0.5549  0.8159
 9594TIP3    H250198   2.641   5.565   0.279  0.0479  1.6296  0.0346
 9595TIP3   OH250199   5.908   3.726   3.343  0.0859 -0.0709  0.1484
 9595TIP3    H150200   5.898   3.719   3.248 -0.6677 -1.3695  0.2987
 9595TIP3    H250201   5.862   3.806   3.366  0.7164  0.5342 -0.6352
 9596TIP3   OH250202   1.668   3.272   2.080  0.2345 -0.6377 -0.4629
 9596TIP3    H150203   1.573   3.266   2.076  0.2110  0.2368 -1.6326
 9596TIP3    H250204   1.688   3.267   2.174 -0.7796 -3.0123 -0.3163
 9597TIP3   OH250205   0.907   2.400  15.840  0.3117 -0.0093  0.2889
 9597TIP3    H150206   0.852   2.380  15.763  0.4956 -1.5110  0.5026
 9597TIP3    H250207   0.908   2.318  15.889 -1.9025  1.5703  3.2860
 9598TIP3   OH250208   6.223   4.251  11.486  0.2907 -0.4061  0.2493
 9598TIP3    H150209   6.289   4.258  11.418  2.2534 -0.7872  2.0033
 9598TIP3    H250210   6.230   4.333  11.535 -0.6977 -0.3608  0.3355
 9599TIP3   OH250211   3.776   2.987  15.253 -0.5744  0.0633 -0.0901
 9599TIP3    H150212   3.705   2.923  15.243  0.3796 -0.8051 -1.9240
 9599TIP3    H250213   3.855   2.934  15.265 -0.3591  1.0030  4.3936
 9600TIP3   OH250214   6.433   3.518  16.758  0.6879  0.0226  0.3882
 9600TIP3    H150215   6.366   3.503  16.825 -0.7091  3.1074 -0.1480
 9600TIP3    H250216   6.384   3.530  16.677  2.1970 -1.2784 -0.7673
 9601TIP3   OH250217   2.785   6.084  12.957  0.7729 -0.5311  0.3534
 9601TIP3    H150218   2.858   6.113  13.011  1.3523 -0.9613 -0.1883
 9601TIP3    H250219   2.800   5.991  12.943 -0.5315 -0.8893  1.2247
 9602TIP3   OH250220   2.412   2.741  15.195  0.5169  0.1981  0.7266
 9602TIP3    H150221   2.410   2.827  15.153  0.6420  1.3139  2.8813
 9602TIP3    H250222   2.323   2.707  15.182  0.8501 -0.0547 -1.3829
 9603TIP3   OH250223   5.816   3.591   0.397 -0.7527 -0.4207 -0.7460
 9603TIP3    H150224   5.735   3.552   0.363 -0.0733 -1.5788 -1.1103
 9603TIP3    H250225   5.859   3.519   0.444 -0.9798  0.7620  1.3843
 9604TIP3   OH250226   4.634   1.461   2.816  0.4870 -0.1129  0.2293
 9604TIP3    H150227   4.630   1.397   2.745  0.6520  1.4524 -1.2640
 9604TIP3    H250228   4.543   1.489   2.828  0.1268 -1.8160  2.1134
 9605TIP3   OH250229   1.001   0.652  12.737  0.0797  0.3757  0.4309
 9605TIP3    H150230   0.988   0.560  12.714  0.4508  0.2283  0.8038
 9605TIP3    H250231   1.002   0.698  12.653 -0.3623  0.0727  0.2602
 9606TIP3   OH250232   3.082   2.323  16.019 -0.4379 -1.1479 -0.2788
 9606TIP3    H150233   3.139   2.400  16.020 -0.9589 -0.7241 -1.2627
 9606TIP3    H250234   3.047   2.321  15.930 -1.7154 -1.5706  0.2164
 9607TIP3   OH250235   6.710   3.536  12.809 -0.2544  0.7249 -0.0153
 9607TIP3    H150236   6.799   3.515  12.835 -0.1863  0.4694 -0.4451
 9607TIP3    H250237   6.665   3.558  12.891 -0.1017 -0.2465  0.3376
 9608TIP3   OH250238   3.653   5.566  12.256  0.3318  0.0831  0.4604
 9608TIP3    H150239   3.599   5.621  12.314  0.6570 -0.3531  1.1963
 9608TIP3    H250240   3.593   5.538  12.187 -0.3434 -0.2499  1.1649
 9609TIP3   OH250241   0.188   5.132   1.861 -0.2760  0.0494 -0.0452
 9609TIP3    H150242   0.182   5.064   1.928 -0.2149 -0.0967 -0.1879
 9609TIP3    H250243   0.267   5.181   1.883  0.4584 -0.7915 -0.7511
 9610TIP3   OH250244   4.484   3.778  11.968 -0.1598 -0.7803 -0.1585
 9610TIP3    H150245   4.507   3.770  11.875 -1.4828  0.3359 -0.6132
 9610TIP3    H250246   4.498   3.871  11.988  0.7394 -1.1247  0.9562
 9611TIP3   OH250247   3.935   1.844  13.980  0.6900 -0.3252  0.2874
 9611TIP3    H150248   3.997   1.869  14.049  0.2736 -0.5120  0.7376
 9611TIP3    H250249   3.985   1.851  13.899  0.5943  2.0420  0.3571
 9612TIP3   OH250250   6.756   5.641  16.325  0.0975  0.5442  0.2406
 9612TIP3    H150251   6.826   5.631  16.261  0.0913  0.5279  0.2378
 9612TIP3    H250252   6.677   5.610  16.281  0.0961  0.5177  0.2622
 9613TIP3   OH250253   4.762   0.031  11.753  0.3738  0.8008 -0.1227
 9613TIP3    H150254   4.835  -0.020  11.717 -0.5169 -0.3349 -0.3548
 9613TIP3    H250255   4.724  -0.025  11.820  0.2194  1.7369  0.5967
 9614TIP3   OH250256   0.023   4.072   5.591 -0.1923 -0.3426 -0.8452
 9614TIP3    H150257   0.007   4.045   5.500 -1.1467 -1.5470 -0.3347
 9614TIP3    H250258  -0.057   4.119   5.616  0.5258  0.9964 -0.9673
 9615TIP3   OH250259   0.376   1.202   3.178 -0.4836  0.1073 -0.1079
 9615TIP3    H150260   0.406   1.144   3.248 -0.7889  1.7233  1.4400
 9615TIP3    H250261   0.435   1.184   3.105  0.5711 -0.8610  0.9364
 9616TIP3   OH250262   5.096   2.593   5.383 -0.1778  0.3566  0.1155
 9616TIP3    H150263   5.089   2.499   5.400  0.4616  0.0334 -1.2894
 9616TIP3    H250264   5.011   2.617   5.345 -0.7692  0.6090  1.5485
 9617TIP3   OH250265   2.274   1.776  13.589  0.1761 -0.1105  0.1175
 9617TIP3    H150266   2.274   1.854  13.534  0.1962 -1.3098 -1.6646
 9617TIP3    H250267   2.236   1.805  13.672  0.4457  1.8427 -0.3971
 9618TIP3   OH250268   3.884   3.348   0.219 -0.0004 -0.1924  0.2171
 9618TIP3    H150269   3.824   3.376   0.150  1.0964  0.6706 -0.4264
 9618TIP3    H250270   3.857   3.396   0.297 -0.8442 -0.6815  0.2349
 9619TIP3   OH250271   4.451   6.117   0.561  0.4402 -0.1072  0.8364
 9619TIP3    H150272   4.401   6.191   0.596  0.2339  0.0883  0.1372
 9619TIP3    H250273   4.519   6.157   0.507  1.8489 -0.3302  2.3381
 9620TIP3   OH250274   1.267   4.442   4.803  0.0752  0.5422  0.3338
 9620TIP3    H150275   1.219   4.523   4.820 -1.9794 -0.0051 -2.2656
 9620TIP3    H250276   1.345   4.470   4.756  0.0423  1.0779  0.5840
 9621TIP3   OH250277   5.713   6.683   1.123 -0.4573 -0.0150 -0.3791
 9621TIP3    H150278   5.651   6.754   1.106 -0.8483 -0.6688 -1.8055
 9621TIP3    H250279   5.673   6.633   1.194 -0.9354  0.2978 -0.4221
 9622TIP3   OH250280   6.560   0.008   3.985  0.2783  0.2307  0.5849
 9622TIP3    H150281   6.595  -0.040   4.060 -0.3353  1.3739  1.6510
 9622TIP3    H250282   6.638   0.039   3.938  0.6938 -1.9252 -0.2761
 9623TIP3   OH250283   1.347   4.857   5.436 -0.2721 -0.4188  0.3331
 9623TIP3    H150284   1.270   4.890   5.390 -0.1856  0.1563  0.5952
 9623TIP3    H250285   1.350   4.764   5.414  0.5776  0.0979 -1.9612
 9624TIP3   OH250286   4.241   4.295  16.799 -0.5761 -0.1498 -0.8649
 9624TIP3    H150287   4.230   4.203  16.820  0.5661 -0.4966 -1.6754
 9624TIP3    H250288   4.166   4.316  16.743 -1.0614 -0.4738 -0.3382
 9625TIP3   OH250289   6.592   2.093   6.176 -0.3700 -0.1309 -0.3285
 9625TIP3    H150290   6.512   2.102   6.125 -0.6361 -1.8488 -0.2793
 9625TIP3    H250291   6.572   2.131   6.262 -0.3206  1.6322 -1.0566
 9626TIP3   OH250292   2.471   0.533   2.079 -1.1458 -0.0117  0.0398
 9626TIP3    H150293   2.467   0.470   2.007 -2.7374  1.5060 -1.2729
 9626TIP3    H250294   2.563   0.559   2.084 -0.7667 -1.1860 -0.4869
 9627TIP3   OH250295   2.446   3.907   3.107 -0.3505  0.4117 -0.0338
 9627TIP3    H150296   2.473   3.978   3.049 -0.5053  1.3082  0.9559
 9627TIP3    H250297   2.459   3.942   3.195 -0.7038 -0.6913  0.4760
 9628TIP3   OH250298   3.512   0.492  13.587  0.4206  0.5527  0.1654
 9628TIP3    H150299   3.439   0.543  13.622  0.8075  0.4643  1.1221
 9628TIP3    H250300   3.491   0.482  13.494 -0.9047  0.3338  0.4598
 9629TIP3   OH250301   2.546   0.368  15.586 -0.0340  0.1331 -0.1203
 9629TIP3    H150302   2.533   0.445  15.531 -0.6182  1.3542  1.6375
 9629TIP3    H250303   2.463   0.320  15.581  0.5039 -0.7204 -1.6261
 9630TIP3   OH250304   1.348   2.486   1.543 -0.5329 -0.6377 -0.2507
 9630TIP3    H150305   1.308   2.461   1.627  1.6946 -0.9935  0.7692
 9630TIP3    H250306   1.442   2.483   1.559 -0.0149 -1.1544 -2.9210
 9631TIP3   OH250307   3.642   5.250   4.685  0.1071 -0.0813 -0.6084
 9631TIP3    H150308   3.677   5.338   4.702 -1.7692  0.3396  1.7312
 9631TIP3    H250309   3.696   5.192   4.738  1.3030 -0.3569 -2.0995
 9632TIP3   OH250310   1.259   5.156   1.014 -0.0756  0.7398  0.1822
 9632TIP3    H150311   1.279   5.122   0.926 -0.1278  2.2589 -0.4352
 9632TIP3    H250312   1.194   5.224   0.999 -1.2950 -0.0514  1.5847
 9633TIP3   OH250313   0.808   3.208  12.429  0.3588 -0.3250  0.2703
 9633TIP3    H150314   0.850   3.196  12.344 -0.0552  0.5054 -0.0732
 9633TIP3    H250315   0.768   3.123  12.449 -0.0820 -0.3574 -0.6798
 9634TIP3   OH250316   5.146   2.308  14.944 -0.0286  0.8040  0.1696
 9634TIP3    H150317   5.196   2.232  14.974 -1.5238 -0.0624  0.5125
 9634TIP3    H250318   5.196   2.383  14.976  2.0385  0.0450 -1.0414
 9635TIP3   OH250319   2.817   2.926  15.143  0.0111 -0.5185  0.3346
 9635TIP3    H150320   2.813   2.896  15.053 -1.2110  1.5772 -0.3908
 9635TIP3    H250321   2.769   2.860  15.193 -0.3025 -1.1149 -0.7268
 9636TIP3   OH250322   6.470   5.035   2.913 -0.0546 -0.1188  0.1371
 9636TIP3    H150323   6.519   5.035   2.995 -0.6398 -0.0031  0.4933
 9636TIP3    H250324   6.411   5.110   2.920 -0.9041 -0.7650  0.1003
 9637TIP3   OH250325   2.310   2.014   5.373 -0.2539 -0.2610 -0.4346
 9637TIP3    H150326   2.386   1.995   5.427 -0.5143  1.1268  0.4992
 9637TIP3    H250327   2.345   2.030   5.286  0.7564  1.6384  0.2462
 9638TIP3   OH250328   6.320   4.349  13.160 -0.3975  0.2517  0.4342
 9638TIP3    H150329   6.334   4.437  13.126  0.3065  0.8986  2.3063
 9638TIP3    H250330   6.226   4.334  13.147 -0.3443  0.8559 -0.8125
 9639TIP3   OH250331   4.848   4.683  13.082  0.0606  0.6005  0.0033
 9639TIP3    H150332   4.914   4.721  13.140  0.5542 -1.9125  1.2563
 9639TIP3    H250333   4.874   4.591  13.075 -1.9537  0.0936 -1.4595
 9640TIP3   OH250334   2.882   3.271   5.465 -0.5870 -0.4603 -0.2068
 9640TIP3    H150335   2.940   3.249   5.392 -0.4440 -0.1019 -0.2052
 9640TIP3    H250336   2.909   3.359   5.491 -0.3401 -0.7497  0.5666
 9641TIP3   OH250337   2.301   3.619  11.438  0.3332 -0.2595 -0.3979
 9641TIP3    H150338   2.302   3.623  11.343 -2.4323  2.6183 -0.4522
 9641TIP3    H250339   2.231   3.558  11.459 -0.3076  0.5013 -0.2729
 9642TIP3   OH250340   1.418   1.694   0.856 -0.6318  0.5133  0.8153
 9642TIP3    H150341   1.423   1.624   0.921  1.5227 -1.9746 -1.7619
 9642TIP3    H250342   1.367   1.657   0.785 -0.7002  2.1493 -0.0249
 9643TIP3   OH250343   6.695   1.182  12.723 -0.0786  0.1934  0.6404
 9643TIP3    H150344   6.722   1.160  12.812 -0.9804 -0.2275  0.8238
 9643TIP3    H250345   6.601   1.199  12.730 -0.2913 -0.4704 -0.3278
 9644TIP3   OH250346   2.823   6.327  12.418  0.1271  0.4448 -0.2100
 9644TIP3    H150347   2.806   6.258  12.482  2.6923 -0.1702 -0.0791
 9644TIP3    H250348   2.840   6.405  12.471 -0.9700  0.7642 -0.3002
 9645TIP3   OH250349   2.911   0.748  12.045  0.0692 -0.2763 -0.0610
 9645TIP3    H150350   2.841   0.755  11.979 -0.0447  0.3895  0.1319
 9645TIP3    H250351   2.991   0.735  11.993  0.1094  1.1167 -0.3921
 9646TIP3   OH250352   6.784   1.996   1.842 -0.6918 -0.4728 -0.3381
 9646TIP3    H150353   6.708   1.958   1.886 -0.6305  0.4018  0.5518
 9646TIP3    H250354   6.784   2.088   1.868  0.7041 -0.4719 -0.2590
 9647TIP3   OH250355   4.055   4.291   1.173  0.4205  0.3647  0.3458
 9647TIP3    H150356   4.104   4.229   1.120  0.1130 -0.7598  1.3262
 9647TIP3    H250357   4.029   4.241   1.251  0.9275  1.9664  1.6091
 9648TIP3   OH250358   0.934   5.364  16.602  0.2635 -0.1074  0.1939
 9648TIP3    H150359   0.922   5.423  16.677  0.5743 -0.7348  0.7477
 9648TIP3    H250360   0.968   5.283  16.640  1.1494 -0.1834 -0.7093
 9649TIP3   OH250361   3.557   2.965   0.095 -0.1422 -0.4381  0.0346
 9649TIP3    H150362   3.625   3.011   0.145 -1.1463  1.4265 -0.2128
 9649TIP3    H250363   3.600   2.885   0.065  1.0099 -0.8092  2.4277
 9650TIP3   OH250364   0.709   5.746  13.004 -0.0224  0.2250  0.0300
 9650TIP3    H150365   0.659   5.666  12.988 -1.7477  1.2915 -0.1459
 9650TIP3    H250366   0.775   5.748  12.935  0.4304 -1.3162  0.3838
 9651TIP3   OH250367   4.709   0.057   4.411  0.1259 -0.0938 -0.0936
 9651TIP3    H150368   4.664   0.072   4.328 -0.2194  0.2499  0.1513
 9651TIP3    H250369   4.683  -0.031   4.437  0.7134 -0.4405 -0.6413
 9652TIP3   OH250370   3.684   5.043   5.970  0.1064  0.3601 -0.2816
 9652TIP3    H150371   3.615   5.040   5.904 -0.3422  1.6765  0.0963
 9652TIP3    H250372   3.639   5.068   6.051  0.5006 -1.9792  0.7580
 9653TIP3   OH250373   2.191   2.197   2.550 -0.0207  0.0780 -0.3132
 9653TIP3    H150374   2.107   2.229   2.583  0.0829  0.2786 -0.2401
 9653TIP3    H250375   2.169   2.135   2.481 -0.2228  0.3717 -0.5135
 9654TIP3   OH250376   6.409   0.887   5.133 -0.4475 -0.1156  0.2120
 9654TIP3    H150377   6.339   0.941   5.095  1.3215  1.9804 -0.2912
 9654TIP3    H250378   6.444   0.940   5.205  3.3941  1.0668 -2.2162
 9655TIP3   OH250379   3.114   2.598  15.241 -0.3075  0.3592  0.1151
 9655TIP3    H150380   3.019   2.600  15.255 -0.2788  1.4423  0.2534
 9655TIP3    H250381   3.125   2.597  15.146 -0.4729  1.9953  0.0428
 9656TIP3   OH250382   5.867   3.679  11.170 -0.0715  0.3414 -0.2028
 9656TIP3    H150383   5.898   3.760  11.131  0.7714 -0.0330 -0.3337
 9656TIP3    H250384   5.853   3.620  11.095  1.3497 -0.3118  0.0173
 9657TIP3   OH250385   1.223   0.047   0.604  0.1587 -0.1859  0.0272
 9657TIP3    H150386   1.197   0.108   0.535  2.2940  1.5713  0.6501
 9657TIP3    H250387   1.252  -0.032   0.558  0.5924  0.5779 -1.0373
 9658TIP3   OH250388   3.963   1.071  13.996  0.5904  0.4111  0.3396
 9658TIP3    H150389   3.880   1.119  13.985  0.0157 -0.2984  1.4156
 9658TIP3    H250390   3.954   1.026  14.080  2.1119  0.3685  0.5073
 9659TIP3   OH250391   5.534   1.131   3.223  0.2533  0.5593  0.3632
 9659TIP3    H150392   5.455   1.086   3.253  0.2205  0.9642  0.8962
 9659TIP3    H250393   5.592   1.132   3.299  0.5718  0.7238  0.1234
 9660TIP3   OH250394   0.301   4.648  11.352 -0.4629  0.4502  0.2772
 9660TIP3    H150395   0.348   4.696  11.284  1.5878 -3.0084 -0.9917
 9660TIP3    H250396   0.211   4.680  11.346 -0.3065  0.6554 -3.8115
 9661TIP3   OH250397   3.352   5.236  13.028 -0.2712  0.1570 -0.4132
 9661TIP3    H150398   3.333   5.167  13.091  1.0477 -0.4189 -0.6207
 9661TIP3    H250399   3.293   5.218  12.954 -1.8360  0.8503  0.6101
 9662TIP3   OH250400   5.062   4.387  12.371  0.1669 -0.2273 -0.4931
 9662TIP3    H150401   5.106   4.472  12.359 -0.1481 -0.1615 -1.2763
 9662TIP3    H250402   4.980   4.396  12.322 -0.4593 -0.5547  0.4681
 9663TIP3   OH250403   4.674   5.601   1.763  0.4615 -0.2745 -0.0992
 9663TIP3    H150404   4.610   5.565   1.701 -0.4070 -0.2735  0.7691
 9663TIP3    H250405   4.643   5.691   1.779  0.2779 -0.5002  0.8566
 9664TIP3   OH250406   5.038   5.290  16.251 -0.0096 -0.0596  0.1748
 9664TIP3    H150407   4.977   5.261  16.319 -1.3681  0.2931 -0.8335
 9664TIP3    H250408   5.040   5.385  16.258  2.2870 -0.1513  1.6876
 9665TIP3   OH250409   5.472   2.427  12.482 -0.1836  0.1378 -0.6740
 9665TIP3    H150410   5.461   2.353  12.422 -1.1080  1.5258 -2.3220
 9665TIP3    H250411   5.387   2.470  12.483  0.1706  0.8703  0.6949
 9666TIP3   OH250412   1.714   2.909   3.965 -0.3520 -0.0554  0.0142
 9666TIP3    H150413   1.767   2.927   3.887 -0.7687  2.2866  0.1893
 9666TIP3    H250414   1.633   2.871   3.931 -0.4655  0.8012 -0.7069
 9667TIP3   OH250415   4.767   4.309   1.257 -0.3617 -0.0878 -0.1899
 9667TIP3    H150416   4.768   4.397   1.220  2.3808  0.4926  1.0025
 9667TIP3    H250417   4.703   4.313   1.328 -0.8527  0.6966 -0.6710
 9668TIP3   OH250418   4.038   0.437   1.456  0.0005  0.2529  0.6275
 9668TIP3    H150419   4.032   0.508   1.520  0.6513  1.9055 -1.0285
 9668TIP3    H250420   3.979   0.465   1.385  0.7428 -0.5423 -0.3339
 9669TIP3   OH250421   2.300   1.408  13.201  0.0028 -0.3992  0.6673
 9669TIP3    H150422   2.281   1.465  13.276 -0.9018 -1.9654  1.6965
 9669TIP3    H250423   2.377   1.358  13.228  2.6928  2.2295 -1.4022
 9670TIP3   OH250424   0.712   4.467  13.212 -0.2375 -0.2312 -0.3607
 9670TIP3    H150425   0.667   4.449  13.129  0.5362  0.3950 -0.9239
 9670TIP3    H250426   0.794   4.509  13.187  0.1868 -0.3796  0.7106
 9671TIP3   OH250427   0.339   2.266  14.169  0.1360  0.5659 -0.4939
 9671TIP3    H150428   0.294   2.294  14.249  2.0583  0.1440  0.7863
 9671TIP3    H250429   0.322   2.337  14.107 -0.9585  1.1544  0.4272
 9672TIP3   OH250430   3.527   1.005   0.421  0.4284  0.3503 -0.1916
 9672TIP3    H150431   3.484   1.090   0.432  1.8772  0.7948  2.9742
 9672TIP3    H250432   3.620   1.026   0.413  0.6467 -0.8842 -1.2160
 9673TIP3   OH250433   4.686   0.402   0.573  0.8326  0.1304 -0.1674
 9673TIP3    H150434   4.694   0.456   0.651  0.2306 -1.1635  0.8335
 9673TIP3    H250435   4.646   0.320   0.604  2.2169 -1.1319 -1.4871
 9674TIP3   OH250436   2.718   3.182   4.134 -0.1916  0.1563  0.3707
 9674TIP3    H150437   2.632   3.194   4.174 -0.2584  0.6291  0.0877
 9674TIP3    H250438   2.713   3.230   4.051 -0.7485 -2.4161 -1.2089
 9675TIP3   OH250439   6.596   6.050   2.062 -0.0009 -0.1383 -0.4740
 9675TIP3    H150440   6.622   5.996   1.988  1.7874  0.7147 -0.4958
 9675TIP3    H250441   6.632   6.136   2.044  0.2448  0.1619  1.2392
 9676TIP3   OH250442   3.554   6.790  12.349 -0.4307  0.1352 -0.2878
 9676TIP3    H150443   3.589   6.735  12.280 -0.7307  1.6968 -1.7578
 9676TIP3    H250444   3.631   6.826  12.392 -0.2423 -0.9053  0.2771
 9677TIP3   OH250445   5.307   0.050  12.274  0.0270 -0.0729  0.3235
 9677TIP3    H150446   5.215   0.063  12.295 -0.5625  0.1989 -2.0751
 9677TIP3    H250447   5.340   0.138  12.256  0.7205 -0.1878  1.0019
 9678TIP3   OH250448   1.698   2.598   0.246  0.3853 -0.1581  0.1888
 9678TIP3    H150449   1.640   2.545   0.299 -0.2792 -1.3919 -1.6840
 9678TIP3    H250450   1.640   2.654   0.195  1.0126  1.0847  0.7786
 9679TIP3   OH250451   0.723   3.792  14.045  0.0004  0.1057  0.2623
 9679TIP3    H150452   0.698   3.705  14.013  0.0781  0.2773 -0.2730
 9679TIP3    H250453   0.685   3.852  13.982  1.4891  0.3859 -0.4023
 9680TIP3   OH250454   1.327   2.007   2.471  0.5200 -0.3866  0.3931
 9680TIP3    H150455   1.249   2.029   2.522  1.4312  0.8723  1.3158
 9680TIP3    H250456   1.293   1.965   2.392 -0.9961 -1.2543  1.4589
 9681TIP3   OH250457   2.055   4.215  14.774  0.0911 -0.2308 -0.2578
 9681TIP3    H150458   1.965   4.219  14.805  0.3905  0.0278  0.6343
 9681TIP3    H250459   2.049   4.219  14.679 -0.8814 -1.1759 -0.2498
 9682TIP3   OH250460   3.153   0.917  14.510 -0.5240  0.4124  0.4582
 9682TIP3    H150461   3.205   0.997  14.510  1.4660 -0.7693 -1.3786
 9682TIP3    H250462   3.068   0.943  14.473  0.4405  1.5119 -1.1096
 9683TIP3   OH250463   5.452   6.537  12.782 -0.2677  0.2267 -0.1337
 9683TIP3    H150464   5.440   6.443  12.799 -1.5785  0.5022  0.5646
 9683TIP3    H250465   5.401   6.581  12.850 -0.2843  1.4482 -0.9036
 9684TIP3   OH250466   3.303   4.613  15.655 -0.0281 -0.0573 -0.5080
 9684TIP3    H150467   3.398   4.615  15.649  0.1183 -1.6008  0.5195
 9684TIP3    H250468   3.273   4.691  15.609  1.7383  0.5435 -0.6800
 9685TIP3   OH250469   5.444   5.671   4.685 -0.2346 -0.2440 -0.1726
 9685TIP3    H150470   5.382   5.727   4.731  0.2759  1.1869 -1.1568
 9685TIP3    H250471   5.524   5.723   4.677  1.1461 -2.0443  1.0699
 9686TIP3   OH250472   2.696   3.814   3.680  0.5792  0.6924 -0.2394
 9686TIP3    H150473   2.689   3.899   3.637  0.3698  1.1764  0.7216
 9686TIP3    H250474   2.675   3.750   3.612 -3.1541  1.5495 -0.0860
 9687TIP3   OH250475   3.836   1.941  14.577  0.4757 -0.7930  0.6201
 9687TIP3    H150476   3.886   1.861  14.589 -0.6579 -1.9310 -1.7116
 9687TIP3    H250477   3.875   1.983  14.501  0.2696  0.2484  1.0695
 9688TIP3   OH250478   5.972   1.987  15.906 -0.5032  0.3654 -0.6972
 9688TIP3    H150479   5.948   2.057  15.845  2.4436  1.5194 -0.7328
 9688TIP3    H250480   6.039   1.937  15.859  0.2311 -0.0657  0.7408
 9689TIP3   OH250481   2.084   5.222   0.762 -0.9037  0.7704  0.1337
 9689TIP3    H150482   2.005   5.275   0.770 -1.0110  0.5233  0.6961
 9689TIP3    H250483   2.094   5.209   0.667 -1.6723  0.5933  0.0715
 9690TIP3   OH250484   1.270   6.078  14.701 -0.4320 -0.0478  0.6498
 9690TIP3    H150485   1.308   6.093  14.788 -0.4653 -0.1110  0.6746
 9690TIP3    H250486   1.335   6.025  14.656 -0.5262 -0.2180  0.7163
 9691TIP3   OH250487   5.495   0.075   0.190  0.1896  0.2267  0.0723
 9691TIP3    H150488   5.471   0.154   0.143  0.3661  1.2386  1.5942
 9691TIP3    H250489   5.565   0.036   0.138  2.5342  2.9160  0.9405
 9692TIP3   OH250490   1.326   2.222   4.076  0.1713  0.8299  0.2392
 9692TIP3    H150491   1.248   2.204   4.127  0.8316  0.4631  1.1524
 9692TIP3    H250492   1.315   2.171   3.995  1.3906 -2.9083  2.1853
 9693TIP3   OH250493   5.098   4.340   3.923  0.8179 -0.0077 -0.3070
 9693TIP3    H150494   5.109   4.411   3.986 -1.4460 -1.4633  1.9593
 9693TIP3    H250495   5.003   4.329   3.915  0.9416 -4.0257  1.1683
 9694TIP3   OH250496   5.158   3.395  14.342  0.1427  0.0751 -0.3333
 9694TIP3    H150497   5.081   3.386  14.398  1.2526 -1.9403  0.9435
 9694TIP3    H250498   5.232   3.395  14.402  1.3677 -2.0164 -1.7161
 9695TIP3   OH250499   0.977   5.991   2.512  0.1012 -0.7995 -0.1297
 9695TIP3    H150500   0.974   6.058   2.580  1.0210 -0.9006  0.0335
 9695TIP3    H250501   0.975   5.908   2.559 -0.6396 -0.8912 -0.3104
 9696TIP3   OH250502   3.914   1.065  11.860 -0.2842 -0.1612  0.5292
 9696TIP3    H150503   3.867   1.088  11.941 -0.5719 -2.2797  1.0251
 9696TIP3    H250504   3.977   1.136  11.848 -1.3180  1.0254  1.7150
 9697TIP3   OH250505   3.650   3.579   0.888 -0.3894  0.3196  0.1914
 9697TIP3    H150506   3.695   3.511   0.838 -0.7832 -0.4618  0.8794
 9697TIP3    H250507   3.570   3.537   0.921  0.5718  0.3321  2.7384
 9698TIP3   OH250508   2.785   0.566  14.753 -0.4069  0.3019 -0.0593
 9698TIP3    H150509   2.825   0.637  14.703 -1.2333  0.8382  0.0173
 9698TIP3    H250510   2.715   0.608  14.802 -2.7819 -0.9746 -2.1203
 9699TIP3   OH250511   0.622   2.932   4.328  0.0056 -0.4472 -0.1533
 9699TIP3    H150512   0.647   2.895   4.413  0.0277  1.8649  0.9160
 9699TIP3    H250513   0.684   3.004   4.314  1.2666 -1.9262 -3.0971
 9700TIP3   OH250514   4.132   0.751   1.882 -0.6870 -0.0381 -0.7619
 9700TIP3    H150515   4.196   0.780   1.947 -0.2354 -1.9208 -0.3063
 9700TIP3    H250516   4.052   0.737   1.932 -0.9536  0.5598 -1.0108
 9701TIP3   OH250517   4.847   3.228  14.067  0.4246  0.7109  0.0792
 9701TIP3    H150518   4.847   3.195  13.978 -2.0887  0.6270  0.0605
 9701TIP3    H250519   4.850   3.150  14.122 -1.4711  0.5716  0.0323
 9702TIP3   OH250520   5.883   2.747   4.649  0.0984 -0.1835 -1.1751
 9702TIP3    H150521   5.816   2.815   4.652  0.9689  0.6847 -1.2698
 9702TIP3    H250522   5.924   2.749   4.736  0.0397 -0.6850 -1.1305
 9703TIP3   OH250523   1.928   2.911  16.249  0.5547 -0.7357  0.1268
 9703TIP3    H150524   1.909   2.948  16.335 -0.3410 -1.0014  0.0622
 9703TIP3    H250525   1.997   2.966  16.213  1.4628 -1.0647  1.3036
 9704TIP3   OH250526   5.460   2.825  13.345 -0.3528  0.1434  0.3758
 9704TIP3    H150527   5.379   2.875  13.332 -0.7891 -0.5856  0.2434
 9704TIP3    H250528   5.486   2.800  13.256 -1.1943 -1.4957  0.5543
 9705TIP3   OH250529   6.261   2.244   4.367 -0.1897  0.3236 -0.0189
 9705TIP3    H150530   6.348   2.244   4.327  0.6243  2.0532  1.5677
 9705TIP3    H250531   6.238   2.152   4.376  1.9490 -0.2157  0.4717
 9706TIP3   OH250532   2.362   0.518  16.436 -0.1353 -0.1140  0.4221
 9706TIP3    H150533   2.441   0.563  16.408  0.2083 -0.7525  0.3358
 9706TIP3    H250534   2.327   0.571  16.508  1.1801 -0.5962  1.4617
 9707TIP3   OH250535   5.800   4.458  11.792 -0.2665 -0.2914  0.1567
 9707TIP3    H150536   5.799   4.412  11.708 -1.5457  0.9583 -0.5659
 9707TIP3    H250537   5.847   4.399  11.851 -1.2643 -2.2134 -0.8615
 9708TIP3   OH250538   1.794   5.536   0.323  0.3919  0.6090  0.5388
 9708TIP3    H150539   1.769   5.544   0.231  0.1405 -0.7053  0.4773
 9708TIP3    H250540   1.875   5.484   0.322 -1.0635 -1.8304  1.1714
 9709TIP3   OH250541   6.699   5.647   1.890  0.7735  0.1029  0.1537
 9709TIP3    H150542   6.722   5.631   1.798 -1.6787  0.5513 -0.6070
 9709TIP3    H250543   6.661   5.735   1.890 -1.8757 -0.9502  1.0166
 9710TIP3   OH250544   3.395   2.224  12.532  0.1133  0.4019 -0.0783
 9710TIP3    H150545   3.468   2.280  12.504 -1.0758  1.7554 -0.5651
 9710TIP3    H250546   3.355   2.272  12.604  1.1181 -1.4886  1.8350
 9711TIP3   OH250547   5.028   2.471   3.396 -0.2635 -0.3348  0.4223
 9711TIP3    H150548   5.035   2.430   3.310  0.5117  1.4857 -0.4392
 9711TIP3    H250549   5.097   2.431   3.448  0.0284 -0.6072 -0.1714
 9712TIP3   OH250550   3.551   5.628  16.059  0.1599  0.2773 -0.2067
 9712TIP3    H150551   3.492   5.579  16.116  0.9946 -1.5107 -0.8038
 9712TIP3    H250552   3.632   5.635  16.109  0.3419  0.2266 -0.4897
 9713TIP3   OH250553   4.045   4.026   2.976 -0.1456  0.5718 -0.6539
 9713TIP3    H150554   4.119   3.967   2.960  0.3741  0.7234  1.0428
 9713TIP3    H250555   4.041   4.081   2.898 -0.1039 -1.1226 -1.9029
 9714TIP3   OH250556   0.117   5.698  13.547 -0.4094  0.5032 -0.0262
 9714TIP3    H150557   0.048   5.762  13.534  1.7170  3.2677  1.3036
 9714TIP3    H250558   0.174   5.709  13.470  0.3197  0.7469  0.5343
 9715TIP3   OH250559   2.587   3.946   5.112  0.3538  0.3277 -0.2987
 9715TIP3    H150560   2.504   3.959   5.158  0.8137 -0.7537  0.9308
 9715TIP3    H250561   2.654   3.968   5.177  1.0322 -1.1516 -0.4531
 9716TIP3   OH250562   0.596   3.367   5.840 -0.8575 -0.4329 -0.1629
 9716TIP3    H150563   0.563   3.340   5.755  2.3178 -1.1239 -1.3134
 9716TIP3    H250564   0.594   3.463   5.837 -4.2904 -0.3387  0.6262
 9717TIP3   OH250565   4.806   1.165  12.568  0.0543 -0.1617  0.0934
 9717TIP3    H150566   4.728   1.125  12.531  1.3524 -1.1418 -1.7107
 9717TIP3    H250567   4.849   1.094  12.617  0.4428  0.0252  0.0311
 9718TIP3   OH250568   6.687   1.897   3.436 -0.5983 -0.5200  0.3803
 9718TIP3    H150569   6.670   1.817   3.486 -1.7187  1.1923  2.9872
 9718TIP3    H250570   6.648   1.880   3.350 -1.8026 -2.3688  1.2177
 9719TIP3   OH250571   5.867   3.900  10.792 -0.3339  0.0194 -0.5990
 9719TIP3    H150572   5.775   3.924  10.782 -0.2455  2.1075  2.2527
 9719TIP3    H250573   5.877   3.881  10.885  2.0904 -0.4166 -0.8740
 9720TIP3   OH250574   0.728   3.456   0.864  0.4004 -0.9139  0.6900
 9720TIP3    H150575   0.806   3.422   0.908  2.2788  0.8219 -1.0822
 9720TIP3    H250576   0.669   3.481   0.935  2.9636  1.0368  2.2780
 9721TIP3   OH250577   4.535   2.119  13.762  0.4035  0.2201 -0.5710
 9721TIP3    H150578   4.519   2.041  13.708 -0.8439  1.0636 -1.4565
 9721TIP3    H250579   4.589   2.176  13.706  0.6821  0.3219 -0.2031
 9722TIP3   OH250580   4.925   2.486   2.507  0.2455  0.0080  0.3938
 9722TIP3    H150581   4.893   2.524   2.589 -1.7382  1.2731 -0.8717
 9722TIP3    H250582   5.017   2.467   2.524 -0.8618 -3.2732  4.0918
 9723TIP3   OH250583   3.283   0.723  17.168  0.6650 -0.0248 -0.5870
 9723TIP3    H150584   3.209   0.735  17.227  1.2592 -3.2955  1.0184
 9723TIP3    H250585   3.354   0.690  17.224  2.4933  0.3481 -2.5383
 9724TIP3   OH250586   6.005   5.278  16.149  0.0222 -0.1011  0.1280
 9724TIP3    H150587   6.096   5.278  16.181  0.4610  0.0300 -1.0680
 9724TIP3    H250588   5.981   5.185  16.146  0.0378 -0.1256  0.6457
 9725TIP3   OH250589   5.164   6.257   1.320  0.3135 -0.6442 -0.0407
 9725TIP3    H150590   5.199   6.261   1.231  0.2037  0.3183 -0.0593
 9725TIP3    H250591   5.216   6.190   1.364  0.3849 -1.1079 -0.8185
 9726TIP3   OH250592   2.349   6.711   4.264  0.1864 -0.7673  0.4777
 9726TIP3    H150593   2.401   6.654   4.207 -0.2898 -0.3419 -0.4070
 9726TIP3    H250594   2.258   6.686   4.247 -0.1051  0.9447 -0.7447
 9727TIP3   OH250595   5.964   2.033  16.184 -0.2493  0.0519  0.0311
 9727TIP3    H150596   5.995   2.011  16.096  0.8827  0.5392  0.2914
 9727TIP3    H250597   5.958   1.948  16.229  1.5032 -0.0180  0.2033
 9728TIP3   OH250598   2.242   0.277   1.411  0.3906 -0.3487  0.5785
 9728TIP3    H150599   2.192   0.201   1.440 -1.3043  0.1064 -0.9872
 9728TIP3    H250600   2.200   0.352   1.453 -1.4815  0.2167 -2.0539
 9729TIP3   OH250601   6.322   3.228   2.165 -0.7207 -0.3643  0.0232
 9729TIP3    H150602   6.246   3.265   2.121 -0.0867  0.3807 -0.4837
 9729TIP3    H250603   6.391   3.293   2.153 -0.2015 -0.6729  1.1238
 9730TIP3   OH250604   5.516   2.697  13.103  0.2883  0.4441 -0.4077
 9730TIP3    H150605   5.599   2.719  13.062 -0.8393  2.1615 -1.9235
 9730TIP3    H250606   5.488   2.617  13.059  2.7939 -2.4974  2.7560
 9731TIP3   OH250607   0.057   3.296  16.498 -0.0059 -0.1231 -0.1784
 9731TIP3    H150608   0.088   3.365  16.439  1.4783 -1.4563 -1.0225
 9731TIP3    H250609  -0.016   3.336  16.545  0.2970  1.7551 -1.2147
 9732TIP3   OH250610   0.764   0.741   2.362 -0.3076 -0.1678 -0.1493
 9732TIP3    H150611   0.689   0.779   2.408 -1.2530 -0.0512 -1.7008
 9732TIP3    H250612   0.756   0.647   2.376  0.5313 -0.0444  1.4829
 9733TIP3   OH250613   1.666   0.890   3.378 -0.0769 -0.2939  0.6290
 9733TIP3    H150614   1.584   0.935   3.398  0.6629  1.3839  0.0887
 9733TIP3    H250615   1.734   0.954   3.399  0.9949 -0.7609 -1.1917
 9734TIP3   OH250616   1.562   5.751   0.987 -0.3184  0.3318 -0.1985
 9734TIP3    H150617   1.651   5.786   0.986 -0.0002 -0.4324  0.6832
 9734TIP3    H250618   1.510   5.818   0.942  0.5193  1.2762  0.1975
 9735TIP3   OH250619   1.905   5.754   0.489  0.4670  0.0113  0.4594
 9735TIP3    H150620   1.826   5.807   0.490  1.0703  0.9626 -0.2308
 9735TIP3    H250621   1.889   5.687   0.423 -0.7711 -1.4648  2.1756
 9736TIP3   OH250622   2.835   6.094  14.077  0.3167  0.2773 -0.9299
 9736TIP3    H150623   2.872   6.134  13.998  2.3366  0.1702 -0.1065
 9736TIP3    H250624   2.756   6.050  14.047  1.4379 -0.4076 -3.0643
 9737TIP3   OH250625   3.642   4.004  13.850 -0.5758 -0.1381  0.4877
 9737TIP3    H150626   3.710   3.937  13.850 -0.2553  0.1823  0.3253
 9737TIP3    H250627   3.675   4.071  13.791 -1.0820 -0.0271  0.3292
 9738TIP3   OH250628   5.253   1.892   0.712  0.6355 -0.9886 -0.4958
 9738TIP3    H150629   5.262   1.931   0.799  1.5004  1.3419 -1.5466
 9738TIP3    H250630   5.166   1.852   0.712  0.3561 -0.4573  1.2153
 9739TIP3   OH250631   1.331   2.147  11.700 -0.2309 -0.8335 -0.3977
 9739TIP3    H150632   1.386   2.091  11.756  0.8706 -2.1169 -2.5982
 9739TIP3    H250633   1.315   2.225  11.752  1.4715 -1.5694  1.3620
 9740TIP3   OH250634   2.671   1.640  13.613  0.2812 -0.2282 -0.2274
 9740TIP3    H150635   2.601   1.586  13.652  1.1346 -0.6965  0.6985
 9740TIP3    H250636   2.632   1.675  13.533 -1.7519  1.2592  1.3213
 9741TIP3   OH250637   1.123   1.260  14.812  0.1894 -0.5026  0.4736
 9741TIP3    H150638   1.189   1.329  14.803  1.0378 -1.3388  0.0869
 9741TIP3    H250639   1.169   1.188  14.856 -0.7036 -0.7895  0.9680
 9742TIP3   OH250640   0.377   0.530  13.119  0.2116 -0.0566 -0.5566
 9742TIP3    H150641   0.355   0.623  13.124 -2.7832 -0.6345 -0.5612
 9742TIP3    H250642   0.343   0.502  13.034  2.7572 -0.8488 -1.3999
 9743TIP3   OH250643   6.147   1.120  13.550 -0.0119  0.0568 -0.6909
 9743TIP3    H150644   6.185   1.060  13.485  0.3002 -0.9796  0.4090
 9743TIP3    H250645   6.199   1.106  13.629  0.2039  1.9796 -0.4667
 9744TIP3   OH250646   1.693   3.436  14.750 -0.3341 -0.3684  0.3850
 9744TIP3    H150647   1.732   3.472  14.671  1.0072 -1.3129  0.5943
 9744TIP3    H250648   1.651   3.355  14.722 -2.2650  0.6588  0.1516
 9745TIP3   OH250649   2.354   3.532   2.356 -0.1618 -0.2915  0.2135
 9745TIP3    H150650   2.290   3.533   2.427 -1.8097 -0.8323 -1.1867
 9745TIP3    H250651   2.348   3.443   2.319  2.5787 -0.9004  1.0092
 9746TIP3   OH250652   4.953   6.150  14.434  0.1221  0.3620 -0.4696
 9746TIP3    H150653   5.005   6.212  14.383 -1.0381  1.1508 -0.7325
 9746TIP3    H250654   5.000   6.067  14.426  2.3682  1.3953  0.8576
 9747TIP3   OH250655   0.794   1.502   4.182 -0.3085 -0.8348 -0.4572
 9747TIP3    H150656   0.821   1.591   4.158 -0.6132 -1.0090 -1.4909
 9747TIP3    H250657   0.703   1.496   4.153 -0.6314 -1.1547  0.5572
 9748TIP3   OH250658   2.733   4.863  13.547  0.3613  0.3868 -0.5862
 9748TIP3    H150659   2.714   4.817  13.465  1.5348 -0.2626 -0.5165
 9748TIP3    H250660   2.805   4.921  13.525  0.3815  0.5406 -0.1131
 9749TIP3   OH250661   6.422   2.805  13.917 -0.1490  0.5094  0.0542
 9749TIP3    H150662   6.417   2.788  13.823  0.5453  1.1952 -0.1232
 9749TIP3    H250663   6.336   2.839  13.940  0.0323  1.4533 -0.5847
 9750TIP3   OH250664   2.400   0.340  14.550  0.0802 -0.2290 -0.2669
 9750TIP3    H150665   2.433   0.430  14.543  0.2519 -0.0999  1.6796
 9750TIP3    H250666   2.399   0.308  14.460  0.3088  1.6132 -0.9725
 9751TIP3   OH250667   5.398   1.673  15.058 -0.0667 -0.2934  0.2193
 9751TIP3    H150668   5.484   1.702  15.088 -0.0048  0.4524 -0.6517
 9751TIP3    H250669   5.410   1.651  14.966 -0.6960 -0.6918  0.2205
 9752TIP3   OH250670   3.570   3.000  13.580  0.0511  0.2790 -0.3949
 9752TIP3    H150671   3.555   3.062  13.652  0.3956  1.2854 -1.1617
 9752TIP3    H250672   3.655   3.026  13.544  0.1782 -0.6199 -0.7708
 9753TIP3   OH250673   0.975   4.075  12.366 -0.0375  0.4893  0.5190
 9753TIP3    H150674   0.923   4.138  12.416  0.8236  1.5442  0.1288
 9753TIP3    H250675   1.052   4.125  12.338 -0.2749 -0.1756 -1.4860
 9754TIP3   OH250676   4.187   5.332  12.890 -0.0566  0.2543 -0.3681
 9754TIP3    H150677   4.130   5.368  12.822 -0.4798 -1.3683 -0.9273
 9754TIP3    H250678   4.269   5.314  12.845 -0.5557 -1.4566 -0.6767
 9755TIP3   OH250679   1.092   1.669   0.098 -0.5485 -0.1476  0.2297
 9755TIP3    H150680   1.124   1.759   0.088 -0.9923  0.1303  1.1924
 9755TIP3    H250681   1.000   1.674   0.069 -0.6232 -0.2540  0.4520
 9756TIP3   OH250682   1.845   5.178  10.854 -0.0681  0.3673 -0.1108
 9756TIP3    H150683   1.804   5.152  10.772  0.8289 -0.2562 -0.3760
 9756TIP3    H250684   1.899   5.254  10.831  0.9352 -0.3802 -0.3298
 9757TIP3   OH250685   0.137   5.493  14.258 -0.4212  0.3796  0.1740
 9757TIP3    H150686   0.173   5.579  14.283  1.4091 -0.4199  0.4960
 9757TIP3    H250687   0.208   5.451  14.209 -1.6762 -0.5507 -0.9088
 9758TIP3   OH250688   6.406   5.326  13.549  0.1930  0.3565 -0.0888
 9758TIP3    H150689   6.462   5.403  13.558  0.9776 -0.1909 -0.1902
 9758TIP3    H250690   6.322   5.360  13.519  0.9202  1.0551 -1.4031
 9759TIP3   OH250691   2.561   5.875  15.847  0.2148  0.3384  0.0804
 9759TIP3    H150692   2.615   5.838  15.778 -0.3394  1.1894 -0.8395
 9759TIP3    H250693   2.490   5.919  15.801 -0.5012  0.4153  1.2178
 9760TIP3   OH250694   0.366   0.405  16.649 -0.4690  0.1822  0.3016
 9760TIP3    H150695   0.367   0.315  16.681 -1.4947  0.0462 -0.0061
 9760TIP3    H250696   0.387   0.458  16.727 -1.9001 -0.2114  1.0062
 9761TIP3   OH250697   6.552   6.177  16.346 -0.2494 -0.1963  0.4097
 9761TIP3    H150698   6.648   6.178  16.338 -0.3463 -0.3268 -1.0547
 9761TIP3    H250699   6.522   6.244  16.285 -1.1928 -2.2422 -1.5127
 9762TIP3   OH250700   6.469   0.795   2.949  0.0435 -0.4225 -0.2392
 9762TIP3    H150701   6.424   0.712   2.965 -0.5369 -0.1263 -0.3020
 9762TIP3    H250702   6.480   0.798   2.854 -0.2087 -0.2885 -0.2645
 9763TIP3   OH250703   2.481   3.598   3.765  0.3283 -0.6226  0.2061
 9763TIP3    H150704   2.545   3.536   3.732  2.2488  2.3951 -2.3866
 9763TIP3    H250705   2.440   3.634   3.687  0.5771  2.4670  1.3344
 9764TIP3   OH250706   1.999   1.917  14.269  0.2126 -0.0129  0.3667
 9764TIP3    H150707   2.085   1.925  14.310  0.2335  0.6880  0.2002
 9764TIP3    H250708   1.937   1.946  14.335  0.1515  0.0619  0.2767
 9765TIP3   OH250709   0.661   4.915  11.324  1.0172 -0.8686  0.2112
 9765TIP3    H150710   0.716   4.840  11.348  0.2675 -1.4323  0.1939
 9765TIP3    H250711   0.595   4.879  11.266  1.0767 -0.0492 -0.3923
 9766TIP3   OH250712   4.203   5.670  14.589 -0.0357 -0.1401  0.4402
 9766TIP3    H150713   4.285   5.716  14.602 -0.8497  1.4815  0.1321
 9766TIP3    H250714   4.136   5.729  14.625 -1.3544  0.0294 -2.0038
 9767TIP3   OH250715   6.070   1.506   5.979  0.2545 -0.0484  0.3525
 9767TIP3    H150716   6.019   1.504   6.060 -1.2349  0.8919 -0.5272
 9767TIP3    H250717   6.047   1.425   5.934  1.5296 -0.8577  1.0902
 9768TIP3   OH250718   1.637   4.849  10.463  0.2639 -0.0735  0.9020
 9768TIP3    H150719   1.567   4.809  10.411 -0.0875  2.1091 -0.4439
 9768TIP3    H250720   1.717   4.828  10.415  0.2942 -0.7131  1.2272
 9769TIP3   OH250721   5.972   1.275  12.858  0.4945  0.6912 -0.4150
 9769TIP3    H150722   6.028   1.214  12.906 -2.1029 -0.8907  0.8613
 9769TIP3    H250723   5.964   1.237  12.771  1.0023  0.6961 -0.4698
 9770TIP3   OH250724   0.316   2.577  14.214  0.1604  0.1895  0.0952
 9770TIP3    H150725   0.371   2.625  14.153  0.4751 -2.3479 -1.8100
 9770TIP3    H250726   0.358   2.589  14.299  1.5403  1.3262 -0.7041
 9771TIP3   OH250727   1.041   2.013  15.373  0.1524  0.0381 -0.4792
 9771TIP3    H150728   1.125   2.024  15.417 -0.3742  0.1293  0.5298
 9771TIP3    H250729   0.993   2.093  15.393 -1.1344 -1.0496  1.1563
 9772TIP3   OH250730   3.921   2.235  11.293  1.1508  0.2693  0.3207
 9772TIP3    H150731   3.969   2.318  11.292 -0.2248  1.0876 -0.6764
 9772TIP3    H250732   3.952   2.189  11.216 -0.3172  1.2306 -0.9002
 9773TIP3   OH250733   3.995   1.009   5.349  0.1591  0.7851 -0.2780
 9773TIP3    H150734   3.925   0.946   5.334  1.1549 -0.3518 -0.2511
 9773TIP3    H250735   3.973   1.082   5.291 -0.9656  0.3859 -0.3775
 9774TIP3   OH250736   5.573   2.349  15.808 -0.0878  0.4051  0.0383
 9774TIP3    H150737   5.611   2.354  15.721 -0.4567  1.1259 -0.0889
 9774TIP3    H250738   5.602   2.264  15.843 -0.0191  0.0724 -0.8173
 9775TIP3   OH250739   2.064   1.978  15.138 -0.6385  0.2965  0.6220
 9775TIP3    H150740   2.069   2.070  15.165  0.1879 -0.0951  1.9077
 9775TIP3    H250741   2.155   1.949  15.136 -0.9783 -1.2186  3.0238
 9776TIP3   OH250742   1.013   6.659  15.340 -0.0934 -0.1814 -1.1296
 9776TIP3    H150743   1.087   6.717  15.355 -1.1056  0.7659  0.5587
 9776TIP3    H250744   1.002   6.612  15.423 -2.2426  0.7820 -0.7877
 9777TIP3   OH250745   2.943   2.936   2.818  0.2589  0.3841  0.0797
 9777TIP3    H150746   2.880   3.008   2.825  1.3095  1.2924  0.6343
 9777TIP3    H250747   3.013   2.960   2.879  1.3106 -0.4120 -0.7706
 9778TIP3   OH250748   0.953   2.491  12.876 -0.7863  0.4099  0.9127
 9778TIP3    H150749   1.018   2.421  12.888 -0.5319  0.5986  0.6466
 9778TIP3    H250750   0.886   2.452  12.820  0.5964  1.1436 -1.3623
 9779TIP3   OH250751   5.862   3.530   2.610 -0.0336 -0.1874  0.2778
 9779TIP3    H150752   5.875   3.437   2.596 -0.2272 -0.2949  0.7939
 9779TIP3    H250753   5.938   3.571   2.568 -0.3495 -0.5157 -0.6404
 9780TIP3   OH250754   2.112   2.741   0.327 -0.1834  0.2924  0.1311
 9780TIP3    H150755   2.087   2.669   0.269  1.4527  0.8745 -1.3786
 9780TIP3    H250756   2.051   2.735   0.401 -1.4057 -1.3593 -0.9512
 9781TIP3   OH250757   6.208   5.153  12.221 -0.2588 -0.4742 -0.0788
 9781TIP3    H150758   6.196   5.102  12.141  0.6123 -0.2286 -0.3695
 9781TIP3    H250759   6.249   5.092  12.283 -0.0430 -0.3880 -0.1358
 9782TIP3   OH250760   1.516   1.656   4.613  0.2044 -0.0356 -0.3528
 9782TIP3    H150761   1.581   1.725   4.628  0.8393 -0.5262 -0.7880
 9782TIP3    H250762   1.543   1.616   4.530 -0.1964 -0.7658 -0.1356
 9783TIP3   OH250763   3.790   1.721  12.431 -0.0889 -0.0662 -0.3170
 9783TIP3    H150764   3.883   1.736  12.414 -0.2984  0.3163 -1.1632
 9783TIP3    H250765   3.783   1.626  12.438  0.2492 -0.1571 -1.0234
 9784TIP3   OH250766   4.688   2.947  16.958 -0.5531  0.0560 -0.1033
 9784TIP3    H150767   4.616   2.922  17.016 -4.3682  3.6498 -2.6546
 9784TIP3    H250768   4.713   3.034  16.987  0.3952  0.2003 -1.2723
 9785TIP3   OH250769   4.294   5.102  16.150 -0.1472 -0.2009 -0.6772
 9785TIP3    H150770   4.307   5.190  16.114  0.3258  0.0405  0.0739
 9785TIP3    H250771   4.199   5.091  16.154 -0.2223 -0.3211 -2.1947
 9786TIP3   OH250772   1.762   5.173  11.305 -0.2776  0.1233  0.1224
 9786TIP3    H150773   1.710   5.117  11.248  1.4776 -2.0784  0.5535
 9786TIP3    H250774   1.732   5.150  11.393  1.2524 -1.0817  0.3663
 9787TIP3   OH250775   6.504   5.601   3.281 -0.1321 -0.1439  0.6486
 9787TIP3    H150776   6.472   5.589   3.191 -0.5798  2.4543  0.3691
 9787TIP3    H250777   6.451   5.542   3.334 -0.6976 -0.8363 -0.6278
 9788TIP3   OH250778   3.316   3.744   1.352  0.7319  0.4311  0.3556
 9788TIP3    H150779   3.269   3.684   1.409 -0.5209  1.9267  0.9495
 9788TIP3    H250780   3.402   3.703   1.340 -0.3434 -1.8753  0.0303
 9789TIP3   OH250781   5.788   3.562  10.934 -0.1102  0.6351  0.1786
 9789TIP3    H150782   5.716   3.582  10.873 -1.1467  2.8408  1.9725
 9789TIP3    H250783   5.832   3.487  10.894 -1.5156  1.1099 -2.5877
 9790TIP3   OH250784   4.451   6.782   6.078  0.7201  0.0992  0.7368
 9790TIP3    H150785   4.436   6.785   5.983 -0.7141  2.1229  0.9530
 9790TIP3    H250786   4.396   6.710   6.108  0.2293  0.2195  0.1581
 9791TIP3   OH250787   1.734   1.464   5.115  0.1632  0.0611  0.0593
 9791TIP3    H150788   1.743   1.505   5.029  2.5651  0.7264  0.5514
 9791TIP3    H250789   1.655   1.503   5.152  0.2994  1.4222 -0.9960
 9792TIP3   OH250790   6.471   5.337  14.872  0.2517 -0.1867 -0.7825
 9792TIP3    H150791   6.519   5.323  14.790 -1.3436 -2.5377 -1.3961
 9792TIP3    H250792   6.472   5.432  14.884  3.4127  0.0089 -1.7034
 9793TIP3   OH250793   1.479   2.819  11.717 -0.0116  0.0449 -0.4499
 9793TIP3    H150794   1.550   2.784  11.664  1.3811  0.5636  0.9878
 9793TIP3    H250795   1.518   2.892  11.765 -2.2706  2.3240 -1.7929
 9794TIP3   OH250796   2.092   1.268  11.974 -0.0097 -0.1817  0.7979
 9794TIP3    H150797   2.003   1.300  11.959  0.0275  0.1942  1.3185
 9794TIP3    H250798   2.091   1.177  11.945 -0.4566 -0.0577  0.4305
 9795TIP3   OH250799   2.811   0.571  13.811  0.0967  0.0081  0.6395
 9795TIP3    H150800   2.722   0.604  13.824  0.1762  0.4647  0.0388
 9795TIP3    H250801   2.804   0.477  13.830 -0.8041 -0.2092 -0.6359
 9796TIP3   OH250802   4.150   1.287  13.987  0.2075  0.2450 -0.1682
 9796TIP3    H150803   4.217   1.226  14.018  0.2121  0.9716  1.3452
 9796TIP3    H250804   4.067   1.241  14.004  0.1385  1.1429  2.2766
 9797TIP3   OH250805   5.185   5.830   4.531 -0.2381  0.2985  0.2058
 9797TIP3    H150806   5.155   5.741   4.512 -0.5185  0.5491 -0.5667
 9797TIP3    H250807   5.104   5.880   4.540 -0.1083  0.2888  1.6405
 9798TIP3   OH250808   2.163   5.421  14.498  0.3906  0.5741 -0.3670
 9798TIP3    H150809   2.160   5.510  14.534 -1.0169  0.2235  0.4696
 9798TIP3    H250810   2.127   5.430  14.410  0.8441  0.9294 -0.5196
 9799TIP3   OH250811   4.853   3.044   3.917 -0.6453  0.4001 -0.0415
 9799TIP3    H150812   4.909   3.028   3.841  0.7206 -1.0871  1.2318
 9799TIP3    H250813   4.907   3.022   3.993 -1.5292  3.0429  1.4961
 9800TIP3   OH250814   4.228   4.596   5.674  0.2962  0.2606  0.2316
 9800TIP3    H150815   4.282   4.593   5.753  0.9154 -0.2726 -0.1932
 9800TIP3    H250816   4.186   4.511   5.670  2.1373 -0.6686 -1.2430
 9801TIP3   OH250817   3.231   1.156   3.761  0.1081 -0.3615 -0.2582
 9801TIP3    H150818   3.302   1.180   3.820 -0.3650 -2.1166  1.1298
 9801TIP3    H250819   3.263   1.078   3.715 -1.4089 -2.2389  1.6243
 9802TIP3   OH250820   3.784   1.694  13.021 -0.1344 -0.5377  0.2061
 9802TIP3    H150821   3.735   1.613  13.004  0.1625 -0.3602 -1.7063
 9802TIP3    H250822   3.875   1.665  13.028  0.1155 -0.2825 -1.5958
 9803TIP3   OH250823   1.607   1.081  13.002 -0.4232 -0.0715  0.2814
 9803TIP3    H150824   1.609   1.173  12.973 -0.6954 -0.6596 -1.7467
 9803TIP3    H250825   1.517   1.067  13.031 -0.2623  0.4098  1.0516
 9804TIP3   OH250826   1.883   0.319   3.462  0.2338  0.1975  0.3317
 9804TIP3    H150827   1.917   0.380   3.527 -0.1829  0.0190  0.7288
 9804TIP3    H250828   1.956   0.304   3.402  0.5731  0.4945  0.6658
 9805TIP3   OH250829   0.838   0.240   2.272  0.4901 -0.1416  0.5668
 9805TIP3    H150830   0.747   0.268   2.280  0.5463 -0.1337  1.2730
 9805TIP3    H250831   0.838   0.180   2.198  0.0588  0.4586  0.0741
 9806TIP3   OH250832   4.904   4.317   5.073  0.2142  0.6553 -0.0198
 9806TIP3    H150833   4.890   4.222   5.084  0.7781  0.5347 -0.2728
 9806TIP3    H250834   4.820   4.351   5.045 -0.3469  0.4221  1.2781
 9807TIP3   OH250835   1.147   3.936   0.121 -0.1315  0.3012 -0.2546
 9807TIP3    H150836   1.207   3.960   0.191 -2.1119  1.3475  1.1902
 9807TIP3    H250837   1.150   4.010   0.061  1.1170 -0.3371 -1.0424
 9808TIP3   OH250838   3.320   1.530   0.154  0.1062 -0.6108  0.3168
 9808TIP3    H150839   3.407   1.491   0.147  0.4738  0.4920 -2.4593
 9808TIP3    H250840   3.335   1.624   0.143 -1.3205 -0.2272  1.3260
 9809TIP3   OH250841   1.430   4.056   5.518  0.4772 -0.1981 -0.1363
 9809TIP3    H150842   1.362   3.997   5.483  0.6091  0.2846 -1.2473
 9809TIP3    H250843   1.381   4.131   5.552  0.3798 -0.4366  0.2592
 9810TIP3   OH250844   2.999   5.857  13.875 -0.5622 -0.1677 -0.0658
 9810TIP3    H150845   2.984   5.946  13.843 -1.5770 -0.7381 -1.2560
 9810TIP3    H250846   2.911   5.818  13.879 -0.1670 -1.0063  0.8024
 9811TIP3   OH250847   5.868   4.559   4.054  0.1823 -0.1186 -0.2310
 9811TIP3    H150848   5.883   4.565   3.960 -0.3667  0.7292 -0.2673
 9811TIP3    H250849   5.780   4.522   4.062 -0.6397  1.7783 -0.0851
 9812TIP3   OH250850   1.851   2.417   4.543  0.0029  0.1335 -0.7228
 9812TIP3    H150851   1.789   2.460   4.483 -0.7735  0.2477  0.1434
 9812TIP3    H250852   1.801   2.345   4.581  0.4723  0.0985 -0.1734
 9813TIP3   OH250853   5.231   3.507  16.751 -0.0741 -0.0713 -0.2886
 9813TIP3    H150854   5.256   3.594  16.720  2.4162 -0.7348 -0.4041
 9813TIP3    H250855   5.248   3.509  16.845  0.9381 -0.6913 -0.4425
 9814TIP3   OH250856   3.145   6.114   2.890  0.1709 -0.3106  0.1741
 9814TIP3    H150857   3.234   6.080   2.896  1.5502  2.3121 -2.6886
 9814TIP3    H250858   3.114   6.086   2.804 -0.0475  2.2757 -0.6813
 9815TIP3   OH250859   0.520   0.975   5.284  0.1506  0.9043 -0.1580
 9815TIP3    H150860   0.559   0.961   5.198 -1.0669 -0.6144 -0.4970
 9815TIP3    H250861   0.553   0.903   5.338  0.9506  1.8717  0.7109
 9816TIP3   OH250862   0.664   3.446  12.461 -0.0295 -0.0569  0.5678
 9816TIP3    H150863   0.713   3.367  12.439 -2.2561 -1.3880  0.0219
 9816TIP3    H250864   0.707   3.482  12.539  0.9091 -1.9401  0.9521
 9817TIP3   OH250865   4.013   2.209   3.420  0.2732 -0.0179  0.2060
 9817TIP3    H150866   3.977   2.130   3.461  0.0917 -0.0094  0.0604
 9817TIP3    H250867   4.024   2.270   3.493  0.0126 -0.0262  0.2520
 9818TIP3   OH250868   2.140   5.326  12.953 -0.5183  0.3336 -0.7618
 9818TIP3    H150869   2.109   5.236  12.940  0.7207 -0.4981  1.4760
 9818TIP3    H250870   2.232   5.324  12.927  0.0189  0.4271  0.9938
 9819TIP3   OH250871   4.160   4.345   4.727  0.3069  0.3408 -0.2753
 9819TIP3    H150872   4.136   4.434   4.700  0.4910  0.3464 -0.4194
 9819TIP3    H250873   4.089   4.290   4.693  1.1508  0.1824 -1.8771
 9820TIP3   OH250874   0.451   3.178   0.622 -0.6225 -0.1279  0.1753
 9820TIP3    H150875   0.409   3.221   0.696 -0.4527 -0.1195  0.2682
 9820TIP3    H250876   0.443   3.241   0.550  1.1453  0.8313  0.7448
 9821TIP3   OH250877   5.788   5.540   3.405  0.2756  0.1999 -0.2556
 9821TIP3    H150878   5.764   5.575   3.319  1.1443  1.0356 -0.1788
 9821TIP3    H250879   5.789   5.617   3.463  1.4876 -0.0423  0.0876
 9822TIP3   OH250880   0.872   5.448   4.660 -0.2007  0.1122 -0.1269
 9822TIP3    H150881   0.938   5.434   4.593 -0.5522 -1.4554 -0.1760
 9822TIP3    H250882   0.918   5.434   4.743 -0.8604 -3.3082 -0.1889
 9823TIP3   OH250883   3.949   4.224  10.911 -0.3596  0.3351  0.0524
 9823TIP3    H150884   4.027   4.186  10.869 -0.7178 -0.4162  0.0375
 9823TIP3    H250885   3.961   4.203  11.004 -0.0229  1.1736  0.2051
 9824TIP3   OH250886   2.184   5.755  13.390  0.0786  0.0780  0.5931
 9824TIP3    H150887   2.100   5.796  13.413 -0.3259 -0.7117  0.5350
 9824TIP3    H250888   2.175   5.734  13.297  1.7060  3.2822 -0.4373
 9825TIP3   OH250889   6.183   0.701  14.855 -0.2502 -0.3406  0.6521
 9825TIP3    H150890   6.216   0.642  14.922  0.2456 -2.2796 -1.2199
 9825TIP3    H250891   6.224   0.672  14.774 -1.0294  1.7536 -0.5714
 9826TIP3   OH250892   4.348   5.804   3.057  0.0757 -0.2040 -0.6469
 9826TIP3    H150893   4.289   5.745   3.106 -0.6087  1.4058  0.5576
 9826TIP3    H250894   4.314   5.803   2.968 -0.0723 -1.4154 -0.6040
 9827TIP3   OH250895   4.515   1.644  11.443 -0.6554 -0.5833  0.1238
 9827TIP3    H150896   4.462   1.566  11.461  0.8081 -1.8393 -0.8239
 9827TIP3    H250897   4.496   1.667  11.352 -2.8780  1.6692  1.0473
 9828TIP3   OH250898   2.764   1.038  12.750  0.3510  0.0678  0.6822
 9828TIP3    H150899   2.675   1.038  12.715 -0.0278 -1.2397  1.5391
 9828TIP3    H250900   2.797   0.950  12.733  1.7726  0.7386 -0.2520
 9829TIP3   OH250901   2.815   4.888  16.649 -0.1833 -0.0524  0.5718
 9829TIP3    H150902   2.856   4.880  16.736 -0.4957 -0.3689  0.6933
 9829TIP3    H250903   2.829   4.979  16.624  3.0623 -0.7419 -0.6224
 9830TIP3   OH250904   2.680   5.164  17.154 -0.6068 -0.0895  0.0613
 9830TIP3    H150905   2.654   5.235  17.096  1.4978 -0.3210 -1.2974
 9830TIP3    H250906   2.631   5.088  17.122 -0.5231  0.0909 -0.5090
 9831TIP3   OH250907   3.710   4.747  12.900 -0.8780  0.1188 -0.0227
 9831TIP3    H150908   3.755   4.807  12.959 -1.0412  0.0847  0.1361
 9831TIP3    H250909   3.659   4.690  12.958 -1.7405  0.6527 -0.2465
 9832TIP3   OH250910   2.230   3.777  17.138  0.2709 -1.1971  0.5494
 9832TIP3    H150911   2.187   3.699  17.172  0.1154 -2.8303 -2.9679
 9832TIP3    H250912   2.190   3.792  17.052 -1.2192  4.1202  1.7663
 9833TIP3   OH250913   0.329   0.249   0.589  0.1029 -0.2015  0.0126
 9833TIP3    H150914   0.346   0.262   0.495 -1.3972 -0.0031 -0.2541
 9833TIP3    H250915   0.390   0.179   0.614 -0.2935 -1.1154 -1.4026
 9834TIP3   OH250916   0.185   1.376   2.334 -0.4643  0.1127 -0.9298
 9834TIP3    H150917   0.165   1.468   2.352 -1.8624 -0.3501  0.0524
 9834TIP3    H250918   0.264   1.358   2.384 -0.6643  0.5643 -0.4477
 9835TIP3   OH250919   6.619   1.441   1.859  0.7417 -0.0550  0.5817
 9835TIP3    H150920   6.619   1.473   1.949 -0.3596  0.0968  0.5461
 9835TIP3    H250921   6.649   1.515   1.807  0.0548  0.3136  0.6951
 9836TIP3   OH250922   5.778   6.233   5.556  0.5158 -0.0013 -0.2474
 9836TIP3    H150923   5.788   6.328   5.565  4.3946 -0.2382 -0.6923
 9836TIP3    H250924   5.741   6.222   5.468 -2.3019  1.0541  0.6890
 9837TIP3   OH250925   3.916   3.013  14.052 -0.1195 -0.4433 -0.0277
 9837TIP3    H150926   3.898   3.023  13.958 -1.4488  0.6596  0.3224
 9837TIP3    H250927   3.837   3.043  14.095  1.5161  1.9054  1.5542
 9838TIP3   OH250928   3.558   5.184  11.974  0.4767  0.3766  0.1741
 9838TIP3    H150929   3.621   5.223  12.034 -1.4370  0.7103  2.1119
 9838TIP3    H250930   3.488   5.249  11.967 -0.2255 -0.4619 -0.9165
 9839TIP3   OH250931   0.147   5.670  12.544 -0.2850 -0.7078  0.0300
 9839TIP3    H150932   0.233   5.711  12.533 -0.8275  0.5429  0.3048
 9839TIP3    H250933   0.155   5.618  12.624  0.3528 -1.0173 -0.2191
 9840TIP3   OH250934   0.676   6.507   4.140  0.2085  0.5053 -0.2043
 9840TIP3    H150935   0.664   6.558   4.221  1.5042  3.7130 -1.8323
 9840TIP3    H250936   0.754   6.454   4.156 -1.0261 -0.9152  1.4754
 9841TIP3   OH250937   0.147   5.078  15.184  0.0670 -0.0247 -0.1975
 9841TIP3    H150938   0.116   5.139  15.118 -0.4404 -0.5482 -0.4493
 9841TIP3    H250939   0.215   5.127  15.232 -1.2199  1.1847  0.4582
 9842TIP3   OH250940   0.299   0.891   1.229 -0.3090  0.1124  0.3238
 9842TIP3    H150941   0.340   0.943   1.160  0.9104 -0.8988  0.2700
 9842TIP3    H250942   0.322   0.937   1.310 -0.6821  0.5916  0.1674
 9843TIP3   OH250943   6.235   3.648  12.161  0.3535 -0.0311 -0.5924
 9843TIP3    H150944   6.219   3.656  12.256  0.5242 -2.1698 -0.3328
 9843TIP3    H250945   6.179   3.716  12.122  3.0223  3.5124  1.1500
 9844TIP3   OH250946   6.197   5.181  13.659  0.1950 -0.0698  0.1095
 9844TIP3    H150947   6.287   5.206  13.638  0.1543  1.0247  1.0814
 9844TIP3    H250948   6.204   5.093  13.695  0.5985 -0.8237 -1.6818
 9845TIP3   OH250949   3.924   0.529  15.618 -0.3724 -0.4248 -0.4651
 9845TIP3    H150950   3.897   0.619  15.600  1.0631 -0.3309 -2.4549
 9845TIP3    H250951   3.876   0.476  15.554 -0.3757 -0.9443 -0.0379
 9846TIP3   OH250952   0.216   0.800   6.114  0.3241 -0.0584 -0.0173
 9846TIP3    H150953   0.141   0.775   6.168  0.0829  1.2553  0.2969
 9846TIP3    H250954   0.284   0.822   6.177  0.4530  0.2689 -0.2699
 9847TIP3   OH250955   5.425   0.432   3.246  0.2858  0.3323  0.0583
 9847TIP3    H150956   5.345   0.428   3.298  0.6259  0.7882  0.6253
 9847TIP3    H250957   5.399   0.478   3.166  0.1723  1.2070  0.5953
 9848TIP3   OH250958   6.688   1.417  15.862 -0.1164 -0.4042  0.6065
 9848TIP3    H150959   6.756   1.472  15.822 -0.7724  0.7191  0.9791
 9848TIP3    H250960   6.616   1.419  15.798 -1.8568  2.8086  2.4231
 9849TIP3   OH250961   5.180   1.994  12.726 -0.3839 -0.1512 -0.1390
 9849TIP3    H150962   5.144   2.009  12.639 -2.2517  0.0175  0.6191
 9849TIP3    H250963   5.238   2.069  12.741 -0.2578 -0.0436 -1.1153
 9850TIP3   OH250964   2.722   6.237   0.909 -0.4585  0.7188  0.2666
 9850TIP3    H150965   2.634   6.254   0.944 -0.8220 -2.9086  1.5166
 9850TIP3    H250966   2.779   6.238   0.985 -0.0122 -0.2521 -0.0372
 9851TIP3   OH250967   5.737   0.771   3.475  0.0023 -0.0818 -0.2470
 9851TIP3    H150968   5.817   0.750   3.428  0.6172  0.7713  0.4009
 9851TIP3    H250969   5.672   0.785   3.407  0.6301  0.1175 -0.8088
 9852TIP3   OH250970   2.445   0.664  11.721  0.1515  0.0619 -0.7502
 9852TIP3    H150971   2.360   0.706  11.734  0.1714  0.2870 -1.2999
 9852TIP3    H250972   2.427   0.571  11.727  0.3344  0.1286  1.8436
 9853TIP3   OH250973   5.672   6.249  12.754 -0.5154 -0.0933  0.1449
 9853TIP3    H150974   5.724   6.221  12.679  0.3786  1.4339  0.1458
 9853TIP3    H250975   5.648   6.339  12.734 -0.3192  0.3251  1.6378
 9854TIP3   OH250976   3.483   2.051   0.192 -0.1500 -0.1622  0.6305
 9854TIP3    H150977   3.480   2.036   0.286 -1.9189  2.1192  1.0283
 9854TIP3    H250978   3.482   2.146   0.182 -1.1023 -0.3308 -1.6769
 9855TIP3   OH250979   4.359   3.930   1.679 -0.0390 -0.6290 -0.1643
 9855TIP3    H150980   4.397   3.943   1.592  0.8797  0.7433  0.4111
 9855TIP3    H250981   4.311   4.011   1.696 -1.0752 -1.3025  0.2013
 9856TIP3   OH250982   4.660   4.539   1.829 -0.6043 -0.3768 -0.3417
 9856TIP3    H150983   4.720   4.468   1.852 -1.2298 -0.7059  0.3012
 9856TIP3    H250984   4.577   4.515   1.871 -1.1834  0.0820 -1.2046
 9857TIP3   OH250985   2.185   3.063   3.923  0.2238  0.0797 -0.2915
 9857TIP3    H150986   2.142   3.097   3.845  2.8461 -1.3341 -2.5408
 9857TIP3    H250987   2.159   2.971   3.928 -1.0880  0.4846  1.4746
 9858TIP3   OH250988   3.133   0.421  15.687  0.3221  0.3319 -0.1283
 9858TIP3    H150989   3.053   0.473  15.686  1.6794  2.5864  1.1841
 9858TIP3    H250990   3.170   0.434  15.774  1.9818 -0.8776 -0.5943
 9859TIP3   OH250991   1.304   2.470   5.567  0.3027 -0.7068 -0.0889
 9859TIP3    H150992   1.377   2.413   5.590 -0.4304 -1.7430 -0.2478
 9859TIP3    H250993   1.296   2.460   5.472 -1.2587 -2.1493  0.1525
 9860TIP3   OH250994   1.160   0.584  17.025 -0.2857  1.0552 -0.3806
 9860TIP3    H150995   1.154   0.501  16.978  0.4519  0.7672  0.0271
 9860TIP3    H250996   1.110   0.569  17.106  0.9231  0.5595  0.3057
 9861TIP3   OH250997   2.888   3.257   2.440 -0.1862  0.1672  0.6387
 9861TIP3    H150998   2.818   3.221   2.495  0.5326 -2.3034  0.0691
 9861TIP3    H250999   2.968   3.243   2.490  0.0918  1.7637  0.7102
 9862TIP3   OH251000   1.970   6.116   0.891  0.4681 -0.4458 -0.2590
 9862TIP3    H151001   1.946   6.208   0.909 -0.5971 -1.1582  2.5819
 9862TIP3    H251002   1.921   6.094   0.812 -1.2501  0.7626  0.4002
 9863TIP3   OH251003   6.720   5.300  16.985 -0.5102 -0.3412 -0.3418
 9863TIP3    H151004   6.640   5.351  16.991 -1.2629 -1.1758 -2.3655
 9863TIP3    H251005   6.789   5.359  17.015 -1.8593  0.3182  1.6468
 9864TIP3   OH251006   5.077   0.334   5.578  0.0823 -0.0122 -0.0051
 9864TIP3    H151007   4.985   0.354   5.565  0.5253  2.4270  0.2118
 9864TIP3    H251008   5.080   0.286   5.661 -0.9359  0.3323  0.2389
 9865TIP3   OH251009   4.968   4.854  13.321  0.1683  0.0868 -0.3349
 9865TIP3    H151010   4.968   4.936  13.369  0.6760  0.6254 -1.2294
 9865TIP3    H251011   4.992   4.788  13.386  0.4968  0.7475  0.2246
 9866TIP3   OH251012   3.187   0.701  14.879 -0.0644  0.0036  0.4315
 9866TIP3    H151013   3.255   0.665  14.936  1.4592  1.4109 -0.4056
 9866TIP3    H251014   3.163   0.784  14.920 -1.7403 -0.7335  1.0249
 9867TIP3   OH251015   5.138   5.225  11.192 -0.2621 -0.1969 -0.3365
 9867TIP3    H151016   5.106   5.260  11.109 -0.6127  0.9979  0.2754
 9867TIP3    H251017   5.094   5.278  11.259 -0.2025 -1.3122  0.6237
 9868TIP3   OH251018   5.827   5.663   5.781  0.1799 -0.6429 -0.6960
 9868TIP3    H151019   5.892   5.642   5.848 -0.0348 -0.9093 -0.5716
 9868TIP3    H251020   5.874   5.720   5.719  0.2908 -0.1539 -0.1688
 9869TIP3   OH251021   2.605   1.647  12.010  0.0314 -0.5331 -0.0056
 9869TIP3    H151022   2.676   1.710  12.020 -1.3117  1.0335  0.0648
 9869TIP3    H251023   2.645   1.572  11.966  1.9196 -0.0928  0.8656
 9870TIP3   OH251024   1.645   1.476   2.310 -0.1369  0.2575  0.2944
 9870TIP3    H151025   1.679   1.566   2.306  1.2137 -0.2644 -0.6714
 9870TIP3    H251026   1.691   1.430   2.240 -2.4657 -0.6603 -0.7250
 9871TIP3   OH251027   1.100   6.306   1.403  0.4965 -0.6894 -0.2547
 9871TIP3    H151028   1.060   6.350   1.478 -0.7063 -0.4472 -1.0093
 9871TIP3    H251029   1.174   6.362   1.378 -0.9008  0.8765 -1.0954
 9872TIP3   OH251030   6.505   6.252  14.061  0.7201 -0.5530 -0.3518
 9872TIP3    H151031   6.530   6.340  14.033 -0.3231 -0.1260 -0.0141
 9872TIP3    H251032   6.412   6.260  14.083  0.3518 -1.9756 -1.2554
 9873TIP3   OH251033   1.592   4.022   0.405  0.3999 -0.1482 -0.2922
 9873TIP3    H151034   1.649   4.076   0.350 -0.3336  0.8671 -0.0733
 9873TIP3    H251035   1.651   3.955   0.441  1.8157  1.6643  1.0098
 9874TIP3   OH251036   6.304   2.561   6.282  0.6841  0.0722 -0.6959
 9874TIP3    H151037   6.319   2.571   6.376  1.6443 -0.1505 -0.8110
 9874TIP3    H251038   6.209   2.565   6.272  0.6317  1.6081  0.1056
 9875TIP3   OH251039   3.567   0.408   5.419 -1.0723  0.1022 -0.1378
 9875TIP3    H151040   3.499   0.434   5.357 -1.9594  0.4861  0.9536
 9875TIP3    H251041   3.577   0.314   5.406  0.5562  0.5271 -2.5647
 9876TIP3   OH251042   1.668   6.112   3.356  0.2804 -0.4918  0.4620
 9876TIP3    H151043   1.675   6.016   3.356 -0.9295 -0.5993 -0.1377
 9876TIP3    H251044   1.574   6.129   3.353  0.3469  0.7387  3.0377
 9877TIP3   OH251045   3.958   5.072   5.872 -0.3231 -0.0910 -0.2033
 9877TIP3    H151046   3.934   5.107   5.786 -0.1126  1.4363  0.3274
 9877TIP3    H251047   3.874   5.049   5.913 -0.4141 -0.9852 -0.8633
 9878TIP3   OH251048   2.369   1.496   2.246 -0.5467 -0.5120  0.7264
 9878TIP3    H151049   2.354   1.417   2.194 -0.1526 -0.1434  0.0346
 9878TIP3    H251050   2.456   1.525   2.221 -0.5674 -0.0201  1.2007
 9879TIP3   OH251051   1.405   5.959   5.249  0.7770  0.3472  0.3967
 9879TIP3    H151052   1.464   5.900   5.296  0.0506 -0.5151  0.2558
 9879TIP3    H251053   1.323   5.911   5.243  0.6174  0.7463 -1.0591
 9880TIP3   OH251054   3.568   1.191  11.937 -0.4103  0.4833 -0.3738
 9880TIP3    H151055   3.644   1.246  11.957  1.1472 -1.2418 -1.2392
 9880TIP3    H251056   3.584   1.162  11.847 -2.0914  0.0198 -0.5471
 9881TIP3   OH251057   4.362   6.256  15.766  0.4928  0.1184  0.1069
 9881TIP3    H151058   4.447   6.222  15.795  0.2299  0.7370  1.7446
 9881TIP3    H251059   4.310   6.178  15.746  1.3354 -0.2695 -0.6073
 9882TIP3   OH251060   6.021   1.379  14.935 -0.6014  0.1962  0.4469
 9882TIP3    H151061   6.070   1.457  14.910  0.5401 -0.3988  0.7747
 9882TIP3    H251062   6.075   1.336  15.001 -1.1619 -0.9242  0.2070
 9883TIP3   OH251063   1.850   6.071  11.610 -0.3541 -0.0857 -0.5030
 9883TIP3    H151064   1.760   6.039  11.615 -0.5798  0.5530 -0.3979
 9883TIP3    H251065   1.903   6.001  11.648 -0.9638  0.1733  0.8687
 9884TIP3   OH251066   6.003   4.508   5.007 -0.0531 -0.0137  0.3487
 9884TIP3    H151067   5.912   4.525   4.982 -0.9880 -0.8404  2.9029
 9884TIP3    H251068   6.006   4.415   5.030  1.8397 -0.3745 -1.0474
 9885TIP3   OH251069   2.262   5.216  12.637  0.1035  0.3115  0.0760
 9885TIP3    H151070   2.272   5.311  12.647 -1.0039  0.4793 -0.3108
 9885TIP3    H251071   2.304   5.197  12.552  2.8686 -0.0152  1.3878
 9886TIP3   OH251072   0.371   0.294   1.084 -0.0219 -0.2610  1.2061
 9886TIP3    H151073   0.299   0.270   1.141 -0.0734 -1.1216  0.7933
 9886TIP3    H251074   0.446   0.305   1.143 -0.0262 -1.3397  1.4306
 9887TIP3   OH251075   2.078   6.276  10.345 -0.0272 -0.1525  0.4277
 9887TIP3    H151076   2.152   6.233  10.389  1.0647  0.8357 -0.3863
 9887TIP3    H251077   2.005   6.215  10.357  0.8410 -1.0376  1.4830
 9888TIP3   OH251078   5.746   4.607  14.119 -0.6143  0.0230 -0.0348
 9888TIP3    H151079   5.765   4.625  14.027  1.9803 -0.8505  0.2502
 9888TIP3    H251080   5.743   4.512  14.125  3.2363 -0.1952  1.3209
 9889TIP3   OH251081   4.939   2.960  13.149 -0.4693 -0.4053 -0.0052
 9889TIP3    H151082   4.863   2.964  13.090 -0.3756 -1.3237 -0.1893
 9889TIP3    H251083   4.907   2.913  13.226 -0.0540 -0.8918 -0.1302
 9890TIP3   OH251084   3.520   6.734   4.484 -0.3549  0.3158 -0.2547
 9890TIP3    H151085   3.459   6.761   4.552  0.8728  2.2370  0.1587
 9890TIP3    H251086   3.564   6.656   4.519 -2.3438 -0.9778 -0.4857
 9891TIP3   OH251087   4.420   4.040   0.023 -0.6379 -0.5465 -0.0267
 9891TIP3    H151088   4.366   3.972  -0.016 -0.8723 -1.8734  2.4015
 9891TIP3    H251089   4.504   3.998   0.041  0.4473  0.8346 -1.6193
 9892TIP3   OH251090   6.192   2.541  16.106  0.2090 -0.5101 -0.5883
 9892TIP3    H151091   6.143   2.481  16.050 -0.3718  0.1073 -0.7546
 9892TIP3    H251092   6.271   2.561  16.056  0.0456 -0.5433 -0.8613
 9893TIP3   OH251093   4.150   3.393  12.395  0.3680  0.2556  0.2683
 9893TIP3    H151094   4.208   3.363  12.325  3.3131  2.0938  1.6975
 9893TIP3    H251095   4.206   3.449  12.449 -1.8918 -0.5369  3.7353
 9894TIP3   OH251096   6.082   2.231   3.713 -0.2933  0.1457 -0.9329
 9894TIP3    H151097   6.066   2.210   3.805 -1.3081 -0.1780 -1.1724
 9894TIP3    H251098   6.153   2.295   3.715 -0.9683  0.8782  0.1281
 9895TIP3   OH251099   4.910   1.356  14.452  0.1132  0.5201 -0.2287
 9895TIP3    H151100   4.821   1.389  14.467 -0.8158 -1.6340 -0.7205
 9895TIP3    H251101   4.963   1.436  14.444 -1.4455  1.8663  1.7242
 9896TIP3   OH251102   2.183   2.605  10.769 -0.2618  0.1023  0.3125
 9896TIP3    H151103   2.105   2.560  10.736 -0.1374  1.3349 -1.8552
 9896TIP3    H251104   2.149   2.664  10.837 -0.8305 -1.1233  1.1226
 9897TIP3   OH251105   0.787   2.303   0.633  0.1907  0.5457  0.5163
 9897TIP3    H151106   0.735   2.350   0.569 -2.5347 -0.9848  1.4602
 9897TIP3    H251107   0.769   2.211   0.617  1.3634  0.0171  1.9289
 9898TIP3   OH251108   0.367   5.670   2.418  0.6683 -0.0940  0.8435
 9898TIP3    H151109   0.413   5.742   2.460  1.8848 -0.6082  0.4533
 9898TIP3    H251110   0.391   5.677   2.326 -0.5345 -0.0332  0.5140
 9899TIP3   OH251111   4.696   4.183   3.744 -0.0853  0.3435  0.5229
 9899TIP3    H151112   4.676   4.092   3.767 -0.3519  0.6359  1.4738
 9899TIP3    H251113   4.741   4.176   3.659 -1.1261 -0.5812  0.0167
 9900TIP3   OH251114   1.435   2.212   0.679  0.0178  0.1931 -0.2809
 9900TIP3    H151115   1.390   2.267   0.615  1.6252  0.6455 -1.0790
 9900TIP3    H251116   1.424   2.123   0.646  0.0269  0.3377 -0.6815
 9901TIP3   OH251117   4.418   2.841   3.880 -0.3075  0.1491 -0.1067
 9901TIP3    H151118   4.392   2.929   3.853  2.6061  0.6301 -1.6947
 9901TIP3    H251119   4.387   2.833   3.970 -0.2700  2.9647  0.2349
 9902TIP3   OH251120   1.378   1.627  15.840  0.1117  0.6791  0.0791
 9902TIP3    H151121   1.376   1.541  15.881 -0.5348 -0.0293 -1.3760
 9902TIP3    H251122   1.460   1.628  15.790  1.6007  2.0646  2.3583
 9903TIP3   OH251123   6.599   0.586  17.108 -0.0242 -0.4152  0.8060
 9903TIP3    H151124   6.639   0.550  17.187 -1.3096 -2.1500  0.7169
 9903TIP3    H251125   6.629   0.529  17.038  0.8227  0.9022  0.0706
 9904TIP3   OH251126   5.846   4.834   5.671  0.4921  0.3892  0.3967
 9904TIP3    H151127   5.830   4.782   5.749  0.2887  0.2475  0.2631
 9904TIP3    H251128   5.908   4.782   5.619  1.7478  1.1279  1.1049
 9905TIP3   OH251129   6.375   6.220   1.321  0.3577 -0.6096 -0.1790
 9905TIP3    H151130   6.302   6.165   1.292 -1.2772 -0.6080  3.3954
 9905TIP3    H251131   6.441   6.159   1.352 -0.8765 -0.6984  2.4870
 9906TIP3   OH251132   6.266   3.510  15.997 -0.0113  0.5806 -0.1238
 9906TIP3    H151133   6.345   3.561  16.016  1.0996 -0.5536 -1.4766
 9906TIP3    H251134   6.278   3.428  16.045  0.1572 -0.0119 -1.1412
 9907TIP3   OH251135   5.292   1.850   4.440 -0.0270  0.2041  0.5498
 9907TIP3    H151136   5.372   1.801   4.420 -0.1361 -0.2506  1.2007
 9907TIP3    H251137   5.288   1.918   4.372 -0.2701 -1.1403 -0.8501
 9908TIP3   OH251138   3.320   5.562  15.570 -0.4637  0.0194 -0.5182
 9908TIP3    H151139   3.375   5.612  15.630 -1.3322 -0.0290  0.3633
 9908TIP3    H251140   3.286   5.626  15.508  0.2995  0.1054 -0.8490
 9909TIP3   OH251141   5.850   1.972  11.609  0.2057 -0.1790  0.5347
 9909TIP3    H151142   5.776   2.028  11.631 -0.5139 -0.7465 -0.3501
 9909TIP3    H251143   5.853   1.907  11.680 -0.2174 -0.2270  0.5077
 9910TIP3   OH251144   1.969   3.217  15.540  0.0473 -0.4004  0.2313
 9910TIP3    H151145   1.905   3.196  15.607  1.0457 -1.0333  1.0243
 9910TIP3    H251146   2.051   3.180  15.573  0.9744  0.9906 -0.3996
 9911TIP3   OH251147   1.198   0.195   4.208 -0.1442 -0.2481 -0.3608
 9911TIP3    H151148   1.270   0.150   4.252 -0.2199  2.4586  3.0305
 9911TIP3    H251149   1.241   0.263   4.157 -0.1965  0.0758  0.0190
 9912TIP3   OH251150   2.469   3.121  16.393  0.7384  0.4053 -0.0407
 9912TIP3    H151151   2.442   3.033  16.368  0.8848 -0.4817  2.5794
 9912TIP3    H251152   2.417   3.179  16.338 -2.7921 -1.2688  1.2611
 9913TIP3   OH251153   5.841   2.983  15.673 -0.6959  0.2791 -0.3308
 9913TIP3    H151154   5.808   2.894  15.684  0.6371 -0.5698 -2.4549
 9913TIP3    H251155   5.924   2.972  15.626 -0.1774  2.6233 -0.0869
 9914TIP3   OH251156   2.470   6.033   2.676 -0.1937 -0.2414 -0.0848
 9914TIP3    H151157   2.455   6.092   2.750  2.0767 -0.2624  0.4851
 9914TIP3    H251158   2.383   6.000   2.653 -1.3488  2.0581  0.6154
 9915TIP3   OH251159   3.018   3.698  12.662  1.2340  0.0285 -0.1826
 9915TIP3    H151160   2.950   3.765  12.659  1.2464  0.0086 -1.8316
 9915TIP3    H251161   3.100   3.747  12.651  1.3270 -0.1315 -0.1999
 9916TIP3   OH251162   5.891   4.150   0.823 -0.0237  0.3317 -0.9387
 9916TIP3    H151163   5.938   4.095   0.759  0.5151  1.1322 -1.2579
 9916TIP3    H251164   5.841   4.211   0.769 -0.0420  0.6245 -0.5921
 9917TIP3   OH251165   6.278   3.823  15.197  0.6529 -0.0589  0.0899
 9917TIP3    H151166   6.300   3.745  15.248 -0.9120 -0.1618  0.6699
 9917TIP3    H251167   6.351   3.882  15.211  0.7622 -0.5071  1.6080
 9918TIP3   OH251168   2.951   0.302   3.915 -0.3165  0.1266 -0.1039
 9918TIP3    H151169   3.019   0.347   3.964 -1.1635  0.2563  1.0082
 9918TIP3    H251170   2.885   0.369   3.898 -1.5096 -0.5863  1.4224
 9919TIP3   OH251171   6.754   1.576  12.418  0.0629  0.2004 -0.0338
 9919TIP3    H151172   6.722   1.501  12.367 -0.4107  0.2754  0.1498
 9919TIP3    H251173   6.794   1.537  12.495  0.0137  0.1259 -0.0456
 9920TIP3   OH251174   2.009   1.688   0.413  0.0350  0.1775  0.1801
 9920TIP3    H151175   1.935   1.676   0.353 -0.8491  0.9948  1.0648
 9920TIP3    H251176   1.998   1.777   0.446 -0.3630 -0.7037  2.6496
 9921TIP3   OH251177   0.963   0.915   2.414  0.7178  0.0317 -0.5128
 9921TIP3    H151178   0.978   0.970   2.337 -0.1647  1.0748  0.0362
 9921TIP3    H251179   0.899   0.851   2.385 -2.1312  2.3896  0.1517
 9922TIP3   OH251180   2.253   0.337   4.175 -0.2975 -0.6124  0.0439
 9922TIP3    H151181   2.247   0.426   4.140 -0.2474 -0.6112  0.0389
 9922TIP3    H251182   2.330   0.338   4.232 -0.0029 -0.7895 -0.3518
 9923TIP3   OH251183   1.500   4.080  12.592  0.1751  0.6900  0.0433
 9923TIP3    H151184   1.494   3.997  12.640 -1.9710  0.8381  0.0976
 9923TIP3    H251185   1.546   4.139  12.651  0.4134 -0.0412  0.5958
 9924TIP3   OH251186   4.137   4.354   1.865 -0.3709  0.1547 -0.3789
 9924TIP3    H151187   4.107   4.405   1.789 -0.8575  0.1745 -0.1816
 9924TIP3    H251188   4.060   4.351   1.923 -0.5714 -1.3832 -0.6836
 9925TIP3   OH251189   4.289   2.146   2.177 -0.2916 -0.3632  0.0788
 9925TIP3    H151190   4.363   2.196   2.143 -0.5130 -0.3811 -0.4373
 9925TIP3    H251191   4.321   2.107   2.258 -0.1667  0.7582  0.5823
 9926TIP3   OH251192   2.276   2.556   5.771  0.5066 -0.1912  0.4353
 9926TIP3    H151193   2.368   2.582   5.774  0.8841 -1.1417 -1.1796
 9926TIP3    H251194   2.278   2.463   5.746 -0.8619 -0.8077  2.3470
 9927TIP3   OH251195   6.651   5.868  13.741 -0.1571  0.8677 -1.0261
 9927TIP3    H151196   6.676   5.775  13.743  0.5545  1.0410 -1.4596
 9927TIP3    H251197   6.626   5.888  13.832  0.9531  0.5822 -0.6368
 9928TIP3   OH251198   2.384   6.046  15.413 -0.0008  0.7558 -0.1762
 9928TIP3    H151199   2.478   6.059  15.407  0.3431 -1.0837  0.6268
 9928TIP3    H251200   2.361   5.997  15.334  0.0593 -0.4289  0.5197
 9929TIP3   OH251201   2.205   1.000  14.761  0.5145 -0.0535 -0.0567
 9929TIP3    H151202   2.127   0.945  14.770  0.6560  0.0436  2.2812
 9929TIP3    H251203   2.171   1.083  14.727 -0.3423 -0.1501  0.5323
 9930TIP3   OH251204   3.826   4.862  15.179  0.0423 -0.3511  0.0170
 9930TIP3    H151205   3.811   4.955  15.163 -0.8826 -0.1272  1.9555
 9930TIP3    H251206   3.865   4.830  15.097  1.6707  1.9847 -0.2253
 9931TIP3   OH251207   1.114   1.518  14.129  0.2283  0.1335 -0.0759
 9931TIP3    H151208   1.085   1.438  14.173 -0.0806 -0.3920 -1.1951
 9931TIP3    H251209   1.082   1.589  14.185  0.4879 -0.5105  0.9177
 9932TIP3   OH251210   0.259   3.372   0.255  0.0226  0.3080  0.4645
 9932TIP3    H151211   0.295   3.370   0.166 -0.7774  0.6633  0.1221
 9932TIP3    H251212   0.237   3.281   0.275  2.0558 -0.0889  1.0937
 9933TIP3   OH251213   5.437   1.980  13.775  0.3153 -0.3713  0.1596
 9933TIP3    H151214   5.476   2.055  13.820 -0.3253 -0.0533  0.1835
 9933TIP3    H251215   5.396   1.929  13.845  1.6362 -1.3039  0.2902
 9934TIP3   OH251216   5.277   1.251  11.091 -0.1465  0.4101  0.6321
 9934TIP3    H151217   5.341   1.230  11.023  0.9640  0.5062  1.6297
 9934TIP3    H251218   5.313   1.328  11.135 -0.1330 -0.4886  2.2519
 9935TIP3   OH251219   5.136   1.568   1.512  0.3725  0.2998  0.1794
 9935TIP3    H151220   5.133   1.525   1.598 -0.4591 -3.6929 -1.6579
 9935TIP3    H251221   5.223   1.549   1.478 -0.6864 -1.9238 -1.4934
 9936TIP3   OH251222   6.000   4.083  16.492 -0.5461  0.1903  0.2545
 9936TIP3    H151223   5.965   4.003  16.453 -2.1269  1.0578 -0.2168
 9936TIP3    H251224   6.088   4.092  16.455 -0.5308 -1.0734 -0.0492
 9937TIP3   OH251225   0.181   2.141   0.703  0.2334  0.3131  0.2164
 9937TIP3    H151226   0.195   2.076   0.634 -1.0878  1.6299 -1.4055
 9937TIP3    H251227   0.209   2.224   0.663 -1.8999  1.3333  0.6736
 9938TIP3   OH251228   0.095   0.640  13.763 -0.4781  0.1248 -0.1446
 9938TIP3    H151229   0.130   0.718  13.720 -1.2235  0.1298 -0.7461
 9938TIP3    H251230   0.021   0.612  13.709 -0.9561 -0.3189  0.7007
 9939TIP3   OH251231   6.015   1.968  15.152  0.3111  0.2168 -0.5494
 9939TIP3    H151232   6.020   2.063  15.155  1.0174  0.1991 -1.0051
 9939TIP3    H251233   6.083   1.942  15.091  1.8358 -0.7143  1.4077
 9940TIP3   OH251234   4.313   0.945  15.889  0.1104 -0.5678 -0.0043
 9940TIP3    H151235   4.267   0.987  15.962  0.6652  0.4666 -0.2160
 9940TIP3    H251236   4.402   0.981  15.894 -0.0743  0.2381 -1.7274
 9941TIP3   OH251237   6.294   0.646   1.005 -0.2211 -0.6206 -0.1896
 9941TIP3    H151238   6.293   0.555   0.976 -0.5039 -1.3248  1.8703
 9941TIP3    H251239   6.235   0.648   1.081 -1.2915  1.5900 -1.0050
 9942TIP3   OH251240   2.223   0.607  14.938  0.2478  0.0747  0.4016
 9942TIP3    H151241   2.272   0.688  14.923  0.1879 -0.3025 -2.3980
 9942TIP3    H251242   2.289   0.538  14.932 -0.2670 -0.3088 -1.5224
 9943TIP3   OH251243   6.681   3.316   1.984  0.2497  0.0967 -1.2168
 9943TIP3    H151244   6.662   3.390   1.926 -1.1882  0.3776 -0.4205
 9943TIP3    H251245   6.608   3.255   1.970 -0.6756  0.6084  0.9707
 9944TIP3   OH251246   1.943   0.367  11.573 -0.3301 -0.3151 -1.0621
 9944TIP3    H151247   2.021   0.378  11.628 -0.9572 -1.5103  0.1553
 9944TIP3    H251248   1.870   0.392  11.631 -0.9456 -0.6778 -1.6702
 9945TIP3   OH251249   4.553   5.614   5.258  0.1729  0.3564 -0.1571
 9945TIP3    H151250   4.529   5.680   5.194 -1.1784 -1.0662 -1.1925
 9945TIP3    H251251   4.470   5.586   5.296  0.7134 -0.7385  0.2565
 9946TIP3   OH251252   1.361   5.474  11.297 -0.7353 -0.3808  0.0438
 9946TIP3    H151253   1.344   5.421  11.219 -1.0382 -1.5220  0.8530
 9946TIP3    H251254   1.362   5.564  11.265 -1.7958 -0.7515 -1.1283
 9947TIP3   OH251255   1.633   4.592   1.949  0.1565 -0.1577  0.8653
 9947TIP3    H151256   1.641   4.671   2.001 -1.6766  0.5795  0.1078
 9947TIP3    H251257   1.594   4.528   2.009 -0.2611  0.1449  0.9244
 9948TIP3   OH251258   6.538   1.602   4.330  0.2392  0.4408  0.3252
 9948TIP3    H151259   6.461   1.600   4.272 -1.2074  0.2141  2.1721
 9948TIP3    H251260   6.530   1.524   4.384  1.8674  0.3474  0.4835
 9949TIP3   OH251261   2.292   6.248   1.861 -0.1340 -0.1441 -0.0658
 9949TIP3    H151262   2.282   6.294   1.945 -0.3761  0.2976 -0.3378
 9949TIP3    H251263   2.387   6.241   1.849 -0.0974 -0.5101  0.4085
 9950TIP3   OH251264   3.718   3.129   6.301 -0.7384 -0.2907  0.0556
 9950TIP3    H151265   3.800   3.083   6.284  0.1868  0.6644  1.6587
 9950TIP3    H251266   3.730   3.215   6.261 -1.2105 -0.3600 -0.2413
 9951TIP3   OH251267   6.500   1.391  16.522 -0.1350 -0.2426 -0.1531
 9951TIP3    H151268   6.484   1.478  16.559 -1.7538 -0.9882  1.0042
 9951TIP3    H251269   6.509   1.334  16.598  0.1374 -1.2225 -0.9075
 9952TIP3   OH251270   3.438   3.585   2.970 -0.2658  0.3569  0.0925
 9952TIP3    H151271   3.424   3.592   2.875  0.8379 -0.3234 -0.1477
 9952TIP3    H251272   3.481   3.666   2.995 -0.4170  0.4716 -0.0227
 9953TIP3   OH251273   0.074   3.969  10.453 -0.6078 -0.5272 -0.2712
 9953TIP3    H151274   0.099   4.060  10.467 -0.5312 -0.1188 -2.6588
 9953TIP3    H251275   0.155   3.926  10.424 -0.5977 -1.4315  1.0071
 9954TIP3   OH251276   0.002   0.346   3.368  0.7167 -1.2315  0.5160
 9954TIP3    H151277  -0.083   0.306   3.347 -0.5140  1.3714  0.0908
 9954TIP3    H251278  -0.011   0.382   3.456  0.3770  1.4733 -0.5509
 9955TIP3   OH251279   2.974   5.487  10.631 -0.1212  0.2530 -0.0569
 9955TIP3    H151280   2.959   5.393  10.633  1.4509 -0.0513  2.3788
 9955TIP3    H251281   2.912   5.523  10.695 -1.6711  1.1078 -1.9536
 9956TIP3   OH251282   2.537   4.182  13.854 -0.2122 -0.0031 -0.1407
 9956TIP3    H151283   2.451   4.146  13.876 -0.7652 -0.2794 -2.4468
 9956TIP3    H251284   2.519   4.257  13.798  1.0426  0.2494 -0.2529
 9957TIP3   OH251285   3.289   3.264  12.856 -0.4140  0.0981  0.2264
 9957TIP3    H151286   3.255   3.260  12.766  0.9071 -0.4830 -0.2683
 9957TIP3    H251287   3.211   3.276  12.910 -1.6918 -2.8958 -0.7306
 9958TIP3   OH251288   5.306   1.667   5.278  0.8685 -0.8910  0.3903
 9958TIP3    H151289   5.318   1.674   5.372 -0.8245 -0.3341  0.5900
 9958TIP3    H251290   5.332   1.752   5.243 -0.2257 -0.4664  0.5738
 9959TIP3   OH251291   1.734   3.740   5.681  0.5054 -0.4715 -0.2259
 9959TIP3    H151292   1.797   3.668   5.681 -0.0586 -1.0008 -1.5781
 9959TIP3    H251293   1.655   3.702   5.641 -0.8572  0.0143  1.8337
 9960TIP3   OH251294   5.805   3.161  14.506  0.0596 -0.5144 -0.1572
 9960TIP3    H151295   5.767   3.089  14.557  2.8705 -1.8055  0.3016
 9960TIP3    H251296   5.788   3.239  14.559 -0.3300 -1.3095  0.9226
 9961TIP3   OH251297   1.918   2.008  10.684  0.1599  0.0555 -0.0915
 9961TIP3    H151298   2.007   1.976  10.702  0.4808  1.0589  0.1663
 9961TIP3    H251299   1.916   2.096  10.723 -0.6804  0.3650 -0.8103
 9962TIP3   OH251300   6.200   4.011  11.114 -0.0211  0.3275 -0.0148
 9962TIP3    H151301   6.268   3.974  11.171 -0.0679 -2.2592 -1.4586
 9962TIP3    H251302   6.242   4.020  11.029 -0.7366  1.3485 -0.2746
 9963TIP3   OH251303   6.013   2.471  15.422  0.0013  0.0545 -0.5030
 9963TIP3    H151304   6.100   2.449  15.390 -0.1694 -0.9899 -0.2717
 9963TIP3    H251305   6.005   2.424  15.504  0.0753  1.9687  0.6609
 9964TIP3   OH251306   3.970   2.046  14.343 -0.0633  0.0783 -0.2540
 9964TIP3    H151307   4.046   1.989  14.346 -0.6189 -0.7053 -0.7752
 9964TIP3    H251308   4.006   2.133  14.327  1.0800  0.4607  3.3877
 9965TIP3   OH251309   0.553   0.702  12.464 -0.4634  0.5033  0.8793
 9965TIP3    H151310   0.570   0.647  12.387  2.3127  0.6848  1.2650
 9965TIP3    H251311   0.484   0.655  12.512 -1.4047 -0.2307 -1.0589
 9966TIP3   OH251312   6.795   5.272   5.831  0.0208  0.0284  0.1924
 9966TIP3    H151313   6.839   5.251   5.914  0.4634 -1.7872 -0.4709
 9966TIP3    H251314   6.846   5.226   5.765  0.4644  2.5079 -1.2944
 9967TIP3   OH251315   5.586   2.595   1.850  1.2448 -0.2191 -0.4511
 9967TIP3    H151316   5.644   2.563   1.919 -0.0260  0.9853  1.2324
 9967TIP3    H251317   5.519   2.527   1.842  2.1402 -1.0255 -1.5457
 9968TIP3   OH251318   0.018   3.976   5.331  0.4723  0.5139 -0.0814
 9968TIP3    H151319   0.049   3.916   5.263 -0.4026  1.0194 -0.9473
 9968TIP3    H251320   0.037   4.064   5.296  2.7029  0.8050  1.6114
 9969TIP3   OH251321   5.542   1.702   4.742  0.1143  0.3573 -0.4138
 9969TIP3    H151322   5.579   1.637   4.683  1.7073 -0.1094  1.0496
 9969TIP3    H251323   5.497   1.651   4.809  0.2437  0.8068  0.0190
 9970TIP3   OH251324   1.716   3.687  13.059  0.2559 -0.1749 -0.5745
 9970TIP3    H151325   1.671   3.726  13.134 -1.0135 -0.8234 -0.9663
 9970TIP3    H251326   1.809   3.705  13.074 -0.1627  1.6605  0.0034
 9971TIP3   OH251327   1.428   4.144   3.177 -0.2985 -0.6310  0.3316
 9971TIP3    H151328   1.504   4.091   3.153  0.3558 -0.3944  1.7859
 9971TIP3    H251329   1.355   4.082   3.173  0.3093 -1.4201  1.0673
 9972TIP3   OH251330   4.263   0.757  14.152  0.3299 -0.1552 -0.5265
 9972TIP3    H151331   4.199   0.737  14.220  0.3519 -1.1355 -0.7856
 9972TIP3    H251332   4.321   0.823  14.191  0.3484 -0.7207  0.4028
 9973TIP3   OH251333   4.576   5.087  14.605  0.3060  0.7931 -0.0783
 9973TIP3    H151334   4.483   5.101  14.590  0.1755 -0.0638 -0.1080
 9973TIP3    H251335   4.610   5.174  14.629 -0.0726  1.5553 -2.1576
 9974TIP3   OH251336   1.052   4.536  11.622  0.9852 -0.2277 -0.0249
 9974TIP3    H151337   1.014   4.452  11.647  0.3140  0.4217  1.2824
 9974TIP3    H251338   1.141   4.534  11.658  0.6731 -0.0607  0.7931
 9975TIP3   OH251339   2.734   4.975  11.137  0.3936 -0.0099 -0.0193
 9975TIP3    H151340   2.724   5.069  11.125  0.4397  0.0831  0.6420
 9975TIP3    H251341   2.819   4.955  11.098  0.1814  0.1414 -0.5683
 9976TIP3   OH251342   3.296   2.896  16.813 -0.1850  0.5913 -0.5006
 9976TIP3    H151343   3.209   2.935  16.809  0.4235  2.1115  0.2071
 9976TIP3    H251344   3.281   2.802  16.804 -1.9940  0.7193  0.6898
 9977TIP3   OH251345   3.488   3.474  11.594 -1.0139 -0.5297  0.2714
 9977TIP3    H151346   3.505   3.530  11.669  1.7827 -0.8806  0.0009
 9977TIP3    H251347   3.401   3.500  11.563  0.0290  3.5250  0.2724
 9978TIP3   OH251348   4.003   5.293   1.868 -0.3690 -0.0918 -0.2814
 9978TIP3    H151349   4.049   5.301   1.952 -2.6722  2.8583  0.8584
 9978TIP3    H251350   3.922   5.246   1.889 -1.4803  1.6302 -0.5561
 9979TIP3   OH251351   5.858   4.682  10.646 -0.2506  0.1483 -0.2083
 9979TIP3    H151352   5.796   4.610  10.639 -1.3593  1.1798 -1.8329
 9979TIP3    H251353   5.803   4.759  10.661  0.8250  0.8052  0.4888
 9980TIP3   OH251354   3.892   2.609   4.687 -0.3894  0.1541  0.6598
 9980TIP3    H151355   3.937   2.553   4.623 -1.9919  0.4956 -0.8453
 9980TIP3    H251356   3.922   2.698   4.665 -0.8957  0.2651  0.4046
 9981TIP3   OH251357   4.974   5.078   4.028 -0.7708 -0.6915 -0.4677
 9981TIP3    H151358   4.900   5.022   4.003 -2.0829 -0.0202  1.5934
 9981TIP3    H251359   4.937   5.167   4.028  0.8212  0.0386 -2.0483
 9982TIP3   OH251360   6.691   2.432  10.418  0.5433  0.2934 -0.7770
 9982TIP3    H151361   6.685   2.368  10.347 -0.5606  0.4943 -0.8882
 9982TIP3    H251362   6.781   2.463  10.415  0.8872 -0.7078 -1.2032
 9983TIP3   OH251363   3.008   1.253  16.581 -0.4254 -0.1126 -0.6506
 9983TIP3    H151364   3.032   1.302  16.502 -1.4313 -1.3078 -1.7472
 9983TIP3    H251365   2.986   1.166  16.549  0.4954 -1.0657  1.1408
 9984TIP3   OH251366   3.107   3.309   4.466 -0.0740 -0.0461 -0.4072
 9984TIP3    H151367   3.114   3.380   4.402  1.1621 -0.8174 -1.1675
 9984TIP3    H251368   3.038   3.252   4.431 -0.9391  0.6387  0.1105
 9985TIP3   OH251369   0.495   2.395  11.567  0.1716 -0.2313 -0.0251
 9985TIP3    H151370   0.412   2.429  11.600  0.4027  1.4394 -1.0575
 9985TIP3    H251371   0.474   2.358  11.481  0.3757 -0.5184  0.0446
 9986TIP3   OH251372   6.086   3.989  15.876 -0.3653 -0.0246 -0.2145
 9986TIP3    H151373   6.165   4.035  15.906 -0.7775  1.5105 -1.3601
 9986TIP3    H251374   6.070   3.923  15.944  1.6060 -0.0627  0.2981
 9987TIP3   OH251375   0.565   1.357  13.068 -0.0881 -0.2607 -0.1742
 9987TIP3    H151376   0.641   1.401  13.105  0.8528 -0.3330 -1.9227
 9987TIP3    H251377   0.490   1.411  13.093  0.6732  0.4651  0.5663
 9988TIP3   OH251378   4.396   5.747  15.027  0.3768 -0.4617  0.0749
 9988TIP3    H151379   4.448   5.734  14.947  0.3999 -1.0707  0.1864
 9988TIP3    H251380   4.358   5.834  15.017  0.4463 -0.5019 -0.5631
 9989TIP3   OH251381   0.807   3.417  13.764  0.5022  0.5124  0.2021
 9989TIP3    H151382   0.891   3.437  13.722  0.1460  3.9934  0.8513
 9989TIP3    H251383   0.826   3.339  13.818  2.9445  0.4224 -0.6366
 9990TIP3   OH251384   1.911   3.981   0.572 -0.6847  0.1373  0.2593
 9990TIP3    H151385   1.911   4.040   0.496 -0.2435 -0.6073 -0.3363
 9990TIP3    H251386   2.002   3.982   0.603  0.2573 -2.8357 -1.8930
 9991TIP3   OH251387   2.630   6.083   3.023  0.6636 -0.4260  0.1441
 9991TIP3    H151388   2.684   6.138   3.080  0.6127 -1.2516  1.0117
 9991TIP3    H251389   2.670   6.092   2.936  1.5989 -0.2499  0.5829
 9992TIP3   OH251390   5.749   1.919  14.874 -0.3651  0.6046 -0.2527
 9992TIP3    H151391   5.840   1.891  14.869 -0.2682  0.5861  1.2507
 9992TIP3    H251392   5.698   1.842  14.849  0.0124  0.5331 -0.8176
 9993TIP3   OH251393   3.189   1.992  13.224 -0.4022  0.0551  0.0580
 9993TIP3    H151394   3.178   2.018  13.133  0.1315 -1.0760 -0.3484
 9993TIP3    H251395   3.225   1.903  13.219 -2.1057 -0.7445  1.3856
 9994TIP3   OH251396   1.246   3.517   0.528 -0.1281 -0.0718 -0.2499
 9994TIP3    H151397   1.177   3.523   0.462 -1.5996 -0.2525  1.2144
 9994TIP3    H251398   1.263   3.608   0.554 -0.7545 -0.1094  0.3096
 9995TIP3   OH251399   6.135   0.552   2.457 -0.0016  0.5792 -0.2152
 9995TIP3    H151400   6.153   0.637   2.499 -0.7492  0.9365 -0.6028
 9995TIP3    H251401   6.163   0.487   2.522 -0.5236  1.1199  0.5709
 9996TIP3   OH251402   6.186   2.180   5.576  0.5754  0.3756 -0.4114
 9996TIP3    H151403   6.168   2.179   5.670 -0.0856 -0.4237 -0.5365
 9996TIP3    H251404   6.104   2.153   5.535  1.4036 -1.2589 -1.1063
 9997TIP3   OH251405   1.367   5.963   5.756  0.5585 -0.7329 -0.0398
 9997TIP3    H151406   1.366   5.912   5.837 -1.2096 -0.7101 -0.0072
 9997TIP3    H251407   1.347   6.053   5.785  1.7055 -0.3832 -0.3086
 9998TIP3   OH251408   3.993   6.208   4.737 -0.6092 -0.1247  0.3729
 9998TIP3    H151409   4.046   6.229   4.814  0.1361 -1.0599  0.1334
 9998TIP3    H251410   3.909   6.177   4.774  0.3377 -2.2420  0.9166
 9999TIP3   OH251411   5.810   1.620  16.458  0.1147 -0.3169 -0.5958
 9999TIP3    H151412   5.884   1.569  16.426 -0.6577 -1.5301 -0.5369
 9999TIP3    H251413   5.842   1.663  16.537  0.6293 -1.1864 -0.3198
10000TIP3   OH251414   1.283   4.262   5.619 -0.2549  0.2288  0.3730
10000TIP3    H151415   1.223   4.330   5.586  1.3768  1.9635  0.8339
10000TIP3    H251416   1.305   4.291   5.707  1.8800  0.0888 -0.0769
10001TIP3   OH251417   0.602   6.416   4.484 -0.1207 -0.8247 -0.5305
10001TIP3    H151418   0.667   6.480   4.456 -0.4473 -0.0323  0.4622
10001TIP3    H251419   0.653   6.343   4.518  0.2775 -0.0038  0.7051
10002TIP3   OH251420   5.083   2.283  16.138  0.0947 -0.1162  0.2342
10002TIP3    H151421   5.011   2.234  16.180  1.6244 -0.8377  2.1683
10002TIP3    H251422   5.050   2.372  16.131 -0.9120 -0.3757  1.2929
10003TIP3   OH251423   4.592   2.856   4.708 -0.2730 -0.2136 -0.2130
10003TIP3    H151424   4.630   2.934   4.749  0.7926 -0.5309 -0.5617
10003TIP3    H251425   4.666   2.799   4.692 -0.8828 -0.7847 -1.0904
10004TIP3   OH251426   1.959   3.648   4.878 -0.0441 -0.0240 -0.0983
10004TIP3    H151427   1.998   3.564   4.853 -0.0903 -0.5738  1.5148
10004TIP3    H251428   1.894   3.625   4.944  0.3500  1.3218  0.7990
10005TIP3   OH251429   4.699   3.849   3.607  0.3046  0.0915 -0.2739
10005TIP3    H151430   4.793   3.859   3.593  0.4341  2.2371  1.5598
10005TIP3    H251431   4.691   3.774   3.665  1.2298  1.7464  2.1283
10006TIP3   OH251432   1.395   3.595  10.770 -0.1008  0.4037 -0.7717
10006TIP3    H151433   1.384   3.665  10.705 -0.5378  0.8869 -0.1860
10006TIP3    H251434   1.377   3.515  10.721 -0.3132  0.7518 -1.2816
10007TIP3   OH251435   2.527   2.920   2.590 -0.6562  0.4829 -0.2802
10007TIP3    H151436   2.494   2.834   2.564  1.4948 -1.9614  4.0636
10007TIP3    H251437   2.612   2.928   2.547 -1.3449  1.0829 -1.6001
10008TIP3   OH251438   0.352   3.583  14.979  0.6625  0.3477 -0.2179
10008TIP3    H151439   0.277   3.627  14.938  0.7780  0.4677 -0.3030
10008TIP3    H251440   0.319   3.552  15.063 -0.8721 -3.6862 -2.0485
10009TIP3   OH251441   5.638   6.712  15.889 -0.3825 -0.1097 -0.3520
10009TIP3    H151442   5.710   6.739  15.831 -0.1651 -0.7541 -0.3928
10009TIP3    H251443   5.565   6.769  15.865  0.0047  0.3071 -0.5644
10010TIP3   OH251444   4.202   3.156   0.218  0.2716 -0.2310  0.0413
10010TIP3    H151445   4.257   3.136   0.293 -0.4748  1.9209  1.2714
10010TIP3    H251446   4.112   3.152   0.252 -0.0882  0.5854 -0.7424
10011TIP3   OH251447   0.681   0.499  13.105  0.2889  0.0877  0.3174
10011TIP3    H151448   0.586   0.500  13.107  0.2925 -0.3356  0.8069
10011TIP3    H251449   0.703   0.510  13.012 -0.2143  1.0953  0.3046
10012TIP3   OH251450   2.995   0.736   3.461  0.5287  0.0120 -0.5168
10012TIP3    H151451   3.075   0.714   3.412 -0.0649 -0.3056 -1.3650
10012TIP3    H251452   2.952   0.652   3.474 -0.6585  0.3931 -1.8199
10013TIP3   OH251453   4.842   3.246  11.444 -0.1200  0.1217  0.1256
10013TIP3    H151454   4.900   3.172  11.424  0.0603 -0.2064  1.7137
10013TIP3    H251455   4.874   3.317  11.389  1.0045 -0.4111  0.0503
10014TIP3   OH251456   4.941   1.290   0.951  0.0253  0.0585 -0.3406
10014TIP3    H151457   4.972   1.282   0.861 -1.4175 -0.4779 -0.8206
10014TIP3    H251458   4.893   1.373   0.953 -0.7989 -0.4093 -0.3482
10015TIP3   OH251459   6.600   5.544   0.095 -0.5142 -0.6745 -0.1073
10015TIP3    H151460   6.565   5.606   0.031 -2.2599 -1.5646 -0.0480
10015TIP3    H251461   6.552   5.563   0.175 -0.1647 -1.2868  0.2527
10016TIP3   OH251462   2.595   5.662  15.476 -0.4348 -0.6126  0.4028
10016TIP3    H151463   2.522   5.668  15.414 -1.3699 -1.7865  1.3482
10016TIP3    H251464   2.614   5.753  15.500 -0.4926 -0.1932 -1.0751
10017TIP3   OH251465   3.792   3.140   1.634 -0.2180  0.0864  0.3582
10017TIP3    H151466   3.714   3.126   1.688  0.8185  0.9814  2.1796
10017TIP3    H251467   3.833   3.054   1.627 -0.8711 -0.2154  0.1629
10018TIP3   OH251468   2.701   0.079  11.357 -0.4541 -0.5346 -0.1602
10018TIP3    H151469   2.623   0.025  11.366 -0.8509  0.2220  1.2724
10018TIP3    H251470   2.672   0.155  11.305 -0.9603  0.2152  1.1691
10019TIP3   OH251471   3.715   2.126   5.588 -0.0476 -0.8607 -0.4823
10019TIP3    H151472   3.672   2.203   5.627 -1.4525 -1.3014 -1.1124
10019TIP3    H251473   3.807   2.151   5.582 -0.3314  0.4371  0.1500
10020TIP3   OH251474   6.418   0.737  13.402 -0.1569 -0.9253 -0.0634
10020TIP3    H151475   6.384   0.734  13.491  0.2583 -0.9491  0.0953
10020TIP3    H251476   6.485   0.806  13.403 -0.4159 -0.6604 -0.4509
10021TIP3   OH251477   5.412   0.225  11.157 -0.6645  0.1150 -0.0389
10021TIP3    H151478   5.457   0.282  11.094 -0.4385 -0.0206  0.0007
10021TIP3    H251479   5.330   0.203  11.114 -0.9397  0.8037  0.1097
10022TIP3   OH251480   4.581   2.178   2.330  0.0581  0.0887  0.3135
10022TIP3    H151481   4.558   2.098   2.376 -0.4940  0.1522  0.1636
10022TIP3    H251482   4.604   2.150   2.242 -1.3243  0.1907 -0.1106
10023TIP3   OH251483   0.025   4.769  12.124  0.2215  0.1644 -0.6135
10023TIP3    H151484   0.069   4.854  12.119  0.8749 -0.0269  1.1096
10023TIP3    H251485   0.071   4.714  12.060  2.2704  0.0911  0.8318
10024TIP3   OH251486   2.218   1.628   1.122  0.5804 -0.4328 -0.2685
10024TIP3    H151487   2.251   1.692   1.185  1.4559 -1.1593  0.0319
10024TIP3    H251488   2.258   1.655   1.039  1.0446 -0.6459 -0.1200
10025TIP3   OH251489   6.732   3.784   5.571 -0.6065 -0.2870 -0.1867
10025TIP3    H151490   6.771   3.840   5.637  1.6791 -2.0813  0.1092
10025TIP3    H251491   6.739   3.833   5.489  0.5517  0.2181  0.2065
10026TIP3   OH251492   2.561   5.828   3.146 -0.2323  0.0753  0.0611
10026TIP3    H151493   2.583   5.916   3.117 -0.3351  0.2312  0.4426
10026TIP3    H251494   2.590   5.825   3.238  1.1776 -0.7925 -0.3815
10027TIP3   OH251495   2.563   0.905   2.465  0.3716  0.0932  0.3276
10027TIP3    H151496   2.584   0.880   2.375  3.1838  1.4836  0.4498
10027TIP3    H251497   2.471   0.930   2.463  0.0422 -1.0717 -1.8572
10028TIP3   OH251498   0.358   3.362   6.281  0.5159  0.2395  0.3859
10028TIP3    H151499   0.430   3.299   6.281  1.0089  0.7794  1.5437
10028TIP3    H251500   0.279   3.308   6.289  0.9548 -0.2505  1.7353
10029TIP3   OH251501   5.864   6.455  13.895 -0.0924  0.9799  0.7487
10029TIP3    H151502   5.852   6.429  13.804  0.8177  1.8234  0.3649
10029TIP3    H251503   5.790   6.417  13.941  0.7649 -1.5989  0.1234
10030TIP3   OH251504   1.082   2.977   1.601  0.2896  0.1483 -0.1227
10030TIP3    H151505   1.010   2.996   1.661  0.4109 -0.0676  0.0951
10030TIP3    H251506   1.111   2.889   1.625  0.1633 -0.0493 -0.6857
10031TIP3   OH251507   5.415   6.624  14.418 -0.0132 -0.1116 -0.0992
10031TIP3    H151508   5.401   6.672  14.336 -0.0051  0.8960  0.4689
10031TIP3    H251509   5.356   6.666  14.481 -1.1527 -1.8711  0.0675
10032TIP3   OH251510   6.273   6.558  15.947  0.4254 -0.1079 -0.1362
10032TIP3    H151511   6.361   6.523  15.959  0.4503  0.2533  0.8149
10032TIP3    H251512   6.276   6.645  15.987 -0.1353  0.2463 -0.8404
10033TIP3   OH251513   1.108   4.994   1.199 -0.0298  0.5860  0.2937
10033TIP3    H151514   1.160   5.039   1.132 -0.9755 -1.5857 -2.0270
10033TIP3    H251515   1.171   4.937   1.243 -0.0220 -0.6805 -1.2697
10034TIP3   OH251516   1.736   6.549   4.771 -0.0992 -0.1325  0.5915
10034TIP3    H151517   1.829   6.540   4.750  0.2809 -1.4092  2.5144
10034TIP3    H251518   1.733   6.619   4.836 -0.3248 -0.6811  1.1913
10035TIP3   OH251519   4.874   6.222   3.755 -0.4275  0.6303 -0.4559
10035TIP3    H151520   4.809   6.167   3.710 -0.9142  0.3718  0.5367
10035TIP3    H251521   4.951   6.166   3.761 -0.2763  0.7523 -1.1723
10036TIP3   OH251522   4.696   1.685  13.513 -0.3948 -0.0765  0.1021
10036TIP3    H151523   4.678   1.607  13.460 -1.2395  0.0770  0.1543
10036TIP3    H251524   4.786   1.672  13.544 -0.1804 -0.5550 -0.6967
10037TIP3   OH251525   5.858   2.994   4.227 -0.1613  0.3589 -0.6021
10037TIP3    H151526   5.943   2.988   4.271  1.7887 -0.0188 -4.0716
10037TIP3    H251527   5.816   2.910   4.247 -0.3303  0.9720  2.0622
10038TIP3   OH251528   6.725   2.300  17.053 -0.2308 -0.4431 -0.3637
10038TIP3    H151529   6.632   2.315  17.041 -0.1118  2.2824  1.4437
10038TIP3    H251530   6.737   2.295  17.148  1.6853  1.3643 -0.4372
10039TIP3   OH251531   4.231   6.684   2.334 -0.1853  0.3834 -0.6582
10039TIP3    H151532   4.232   6.589   2.344 -1.1792  0.0965 -2.8059
10039TIP3    H251533   4.289   6.702   2.261  1.0114  1.5976  0.5312
10040TIP3   OH251534   6.356   1.071  11.513  0.0126  0.0371 -0.3454
10040TIP3    H151535   6.367   1.030  11.428 -0.3263  0.4821 -0.6041
10040TIP3    H251536   6.418   1.024  11.570 -1.6200 -2.0650 -0.1974
10041TIP3   OH251537   4.528   4.807   1.254  0.2859  0.1167 -0.9263
10041TIP3    H151538   4.598   4.843   1.310  0.3029  0.3812 -1.1179
10041TIP3    H251539   4.533   4.857   1.173 -1.2549  1.3599 -0.3123
10042TIP3   OH251540   5.580   1.410  15.116 -0.2781 -0.2074  0.5349
10042TIP3    H151541   5.615   1.446  15.198 -0.0258  1.0170 -0.0788
10042TIP3    H251542   5.658   1.392  15.064 -0.4065 -1.6769  0.8249
10043TIP3   OH251543   0.437   6.664  11.306  0.4246  0.1441 -0.0901
10043TIP3    H151544   0.499   6.672  11.233 -0.1325 -1.5236 -0.7829
10043TIP3    H251545   0.491   6.674  11.385  1.3646 -0.0249 -0.6956
10044TIP3   OH251546   4.450   6.503   1.673  0.3991  0.0072  0.0568
10044TIP3    H151547   4.450   6.484   1.767  1.1398 -0.6434 -0.0573
10044TIP3    H251548   4.520   6.448   1.638 -1.0074 -1.1009 -1.1450
10045TIP3   OH251549   5.020   3.762  16.812 -0.8384  0.6348 -0.0353
10045TIP3    H151550   4.987   3.720  16.732 -0.0778  2.1500 -1.2026
10045TIP3    H251551   4.958   3.737  16.880 -2.0379  0.0546 -1.2979
10046TIP3   OH251552   1.242   1.408  11.557 -0.1142  0.0421  0.1934
10046TIP3    H151553   1.209   1.434  11.643 -1.2659  2.0107 -0.7866
10046TIP3    H251554   1.295   1.482  11.528  2.2653 -1.5587  0.1412
10047TIP3   OH251555   6.792   2.586   2.003  0.1600 -0.1377 -0.2023
10047TIP3    H151556   6.887   2.598   1.994  0.1066 -0.5902 -1.6466
10047TIP3    H251557   6.759   2.596   1.914 -1.0257 -1.0876  0.1193
10048TIP3   OH251558   1.904   4.945   0.166  0.3747  0.0908  0.1093
10048TIP3    H151559   1.861   5.022   0.129  0.4894 -0.1072 -0.4486
10048TIP3    H251560   1.920   4.968   0.258 -1.2157  0.0315  0.4220
10049TIP3   OH251561   3.896   3.106  14.669 -0.3458  0.4064 -0.2395
10049TIP3    H151562   3.861   3.046  14.735 -0.4430  0.6322 -0.0866
10049TIP3    H251563   3.989   3.114  14.692 -0.6942  1.7048  0.8181
10050TIP3   OH251564   0.593   6.049   3.515  0.3487 -0.8478 -0.4479
10050TIP3    H151565   0.661   5.981   3.514 -0.6344 -1.9098  0.9798
10050TIP3    H251566   0.514   6.004   3.485 -0.2592 -0.2753  0.2487
10051TIP3   OH251567   4.912   3.242   3.405  0.0153 -0.2919  0.8940
10051TIP3    H151568   4.904   3.180   3.477 -1.9381  0.0938  1.0769
10051TIP3    H251569   4.993   3.218   3.360 -1.2935 -3.8509  0.1193
10052TIP3   OH251570   0.694   6.240  13.029 -0.5262  0.0238  0.0053
10052TIP3    H151571   0.606   6.259  12.997 -0.9719 -0.8735  0.6786
10052TIP3    H251572   0.689   6.150  13.062  1.0745 -0.6898 -1.5209
10053TIP3   OH251573   6.537   6.645  12.413 -0.5160  0.0148  0.2049
10053TIP3    H151574   6.469   6.708  12.390 -1.2839 -1.1612 -0.7819
10053TIP3    H251575   6.568   6.611  12.329 -0.0907 -0.9106  0.7259
10054TIP3   OH251576   1.177   4.714   2.175  0.2851 -0.2023 -0.1315
10054TIP3    H151577   1.220   4.768   2.241 -1.0025  0.2166  0.4050
10054TIP3    H251578   1.184   4.624   2.209  0.4556 -0.1002  0.1055
10055TIP3   OH251579   1.977   0.200  12.585  0.2038  0.3616  0.0381
10055TIP3    H151580   1.996   0.288  12.554 -1.4876  1.8397  2.8318
10055TIP3    H251581   2.059   0.171  12.626  0.0415  1.8200  1.5165
10056TIP3   OH251582   5.936   5.194  15.009  0.0927 -0.4284  0.5656
10056TIP3    H151583   5.979   5.251  15.072 -1.1164  2.0620 -0.6917
10056TIP3    H251584   6.000   5.183  14.938  0.0985  0.0067  0.4962
10057TIP3   OH251585   0.131   1.230   2.845 -0.1156 -0.7553  0.1243
10057TIP3    H151586   0.057   1.201   2.899  0.4166 -0.9415  0.7724
10057TIP3    H251587   0.147   1.320   2.873  0.7856 -1.1716  0.9981
10058TIP3   OH251588   6.268   6.252   5.709  0.2266 -0.1420  0.0111
10058TIP3    H151589   6.306   6.197   5.641 -1.7656 -1.6491  0.0223
10058TIP3    H251590   6.333   6.321   5.724  1.7684 -1.1543 -1.6744
10059TIP3   OH251591   6.387   1.470   5.424 -1.0751 -0.0708  0.0448
10059TIP3    H151592   6.452   1.509   5.367 -0.5583  0.3458  0.8934
10059TIP3    H251593   6.411   1.499   5.512 -2.2418 -0.1282  0.4128
10060TIP3   OH251594   4.879   3.377   0.279  0.4172 -0.0916  0.3272
10060TIP3    H151595   4.869   3.362   0.185  1.6529 -0.8287  0.3010
10060TIP3    H251596   4.973   3.387   0.292  0.1795  1.1438  1.3351
10061TIP3   OH251597   5.070   1.453   4.807  0.0956 -0.4799 -0.1054
10061TIP3    H151598   5.160   1.452   4.776 -0.5977 -0.6314 -2.2402
10061TIP3    H251599   5.070   1.394   4.882  0.9205 -3.9585 -2.6316
10062TIP3   OH251600   0.135   3.910   4.217  0.0411 -0.0333 -0.5763
10062TIP3    H151601   0.042   3.887   4.208  0.0815 -0.6148  0.3568
10062TIP3    H251602   0.181   3.844   4.165 -0.0333 -0.0681 -0.5991
10063TIP3   OH251603   4.635   1.653  15.499 -0.0345 -0.2539 -0.7206
10063TIP3    H151604   4.584   1.731  15.474  1.5902  1.7445  1.6860
10063TIP3    H251605   4.697   1.642  15.427  1.0222  1.9880 -0.2422
10064TIP3   OH251606   3.483   0.503   3.608  0.2235 -0.4717  0.2986
10064TIP3    H151607   3.425   0.481   3.681 -0.2820  1.8844  0.6857
10064TIP3    H251608   3.571   0.486   3.642 -0.1143 -1.9076  0.5036
10065TIP3   OH251609   0.814   3.623   1.253 -0.1852 -0.7405 -0.0579
10065TIP3    H151610   0.861   3.669   1.322 -0.9898  1.0655 -0.6451
10065TIP3    H251611   0.723   3.623   1.281 -0.4838 -0.2229 -0.9756
10066TIP3   OH251612   1.478   4.584  12.095 -0.3049  0.6201 -0.1156
10066TIP3    H151613   1.476   4.656  12.032 -0.0696  1.0119  0.3203
10066TIP3    H251614   1.570   4.575  12.118 -0.6162  2.1576  2.0517
10067TIP3   OH251615   1.771   2.337  14.403 -0.5843  0.4610 -0.2957
10067TIP3    H151616   1.811   2.250  14.414 -0.7389  0.2691 -1.1178
10067TIP3    H251617   1.759   2.370  14.491 -0.0573 -0.1501  0.0123
10068TIP3   OH251618   1.282   2.498   0.802  0.4154 -0.1962  0.4029
10068TIP3    H151619   1.360   2.462   0.761 -0.2833 -1.2245 -0.0484
10068TIP3    H251620   1.215   2.495   0.734  0.3104  1.9840  0.3323
10069TIP3   OH251621   1.258   3.845  11.090 -0.4236  0.4389 -0.1297
10069TIP3    H151622   1.213   3.782  11.034 -0.0721 -0.6825  0.8195
10069TIP3    H251623   1.190   3.906  11.117 -1.3376 -1.0129  0.9867
10070TIP3   OH251624   1.960   4.780   2.329  0.0329 -0.0798  0.1751
10070TIP3    H151625   1.989   4.855   2.276  1.2145 -1.2295 -0.8719
10070TIP3    H251626   1.876   4.808   2.366  0.4337  1.7480 -0.2007
10071TIP3   OH251627   4.713   1.058  12.985  0.1659 -0.0391 -0.0484
10071TIP3    H151628   4.780   1.008  13.032 -1.0367  0.7740  2.7178
10071TIP3    H251629   4.724   1.148  13.016 -2.1518  0.1193  0.5153
10072TIP3   OH251630   0.872   1.979   1.291  0.6031 -0.2282  0.0811
10072TIP3    H151631   0.880   1.917   1.218  1.4261  0.3485 -0.3274
10072TIP3    H251632   0.928   1.943   1.359  0.5751 -0.2715  0.0813
10073TIP3   OH251633   3.605   2.302  15.120 -0.2401  0.7775  0.2072
10073TIP3    H151634   3.587   2.266  15.207  1.7298 -0.3967  0.2006
10073TIP3    H251635   3.699   2.322  15.122 -0.4465  2.0948 -1.2024
10074TIP3   OH251636   2.053   3.518  14.896  0.2243  0.4934 -0.2197
10074TIP3    H151637   2.135   3.554  14.863  0.8309 -1.1554 -0.5932
10074TIP3    H251638   2.060   3.424  14.881 -1.6778  0.2986 -0.1116
10075TIP3   OH251639   1.184   4.182   1.420  0.5240 -0.4751 -0.0567
10075TIP3    H151640   1.257   4.121   1.408  0.1090 -0.8376 -0.8273
10075TIP3    H251641   1.108   4.134   1.387  0.2679  0.6207 -1.1237
10076TIP3   OH251642   0.260   4.127   4.953  0.0672 -0.2123  0.0135
10076TIP3    H151643   0.175   4.096   4.987  0.6041 -0.3755  1.2642
10076TIP3    H251644   0.301   4.171   5.028  1.0248 -0.0043 -0.6206
10077TIP3   OH251645   0.713   5.581  13.300  0.7917 -0.0585 -0.1840
10077TIP3    H151646   0.790   5.540  13.263  0.4874 -0.8913  0.0885
10077TIP3    H251647   0.655   5.595  13.225  1.0825  0.2996 -0.3442
10078TIP3   OH251648   2.256   6.562  10.795  0.0899  0.2703 -0.1561
10078TIP3    H151649   2.193   6.501  10.758  0.4185  1.7659 -3.5547
10078TIP3    H251650   2.203   6.624  10.845 -0.7904 -0.0948 -0.6237
10079TIP3   OH251651   5.179   5.269   3.332  0.5718 -0.0497  0.0919
10079TIP3    H151652   5.165   5.221   3.413  1.0151 -1.7387 -0.7799
10079TIP3    H251653   5.156   5.207   3.263  2.0422  0.6762 -1.1195
10080TIP3   OH251654   3.253   3.789  13.614  0.4116 -0.0513  0.4305
10080TIP3    H151655   3.246   3.835  13.698  0.7750 -0.9755  0.9834
10080TIP3    H251656   3.282   3.700  13.637  1.9166  0.0803 -0.7832
10081TIP3   OH251657   6.622   1.524  11.735 -0.0631  0.8144  0.3397
10081TIP3    H151658   6.662   1.526  11.648 -0.4116 -1.3827  0.0792
10081TIP3    H251659   6.685   1.477  11.789  0.1188  2.1095  1.2996
10082TIP3   OH251660   3.373   3.615   2.711  0.4726  0.0416  0.1589
10082TIP3    H151661   3.280   3.634   2.694  0.3568  0.0465  0.7766
10082TIP3    H251662   3.419   3.685   2.664  0.2643 -1.0148 -1.7179
10083TIP3   OH251663   1.169   5.272  11.222 -0.2528 -0.1703 -0.1699
10083TIP3    H151664   1.155   5.299  11.313  2.2850  1.0137 -0.0499
10083TIP3    H251665   1.100   5.315  11.173 -0.2871  1.0635  0.9172
10084TIP3   OH251666   1.221   5.034  16.732  0.0950 -0.5894 -0.0001
10084TIP3    H151667   1.176   5.116  16.754  0.0872 -0.5227 -0.2617
10084TIP3    H251668   1.171   4.997  16.659  1.6789  0.5843 -1.7971
10085TIP3   OH251669   5.676   3.323   0.927 -0.6020 -0.0169  0.1281
10085TIP3    H151670   5.592   3.322   0.974 -0.8298 -0.2698 -0.2807
10085TIP3    H251671   5.657   3.280   0.843 -0.7970  2.4158 -1.1876
10086TIP3   OH251672   2.267   4.785  14.428  0.6071 -0.6002 -0.2491
10086TIP3    H151673   2.176   4.757  14.431  0.5554 -0.5263 -0.9898
10086TIP3    H251674   2.310   4.725  14.367  1.0371 -0.5819  0.0260
10087TIP3   OH251675   2.223   3.322   1.423  0.3445 -0.0099  0.0083
10087TIP3    H151676   2.134   3.292   1.439  0.4116 -2.7660 -3.6251
10087TIP3    H251677   2.277   3.269   1.481 -0.2022  0.8669  1.3843
10088TIP3   OH251678   1.859   6.547  15.428 -0.2554  0.5555  0.6961
10088TIP3    H151679   1.947   6.509  15.424 -0.2376  0.7098 -0.6396
10088TIP3    H251680   1.819   6.507  15.506  1.3346  1.2352  1.9252
10089TIP3   OH251681   0.769   3.335  16.038 -0.0374 -0.1086  0.0591
10089TIP3    H151682   0.702   3.288  16.087 -0.4171 -0.7322 -1.0543
10089TIP3    H251683   0.800   3.273  15.973  0.3797  0.7509 -0.5759
10090TIP3   OH251684   2.921   4.157   4.926  0.5449 -0.0543 -0.5224
10090TIP3    H151685   2.890   4.218   4.993 -3.1345 -0.3568 -1.7161
10090TIP3    H251686   2.947   4.079   4.976  1.7380  1.1095  0.7522
10091TIP3   OH251687   1.030   6.746  17.078  0.5631 -0.0629  0.0770
10091TIP3    H151688   1.021   6.659  17.041  0.9595  0.4190 -1.2279
10091TIP3    H251689   1.100   6.787  17.026 -1.0031  1.7334 -0.7337
10092TIP3   OH251690   1.964   4.114   1.773  0.2328  0.4020  0.0405
10092TIP3    H151691   1.975   4.186   1.711 -0.5234 -0.0368 -0.6229
10092TIP3    H251692   2.018   4.043   1.738  0.1445  0.2917  0.1259
10093TIP3   OH251693   4.120   5.047   2.175 -0.5066 -1.0219  0.2332
10093TIP3    H151694   4.141   5.093   2.094 -0.2717 -1.8600 -0.1919
10093TIP3    H251695   4.180   5.084   2.240  1.1112 -2.1514 -0.5616
10094TIP3   OH251696   0.193   0.194   3.606 -0.5207  0.5247 -0.0828
10094TIP3    H151697   0.286   0.181   3.585 -0.4453  1.1878 -0.1763
10094TIP3    H251698   0.180   0.288   3.599 -1.8637  0.2242 -2.8227
10095TIP3   OH251699   6.222   1.837   3.338  0.4445  0.0040 -0.1607
10095TIP3    H151700   6.252   1.822   3.428  1.6693  2.0424 -0.1657
10095TIP3    H251701   6.154   1.904   3.347  1.0888  0.7647 -0.7772
10096TIP3   OH251702   4.465   1.395  13.567  0.3457 -0.1191 -0.4611
10096TIP3    H151703   4.424   1.434  13.490 -0.0990 -1.0557 -0.7153
10096TIP3    H251704   4.423   1.309  13.575  1.8478 -0.8656 -0.3768
10097TIP3   OH251705   4.839   5.823   3.130  0.0521  0.2899 -0.4962
10097TIP3    H151706   4.914   5.791   3.081  1.3585  0.1003  1.5066
10097TIP3    H251707   4.795   5.883   3.070 -0.2872 -2.2409 -3.0034
10098TIP3   OH251708   3.345   6.391  14.501  0.5254  0.1299  0.5258
10098TIP3    H151709   3.273   6.394  14.563  2.2034 -0.3297  2.6423
10098TIP3    H251710   3.347   6.478  14.461 -1.2614  0.0860  0.2860
10099TIP3   OH251711   4.715   5.573   0.476 -0.5023  0.3414  0.7692
10099TIP3    H151712   4.785   5.526   0.522 -0.4336 -0.6791 -0.3026
10099TIP3    H251713   4.693   5.515   0.403 -1.6378  1.2149  0.3996
10100TIP3   OH251714   3.402   0.298  13.727 -0.3055 -0.2006 -0.5501
10100TIP3    H151715   3.351   0.261  13.655 -1.8281  1.1655 -0.2285
10100TIP3    H251716   3.445   0.374  13.689 -0.8118  0.3049 -0.1192
10101TIP3   OH251717   5.070   5.454  12.542 -0.5890 -0.0349  0.4460
10101TIP3    H151718   5.165   5.458  12.552 -0.0192  1.2914 -3.5246
10101TIP3    H251719   5.038   5.536  12.580  0.4599  1.4123 -1.5584
10102TIP3   OH251720   3.494   4.722   0.469  0.1938  0.2329  0.3076
10102TIP3    H151721   3.504   4.696   0.561 -0.7654  0.1456  0.4020
10102TIP3    H251722   3.436   4.798   0.472  1.4399  1.2236 -0.1142
10103TIP3   OH251723   1.444   3.482   3.281 -0.5462 -0.3271  0.1585
10103TIP3    H151724   1.446   3.550   3.215  2.7805 -1.2458 -0.8907
10103TIP3    H251725   1.464   3.401   3.234 -0.1770 -1.3710  1.9755
10104TIP3   OH251726   4.228   0.408   0.644 -0.1457 -0.1237 -0.4335
10104TIP3    H151727   4.225   0.500   0.618 -0.6464  0.5452  1.7494
10104TIP3    H251728   4.305   0.402   0.700 -0.9067 -0.6627  0.5907
10105TIP3   OH251729   1.869   0.156  14.162 -0.0641 -0.3106  0.0887
10105TIP3    H151730   1.927   0.156  14.238  0.8758  0.2044 -0.6182
10105TIP3    H251731   1.781   0.148  14.200  0.4655 -1.5495  1.1499
10106TIP3   OH251732   5.721   6.537  12.758 -0.2727  0.5190 -0.1028
10106TIP3    H151733   5.767   6.538  12.842  1.7642  3.3495 -1.0924
10106TIP3    H251734   5.629   6.548  12.781  0.3679  2.8780  1.7990
10107TIP3   OH251735   2.468   1.206  17.013  0.0558 -0.4918 -0.5829
10107TIP3    H151736   2.536   1.140  17.012 -1.4369 -2.2694  2.1606
10107TIP3    H251737   2.502   1.275  17.071  0.0227 -0.8026 -0.1889
10108TIP3   OH251738   4.490   2.802  17.128  0.3169  0.3778 -0.6955
10108TIP3    H151739   4.500   2.739  17.056  1.0415 -1.8100  1.2218
10108TIP3    H251740   4.396   2.803  17.145  0.3231 -0.3963 -0.5850
10109TIP3   OH251741   5.804   0.452  13.440 -0.7801 -0.1368  0.0335
10109TIP3    H151742   5.789   0.544  13.464 -1.0892 -0.3417  0.6647
10109TIP3    H251743   5.773   0.403  13.516 -1.6005 -0.8203 -0.7293
10110TIP3   OH251744   3.883   4.924  14.553  0.3111  0.0788 -0.4891
10110TIP3    H151745   3.966   4.969  14.569  0.7571 -1.0271  0.4781
10110TIP3    H251746   3.906   4.831  14.553 -1.0950 -0.3107  0.9411
10111TIP3   OH251747   3.580   0.252   3.863 -0.1054  0.3459  0.5056
10111TIP3    H151748   3.537   0.208   3.790  1.1633  0.4880 -0.3635
10111TIP3    H251749   3.611   0.180   3.919  0.2909  0.1847  0.0850
10112TIP3   OH251750   2.221   4.636  16.179  0.0127 -0.6897  0.1513
10112TIP3    H151751   2.309   4.652  16.215 -0.1102  0.0709  0.1250
10112TIP3    H251752   2.227   4.663  16.088  0.0447 -1.6714 -0.1459
10113TIP3   OH251753   4.295   2.436   3.003 -0.1262 -0.5319 -0.3731
10113TIP3    H151754   4.315   2.516   3.052  1.5922 -0.4358 -1.1520
10113TIP3    H251755   4.243   2.383   3.063 -0.7502  0.8969  0.3895
10114TIP3   OH251756   0.486   6.737  14.899 -0.5556  0.0509 -0.3066
10114TIP3    H151757   0.530   6.704  14.821  0.3743  0.5377 -0.0001
10114TIP3    H251758   0.508   6.673  14.968 -2.0095 -0.8032 -0.5914
10115TIP3   OH251759   0.891   3.619   5.101  0.7085  0.8629  0.2709
10115TIP3    H151760   0.887   3.524   5.110  0.5044  0.8131 -0.2856
10115TIP3    H251761   0.808   3.643   5.060 -0.1047  1.5102  2.2116
10116TIP3   OH251762   4.132   0.808  16.169 -0.1433  0.1820 -0.6036
10116TIP3    H151763   4.153   0.900  16.152  0.7566 -0.2053 -1.6626
10116TIP3    H251764   4.217   0.767  16.185 -0.4879 -0.5697 -0.6956
10117TIP3   OH251765   1.129   3.421   6.452 -0.7932 -0.0690 -0.3448
10117TIP3    H151766   1.042   3.455   6.470 -0.6980  0.2205 -0.4105
10117TIP3    H251767   1.188   3.483   6.495 -0.5703  0.5871 -1.5621
10118TIP3   OH251768   2.700   4.193  14.433  0.0840  0.0722  0.0595
10118TIP3    H151769   2.763   4.253  14.394  2.6106 -4.1972 -3.4425
10118TIP3    H251770   2.745   4.157  14.509 -1.4985  2.4393  2.2690
10119TIP3   OH251771   6.397   0.968   2.588  0.4457  0.6183 -0.1511
10119TIP3    H151772   6.396   0.984   2.493 -0.9494 -1.8282 -0.6400
10119TIP3    H251773   6.305   0.952   2.609  0.5607  2.2738  1.8970
10120TIP3   OH251774   1.665   4.830  16.639  0.6739 -0.1805 -0.2840
10120TIP3    H151775   1.691   4.921  16.622  0.7502 -0.0480  0.5070
10120TIP3    H251776   1.739   4.792  16.685  0.3559 -0.4340  0.0255
10121TIP3   OH251777   4.919   3.363   3.136 -0.1384  0.0830 -0.2852
10121TIP3    H151778   4.954   3.408   3.213  1.5296  1.5143 -1.7965
10121TIP3    H251779   4.911   3.272   3.164  1.1458  0.4138  1.3682
10122TIP3   OH251780   3.123   3.409   5.255  0.2225 -0.2393 -0.1300
10122TIP3    H151781   3.132   3.468   5.181 -2.6770 -1.6140 -1.7700
10122TIP3    H251782   3.141   3.464   5.332 -1.2089  2.5368 -1.6073
10123TIP3   OH251783   0.477   0.295  13.194 -0.2020  0.0782  0.6912
10123TIP3    H151784   0.435   0.371  13.153 -1.4408 -0.5484  0.7466
10123TIP3    H251785   0.443   0.220  13.146  1.0749 -0.4605  0.5836
10124TIP3   OH251786   6.253   5.310   3.312 -0.3766 -0.1670  0.0069
10124TIP3    H151787   6.215   5.319   3.400 -0.4364 -0.1839 -0.0172
10124TIP3    H251788   6.182   5.334   3.253 -1.5790 -3.6742 -0.2028
10125TIP3   OH251789   5.625   6.396   2.608 -0.3753  0.0751  0.2931
10125TIP3    H151790   5.625   6.367   2.517 -0.4960 -1.9380  0.8878
10125TIP3    H251791   5.684   6.471   2.609  2.1510 -1.7510 -0.9137
10126TIP3   OH251792   1.598   5.341  12.319 -0.1003 -0.0502  0.2498
10126TIP3    H151793   1.619   5.412  12.381 -0.3586  1.3051 -1.1613
10126TIP3    H251794   1.607   5.381  12.233 -1.9315 -1.2627 -0.5624
10127TIP3   OH251795   1.855   1.398  15.460 -0.1261 -0.5254  0.2539
10127TIP3    H151796   1.860   1.384  15.554  2.2658  0.5001  0.3465
10127TIP3    H251797   1.787   1.464  15.449 -0.4248 -0.6527  1.2468
10128TIP3   OH251798   4.321   3.639   0.788 -0.3961  0.1100 -0.0831
10128TIP3    H151799   4.404   3.671   0.753 -0.8896  2.1411  0.4500
10128TIP3    H251800   4.261   3.713   0.779 -1.7652 -0.8385  0.8305
10129TIP3   OH251801   1.739   4.541  12.799  0.0488  0.7373 -0.2731
10129TIP3    H151802   1.749   4.484  12.876 -0.8269  0.0144 -0.6793
10129TIP3    H251803   1.821   4.589  12.794  0.9934 -0.7997 -0.1536
10130TIP3   OH251804   5.095   2.011  11.639 -0.3299 -0.3759 -0.3188
10130TIP3    H151805   5.089   2.029  11.733 -0.7358  1.2423 -0.6185
10130TIP3    H251806   5.174   2.057  11.611  1.0845 -2.7263 -0.4148
10131TIP3   OH251807   6.706   6.579   3.258 -0.0915  0.2520 -0.1091
10131TIP3    H151808   6.700   6.600   3.164 -0.5661  0.3853 -0.0513
10131TIP3    H251809   6.795   6.546   3.269 -0.2321 -0.3629 -0.7260
10132TIP3   OH251810   1.597   3.599  13.513  0.1607  0.1063  0.0263
10132TIP3    H151811   1.578   3.693  13.508  0.6179  0.2408  0.7388
10132TIP3    H251812   1.516   3.557  13.483  0.2653  0.7281 -1.2020
10133TIP3   OH251813   4.216   0.333  16.233  0.3196 -0.5530  0.5766
10133TIP3    H151814   4.225   0.260  16.173 -0.0562 -0.8863  0.9252
10133TIP3    H251815   4.271   0.310  16.308  0.5511 -0.2752  0.4946
10134TIP3   OH251816   4.455   6.282  11.071  0.0295 -0.1143  0.6837
10134TIP3    H151817   4.480   6.254  11.159 -0.9711 -0.3803  0.9027
10134TIP3    H251818   4.412   6.367  11.084 -1.3391 -0.7633  0.6543
10135TIP3   OH251819   3.080   1.579   5.505 -0.0797  0.3819 -0.2772
10135TIP3    H151820   3.102   1.571   5.597 -0.6532  0.8964 -0.0827
10135TIP3    H251821   2.997   1.532   5.496  0.4547 -0.5120 -0.7463
10136TIP3   OH251822   5.746   4.352  14.200 -0.0330 -0.5731  0.0342
10136TIP3    H151823   5.679   4.373  14.265 -0.4157 -0.1692 -0.4802
10136TIP3    H251824   5.823   4.327  14.252 -0.4656 -0.6896  0.6335
10137TIP3   OH251825   6.285   2.171  12.989  0.9376 -0.4085  0.6119
10137TIP3    H151826   6.337   2.203  12.915  0.1833 -0.4958  0.0275
10137TIP3    H251827   6.211   2.231  12.994  1.6880  0.4169  2.1875
10138TIP3   OH251828   4.160   1.049  12.695 -0.0576 -0.2849  0.4533
10138TIP3    H151829   4.252   1.069  12.677  0.0955 -2.6953 -1.9006
10138TIP3    H251830   4.162   0.977  12.758 -0.2916 -0.8424 -0.1640
10139TIP3   OH251831   1.532   1.562   1.346  0.2575 -0.0904  0.2100
10139TIP3    H151832   1.583   1.582   1.425  0.0189  1.2546  0.0398
10139TIP3    H251833   1.591   1.582   1.274  0.2667 -0.7504  0.0226
10140TIP3   OH251834   6.441   5.645  15.516  0.1064  0.1674  0.5141
10140TIP3    H151835   6.449   5.578  15.583 -0.5746 -0.9123 -0.4348
10140TIP3    H251836   6.352   5.633  15.481 -0.4992  2.3537  1.1039
10141TIP3   OH251837   6.421   0.207  13.384  0.0634 -0.3586  0.4820
10141TIP3    H151838   6.484   0.278  13.398 -1.0554  0.6447  0.5586
10141TIP3    H251839   6.464   0.150  13.320  0.5708  0.9237 -0.3581
10142TIP3   OH251840   4.910   0.493  16.866  0.4448 -0.0510  0.1598
10142TIP3    H151841   4.902   0.575  16.818  0.7663  0.3475  0.7716
10142TIP3    H251842   4.820   0.458  16.868  0.3907  0.0350 -0.5234
10143TIP3   OH251843   4.913   3.115  13.798  0.6901 -0.6090  0.0739
10143TIP3    H151844   4.999   3.073  13.799  0.3515 -1.3227  1.2093
10143TIP3    H251845   4.854   3.050  13.836 -0.1940  0.1964  0.1246
10144TIP3   OH251846   0.973   1.813  12.439  0.2389 -0.5916 -0.0571
10144TIP3    H151847   0.971   1.790  12.346 -0.9674  0.1366 -0.2296
10144TIP3    H251848   0.967   1.909  12.439 -0.0821 -0.6088  0.7739
10145TIP3   OH251849   0.610   4.091  15.864 -0.1128 -0.4480 -0.3213
10145TIP3    H151850   0.614   4.145  15.786  0.6168 -0.7093 -0.4707
10145TIP3    H251851   0.549   4.020  15.842  0.1295 -0.5498 -0.6736
10146TIP3   OH251852   0.941   4.062   5.058 -0.1912  0.6310 -0.3520
10146TIP3    H151853   1.002   3.991   5.041 -0.2434  0.5312 -0.1293
10146TIP3    H251854   0.928   4.104   4.973 -0.2894  0.2695 -0.5192
10147TIP3   OH251855   0.557   1.501  16.465 -0.4200  0.1972  0.1657
10147TIP3    H151856   0.582   1.570  16.404 -2.1832  0.1821 -0.6214
10147TIP3    H251857   0.498   1.543  16.527 -0.7842 -0.3950  0.2326
10148TIP3   OH251858   0.392   1.598   2.880 -0.6311  0.4261  0.0215
10148TIP3    H151859   0.368   1.685   2.848 -0.6028  0.1591 -0.7328
10148TIP3    H251860   0.403   1.610   2.974  0.5433  1.4965 -0.2337
10149TIP3   OH251861   1.433   2.906   3.111 -0.8279  0.1442  0.0917
10149TIP3    H151862   1.526   2.914   3.090 -0.1776 -3.5793  0.8791
10149TIP3    H251863   1.397   2.855   3.039 -1.4469 -1.4101  1.4654
10150TIP3   OH251864   4.253   4.769  14.066 -0.3026 -0.4558  0.7742
10150TIP3    H151865   4.310   4.816  14.128 -0.0880  0.3089  0.0208
10150TIP3    H251866   4.196   4.837  14.030  1.0327 -0.4096 -1.4860
10151TIP3   OH251867   2.781   1.297  17.029  0.6070 -0.4083  0.6893
10151TIP3    H151868   2.844   1.341  17.085  1.0421 -1.0434  0.7050
10151TIP3    H251869   2.811   1.315  16.939 -1.1559  2.2437  0.5124
10152TIP3   OH251870   1.724   1.385  13.695 -0.3224  0.1854  0.4761
10152TIP3    H151871   1.797   1.402  13.756  1.6859  0.6096 -1.8806
10152TIP3    H251872   1.754   1.311  13.643 -1.3646  0.6986 -0.8956
10153TIP3   OH251873   2.585   5.991  13.743 -0.1157 -0.2540 -0.4790
10153TIP3    H151874   2.528   6.022  13.673  0.0465  0.4092 -0.3149
10153TIP3    H251875   2.655   5.943  13.697  0.6312  1.1554 -0.8659
10154TIP3   OH251876   0.903   3.044   0.269 -0.5806  0.0822  0.1120
10154TIP3    H151877   0.859   2.960   0.282  0.6903 -0.3286  2.3309
10154TIP3    H251878   0.974   3.024   0.207  0.7492 -0.9766  1.8624
10155TIP3   OH251879   0.170   1.125  11.354  0.0492  0.1332 -0.2396
10155TIP3    H151880   0.231   1.059  11.322 -1.5910 -2.4679  1.6006
10155TIP3    H251881   0.104   1.133  11.285  0.6977  0.5226 -0.8246
10156TIP3   OH251882   1.384   0.482   2.888 -0.1023 -0.3190  0.3028
10156TIP3    H151883   1.295   0.449   2.899 -0.1688  0.2356  1.6135
10156TIP3    H251884   1.388   0.511   2.797 -1.5264  0.3712  0.4285
10157TIP3   OH251885   1.821   1.714  13.606 -0.2471 -0.4002 -0.3402
10157TIP3    H151886   1.841   1.790  13.660  2.5590 -1.6783  0.5750
10157TIP3    H251887   1.728   1.697  13.623 -0.3330  1.3755  1.2977
10158TIP3   OH251888   4.308   5.498  13.101 -0.5098 -0.5700  0.8381
10158TIP3    H151889   4.308   5.453  13.017  1.2508 -2.5585  1.8333
10158TIP3    H251890   4.328   5.589  13.079  2.3917 -1.4737 -0.7503
10159TIP3   OH251891   2.867   3.250  11.459 -0.0919 -0.0188 -0.0293
10159TIP3    H151892   2.814   3.269  11.382 -0.6738 -1.4039 -0.0046
10159TIP3    H251893   2.872   3.155  11.462  0.5731  0.0319  1.2134
10160TIP3   OH251894   0.096   5.164   5.017  0.0947  0.2419 -0.4259
10160TIP3    H151895   0.091   5.250   5.058  1.4261  0.0102  0.2776
10160TIP3    H251896   0.123   5.104   5.087  0.2286 -0.5573 -1.1340
10161TIP3   OH251897   2.424   2.013  11.129  0.3948  0.3708  1.0552
10161TIP3    H151898   2.381   1.931  11.149  0.1007  1.0234  3.3970
10161TIP3    H251899   2.453   2.004  11.038 -0.2656 -1.9957  1.0285
10162TIP3   OH251900   3.125   6.099  16.456  0.0954 -0.0420 -0.3277
10162TIP3    H151901   3.176   6.105  16.376 -0.2293 -0.3269 -0.5588
10162TIP3    H251902   3.187   6.121  16.526  0.7687 -1.2033 -0.5274
10163TIP3   OH251903   6.647   2.159   3.849  0.2077  0.0567 -0.8083
10163TIP3    H151904   6.682   2.247   3.837 -1.5875  0.6905 -1.7118
10163TIP3    H251905   6.626   2.155   3.943 -2.9172  1.9485 -1.2894
10164TIP3   OH251906   6.014   6.366   5.720  0.1286  0.0915 -0.8053
10164TIP3    H151907   6.104   6.336   5.710  0.0916  0.3648 -1.9903
10164TIP3    H251908   5.967   6.289   5.752  0.4580 -0.5324 -1.7902
10165TIP3   OH251909   5.627   6.583  12.043  0.4542  0.0428 -0.5241
10165TIP3    H151910   5.611   6.650  12.110 -0.2095 -0.7118  0.0923
10165TIP3    H251911   5.540   6.546  12.027  0.6663 -0.0063 -1.5719
10166TIP3   OH251912   0.194   2.882  14.281  0.4245  0.1090 -0.3691
10166TIP3    H151913   0.219   2.888  14.373 -0.3513  0.4780 -0.1711
10166TIP3    H251914   0.124   2.817  14.279  0.6124 -0.0876 -0.7422
10167TIP3   OH251915   4.750   0.249   3.736  0.8539 -0.4646  0.0061
10167TIP3    H151916   4.767   0.155   3.745 -1.8534 -0.9327  1.4998
10167TIP3    H251917   4.698   0.257   3.656  0.2195 -0.4081  0.4155
10168TIP3   OH251918   3.958   3.711  14.092 -0.0875 -0.5220 -0.2943
10168TIP3    H151919   3.937   3.648  14.160  0.1106 -0.5484 -0.2549
10168TIP3    H251920   4.051   3.731  14.107  0.2333 -1.2870 -1.1725
10169TIP3   OH251921   4.419   0.420  16.607  0.0362 -0.1340 -0.0607
10169TIP3    H151922   4.433   0.337  16.562  0.7699 -0.4558  0.7254
10169TIP3    H251923   4.413   0.485  16.538  0.7936 -0.6604 -0.6300
10170TIP3   OH251924   5.278   5.838   3.830 -0.0650 -0.1193 -0.4328
10170TIP3    H151925   5.341   5.910   3.839 -0.9129  0.7826 -1.4371
10170TIP3    H251926   5.264   5.807   3.919  0.6674  0.6545 -0.0362
10171TIP3   OH251927   6.656   6.142  13.694  0.0412 -0.0108  0.2499
10171TIP3    H151928   6.617   6.075  13.749  0.2677 -0.9725 -0.7370
10171TIP3    H251929   6.707   6.094  13.629 -1.3033  1.0186 -1.6653
10172TIP3   OH251930   5.210   1.835  16.674 -0.0486 -0.4129 -0.6613
10172TIP3    H151931   5.298   1.812  16.704 -0.0911 -0.8804 -0.8885
10172TIP3    H251932   5.151   1.787  16.732 -0.1777  0.5908  0.0599
10173TIP3   OH251933   2.149   6.393   3.622  0.1575  0.1913  0.3875
10173TIP3    H151934   2.136   6.372   3.714 -0.3873  0.5959  0.4096
10173TIP3    H251935   2.152   6.489   3.620  1.5299  0.1652  0.1616
10174TIP3   OH251936   4.087   1.220  15.312  0.1796 -0.2014  0.6174
10174TIP3    H151937   4.153   1.186  15.373 -0.6730 -0.6041  1.3410
10174TIP3    H251938   4.006   1.219  15.362 -0.1795  1.3992  0.1307
10175TIP3   OH251939   5.920   0.122   2.422  0.9954  0.3979 -0.6593
10175TIP3    H151940   5.982   0.144   2.492  1.3619  1.3420 -1.2612
10175TIP3    H251941   5.942   0.033   2.397 -0.2928 -0.6528  1.6169
10176TIP3   OH251942   2.903   0.217   3.646 -0.4700 -0.4780  0.0355
10176TIP3    H151943   2.807   0.217   3.649 -0.4653  1.0744  1.2261
10176TIP3    H251944   2.929   0.242   3.735  1.0739 -1.7245 -0.0329
10177TIP3   OH251945   0.653   0.506   3.938  0.9632 -0.0473 -0.4046
10177TIP3    H151946   0.716   0.516   4.009  0.5747 -0.8257  0.0664
10177TIP3    H251947   0.643   0.411   3.928 -0.4027  0.0574 -0.2093
10178TIP3   OH251948   1.116   5.954   0.777  0.3610  0.6307 -0.1391
10178TIP3    H151949   1.068   5.880   0.742 -0.2385  0.9380  0.0261
10178TIP3    H251950   1.147   6.002   0.700 -0.0005  0.6915 -0.2446
10179TIP3   OH251951   2.525   3.110  11.371 -0.0900  0.2720 -0.7427
10179TIP3    H151952   2.472   3.187  11.354  0.4589  1.6256  2.8925
10179TIP3    H251953   2.612   3.133  11.338 -0.4885  0.0862 -2.0093
10180TIP3   OH251954   6.462   3.501   2.148  0.3383 -0.5386  0.2875
10180TIP3    H151955   6.482   3.500   2.054 -0.1217  0.2986  0.1670
10180TIP3    H251956   6.545   3.522   2.190  0.0814  1.4815 -0.1098
10181TIP3   OH251957   6.699   6.330  13.398  0.0165 -0.2634  0.5499
10181TIP3    H151958   6.651   6.323  13.316 -0.6350 -3.1012  1.0633
10181TIP3    H251959   6.650   6.395  13.448  1.0104  2.2829 -1.5792
10182TIP3   OH251960   6.672   2.729  14.245  0.4613 -0.4922  0.5351
10182TIP3    H151961   6.630   2.644  14.242 -1.2556  0.2706  1.3285
10182TIP3    H251962   6.661   2.766  14.158 -0.6550 -0.2628  0.7609
10183TIP3   OH251963   4.663   6.695   2.122 -0.0586 -0.2080 -0.1780
10183TIP3    H151964   4.625   6.708   2.209 -0.2804 -0.8832 -0.1697
10183TIP3    H251965   4.593   6.721   2.061 -0.0989 -0.2791 -0.1608
10184TIP3   OH251966   6.335   0.327  16.562  0.0440 -0.5877 -0.0818
10184TIP3    H151967   6.412   0.303  16.511 -0.4391 -0.1337 -1.0586
10184TIP3    H251968   6.354   0.416  16.593 -1.1791  0.6716 -2.6596
10185TIP3   OH251969   5.516   6.737  16.636 -0.0572 -0.2511 -0.1772
10185TIP3    H151970   5.560   6.705  16.715 -2.5765 -2.8612  0.3686
10185TIP3    H251971   5.463   6.810  16.667 -0.7146 -0.9965  0.5277
10186TIP3   OH251972   5.566   2.771  12.714  0.5262  0.5737  0.4582
10186TIP3    H151973   5.547   2.767  12.620  0.3494  0.0936  0.5063
10186TIP3    H251974   5.517   2.697  12.751  2.1101 -0.4217  0.6684
10187TIP3   OH251975   2.920   5.854  14.298  0.3969  0.3996  0.3430
10187TIP3    H151976   2.948   5.936  14.257 -1.5153  1.0791  0.2733
10187TIP3    H251977   2.824   5.858  14.294  0.2591 -1.8501  0.3391
10188TIP3   OH251978   4.536   5.739   1.986 -0.3723 -0.0192  0.3767
10188TIP3    H151979   4.629   5.753   2.004  0.0186 -1.1655 -0.5820
10188TIP3    H251980   4.515   5.800   1.916 -0.8779  1.6263  1.8915
10189TIP3   OH251981   3.928   1.216   2.964  0.3860 -0.6149 -0.1403
10189TIP3    H151982   3.874   1.168   2.901  1.7178 -0.8340 -1.1638
10189TIP3    H251983   4.007   1.163   2.972  1.4800  0.8917 -0.5362
10190TIP3   OH251984   0.853   6.304  13.540  0.2862  0.4907 -0.6850
10190TIP3    H151985   0.854   6.215  13.576  1.5671  1.1796  1.1315
10190TIP3    H251986   0.924   6.304  13.475  1.9380  0.7856  1.0396
10191TIP3   OH251987   4.796   5.696   1.147  0.0588  0.0550 -0.2074
10191TIP3    H151988   4.786   5.789   1.169  0.9471 -0.0892  0.8794
10191TIP3    H251989   4.891   5.682   1.143 -0.0653 -0.7971 -0.4453
10192TIP3   OH251990   4.819   1.598   4.767 -1.0335  0.2016 -0.4617
10192TIP3    H151991   4.905   1.567   4.793  0.0576  2.3061 -1.3147
10192TIP3    H251992   4.778   1.627   4.848 -1.3374 -1.6098  0.0732
10193TIP3   OH251993   4.760   5.186   0.444 -0.0144  0.0770 -0.3044
10193TIP3    H151994   4.817   5.123   0.399 -2.2995 -1.6889 -0.8914
10193TIP3    H251995   4.738   5.144   0.527 -0.6763  0.6091 -0.2040
10194TIP3   OH251996   2.972   1.333  15.836 -0.1168  0.0354  0.7551
10194TIP3    H151997   3.014   1.413  15.806  0.4728 -0.5181  0.0573
10194TIP3    H251998   3.045   1.274  15.855 -0.4728 -1.6020 -2.2560
10195TIP3   OH251999   4.136   5.557   4.349  0.1802 -0.1098 -0.2036
10195TIP3    H152000   4.059   5.505   4.324  0.7182 -2.3798  2.3326
10195TIP3    H252001   4.101   5.632   4.396 -0.5445  0.6339 -1.8700
10196TIP3   OH252002   1.229   2.081  14.412 -0.2831  0.3427  0.1899
10196TIP3    H152003   1.279   2.086  14.330 -0.9398  0.8674 -0.1855
10196TIP3    H252004   1.143   2.050  14.386 -0.5401  0.6486  0.6629
10197TIP3   OH252005   1.327   0.728  14.547 -0.4698 -0.2323  0.0461
10197TIP3    H152006   1.379   0.772  14.613 -0.2738  0.8980 -0.8265
10197TIP3    H252007   1.306   0.797  14.483 -0.0285 -1.4319 -1.4456
10198TIP3   OH252008   1.331   1.682   4.334 -0.0605  0.1340  0.3917
10198TIP3    H152009   1.392   1.619   4.296 -1.6548 -0.9480 -0.5115
10198TIP3    H252010   1.264   1.628   4.376 -1.4102  1.2061 -0.2876
10199TIP3   OH252011   1.651   0.911   6.603 -0.3987  0.3975 -0.2166
10199TIP3    H152012   1.743   0.912   6.579 -0.2644  1.6324  0.2876
10199TIP3    H252013   1.616   0.831   6.562  0.9950 -0.3630  0.0448
10200TIP3   OH252014   4.577   3.655   4.713 -0.1419  0.1836 -0.2038
10200TIP3    H152015   4.551   3.597   4.785  1.1281 -0.6644 -0.4036
10200TIP3    H252016   4.537   3.616   4.635  1.8985 -1.3543 -0.5739
10201TIP3   OH252017   4.331   6.291   5.939  0.8375  0.2722  0.3688
10201TIP3    H152018   4.376   6.259   6.017  0.5492 -0.6472  0.1661
10201TIP3    H252019   4.269   6.222   5.917  0.3194  0.8992 -0.1837
10202TIP3   OH252020   4.721   5.796   3.669  0.0527  0.0448 -0.1171
10202TIP3    H152021   4.726   5.885   3.635 -0.2119 -0.2663 -0.9890
10202TIP3    H252022   4.640   5.761   3.632 -1.3992  0.3526  2.4618
10203TIP3   OH252023   6.374   1.205  14.381 -0.0079 -0.4547 -0.0387
10203TIP3    H152024   6.454   1.205  14.328 -0.3471 -0.6752 -0.5620
10203TIP3    H252025   6.333   1.290  14.363  0.7144  0.1762  1.1802
10204TIP3   OH252026   6.178   4.315  12.273 -0.3130 -0.1032  0.2356
10204TIP3    H152027   6.086   4.335  12.294 -0.9138  0.0193 -2.1966
10204TIP3    H252028   6.227   4.391  12.305 -0.8233 -0.7396  2.7313
10205TIP3   OH252029   1.818   0.817   2.610 -0.0497  0.1134 -0.2861
10205TIP3    H152030   1.815   0.910   2.631 -2.3085  0.0777 -0.1953
10205TIP3    H252031   1.799   0.773   2.693 -1.4708 -0.2955 -0.7925
10206TIP3   OH252032   3.827   1.814   5.373  0.0737 -0.0882 -0.4089
10206TIP3    H152033   3.857   1.840   5.286  2.0908 -0.4976  0.1061
10206TIP3    H252034   3.879   1.736   5.394 -1.3880 -0.8563  0.6045
10207TIP3   OH252035   2.462   4.100   2.550 -0.1312  0.0879  0.1831
10207TIP3    H152036   2.393   4.166   2.543 -0.5588 -0.4348 -0.6602
10207TIP3    H252037   2.505   4.102   2.465  1.1965  0.7212  0.8471
10208TIP3   OH252038   2.093   6.425   3.358 -0.4033  0.0674  0.4140
10208TIP3    H152039   2.092   6.398   3.450 -0.0016 -2.1398 -0.1562
10208TIP3    H252040   2.003   6.410   3.328  0.1248 -2.1282 -0.2472
10209TIP3   OH252041   0.815   4.039   3.469  0.6058  0.7522  0.5288
10209TIP3    H152042   0.744   4.056   3.407  1.6654 -0.6562 -1.1554
10209TIP3    H252043   0.771   4.021   3.551 -0.8163  3.9328  0.6150
10210TIP3   OH252044   2.606   6.261   4.725  0.0741  0.2166  0.6593
10210TIP3    H152045   2.682   6.204   4.737 -0.4949 -1.2213 -1.8171
10210TIP3    H252046   2.541   6.229   4.787  0.2474 -0.9856  0.2514
10211TIP3   OH252047   5.766   4.697   1.397 -0.3902 -0.3229  0.3747
10211TIP3    H152048   5.816   4.727   1.473 -1.6425  1.0662  0.7080
10211TIP3    H252049   5.750   4.604   1.414 -0.9109  0.0299  1.9757
10212TIP3   OH252050   0.664   3.261   0.372 -0.0085 -0.0206 -0.2758
10212TIP3    H152051   0.667   3.224   0.283 -1.2854 -0.7713 -0.0298
10212TIP3    H252052   0.575   3.296   0.380 -0.2090 -0.7841  1.0181
10213TIP3   OH252053   0.823   0.037  14.246  0.4404  0.1615  0.2251
10213TIP3    H152054   0.821   0.103  14.177 -0.6756 -0.4574 -0.3585
10213TIP3    H252055   0.821  -0.047  14.200  1.4704 -0.2995  0.9679
10214TIP3   OH252056   0.402   6.168   3.230 -0.5332  0.0636 -0.3162
10214TIP3    H152057   0.495   6.146   3.226 -0.2527  1.2760 -3.0933
10214TIP3    H252058   0.358   6.084   3.246  0.9326 -0.8601 -0.9221
10215TIP3   OH252059   2.848   3.429  15.971  0.3384 -0.7242  0.1002
10215TIP3    H152060   2.811   3.375  16.041  0.8733 -0.9867  0.1882
10215TIP3    H252061   2.795   3.509  15.972 -1.1975 -1.6923 -0.7741
10216TIP3   OH252062   4.831   2.071  16.456 -0.2345 -0.1005  0.0376
10216TIP3    H152063   4.803   2.070  16.364  0.2616 -2.2094 -0.1364
10216TIP3    H252064   4.896   2.001  16.462  0.8781  0.9893  1.6814
10217TIP3   OH252065   5.737   1.868   2.781 -0.0846 -0.0226 -0.3131
10217TIP3    H152066   5.832   1.860   2.792  0.3845  2.7035 -1.6775
10217TIP3    H252067   5.702   1.862   2.870  1.4229 -0.2436  0.2870
10218TIP3   OH252068   1.260   3.277  16.168 -0.2287  0.0931 -0.4600
10218TIP3    H152069   1.279   3.193  16.209 -1.0856 -0.2464 -0.7185
10218TIP3    H252070   1.173   3.301  16.201  0.3106  1.2432  0.1775
10219TIP3   OH252071   0.956   2.520  11.271  0.2026  0.3000  0.5327
10219TIP3    H152072   0.940   2.449  11.208  0.5221  0.6930  0.0076
10219TIP3    H252073   0.888   2.508  11.337 -1.7956  1.3904 -1.1829
10220TIP3   OH252074   6.564   6.056   1.366 -0.5065  0.3318 -0.4073
10220TIP3    H152075   6.569   6.055   1.461  0.2867 -2.0089 -0.4003
10220TIP3    H252076   6.651   6.083   1.337  0.8185 -3.2528 -0.3460
10221TIP3   OH252077   4.992   3.988  11.828 -0.4881  0.3958  0.2634
10221TIP3    H152078   5.084   3.967  11.841 -1.0612 -1.6795  1.3300
10221TIP3    H252079   4.992   4.054  11.759  1.6069 -2.3414 -2.6304
10222TIP3   OH252080   5.753   0.516  14.913  0.2809 -0.1893 -0.3290
10222TIP3    H152081   5.834   0.542  14.868  0.0257  0.9328 -0.1840
10222TIP3    H252082   5.722   0.440  14.864  1.6373 -0.9003 -0.1260
10223TIP3   OH252083   1.780   5.541   3.580  0.2082 -0.2277  0.1443
10223TIP3    H152084   1.762   5.555   3.487 -0.5419 -0.8222  0.1948
10223TIP3    H252085   1.779   5.629   3.618  0.3150 -0.0006 -0.3652
10224TIP3   OH252086   0.983   6.193  11.291 -0.1469 -0.4175  0.0323
10224TIP3    H152087   0.952   6.259  11.353 -0.7153 -0.9451  0.3248
10224TIP3    H252088   0.985   6.238  11.207  1.7618  0.6535  0.5980
10225TIP3   OH252089   3.830   1.468   3.010 -0.8084  0.1673  0.0272
10225TIP3    H152090   3.741   1.465   3.045  0.1994 -1.7048  2.7474
10225TIP3    H252091   3.849   1.378   2.985  0.9119  0.1265  1.2897
10226TIP3   OH252092   1.942   4.941   5.640  0.7052 -0.4348  0.3614
10226TIP3    H152093   2.004   4.971   5.706 -0.9806 -0.2684  1.9688
10226TIP3    H252094   1.932   4.847   5.656 -0.2946 -0.2542  0.9083
10227TIP3   OH252095   2.427   2.471   2.692  0.0327  0.2464 -0.2321
10227TIP3    H152096   2.507   2.520   2.714  0.8418 -1.3500  0.5550
10227TIP3    H252097   2.459   2.386   2.663 -1.3661  0.0112 -1.1577
10228TIP3   OH252098   6.691   4.959  14.876 -0.0485  0.6907  0.3956
10228TIP3    H152099   6.598   4.941  14.865 -0.4349  2.0010  1.3455
10228TIP3    H252100   6.716   5.009  14.798 -0.0454  0.0908 -0.0011
10229TIP3   OH252101   1.751   1.913  16.043  0.0249  0.1112 -0.3929
10229TIP3    H152102   1.741   1.818  16.034 -0.5264  0.0106  1.0676
10229TIP3    H252103   1.715   1.933  16.129 -1.9967  1.9582 -1.5550
10230TIP3   OH252104   2.046   4.158   3.254 -0.2092 -0.2529  0.4876
10230TIP3    H152105   2.001   4.110   3.322  1.3711 -2.4157  0.1131
10230TIP3    H252106   2.000   4.135   3.173 -0.2886 -0.0241  0.4661
10231TIP3   OH252107   6.272   2.854   3.370 -0.0221 -0.4795  0.2882
10231TIP3    H152108   6.344   2.849   3.433 -0.6410 -0.8484  0.9792
10231TIP3    H252109   6.201   2.896   3.419 -0.6583 -1.1821 -0.0209
10232TIP3   OH252110   1.892   5.343  12.468  0.2233  0.4454  0.7768
10232TIP3    H152111   1.817   5.403  12.476  1.4862  2.0854  0.9607
10232TIP3    H252112   1.903   5.306  12.555 -1.5571 -1.3659  0.2908
10233TIP3   OH252113   2.196   1.015  16.092  0.1014 -0.7801  0.1229
10233TIP3    H152114   2.121   0.970  16.132  1.2451 -1.8142  1.1920
10233TIP3    H252115   2.161   1.100  16.064 -1.6744 -1.5949 -0.2524
10234TIP3   OH252116   4.823   5.677  16.995 -0.0350  0.4133  0.2256
10234TIP3    H152117   4.842   5.763  17.032  1.3227  0.3589 -0.2799
10234TIP3    H252118   4.909   5.640  16.976 -0.6190 -0.7945 -0.1695
10235TIP3   OH252119   5.375   0.172   6.116  1.0426 -0.0607  0.1655
10235TIP3    H152120   5.424   0.139   6.192  1.0437 -0.6347 -0.0851
10235TIP3    H252121   5.325   0.246   6.151  0.8866 -0.4422  0.7766
10236TIP3   OH252122   5.686   2.561   2.734  0.1915 -0.1636 -0.1553
10236TIP3    H152123   5.740   2.591   2.661  0.4629  1.1734  0.5760
10236TIP3    H252124   5.596   2.579   2.706  0.2335 -0.4903 -0.5185
10237TIP3   OH252125   4.782   5.443  11.383 -0.4014 -0.3837 -0.2935
10237TIP3    H152126   4.704   5.430  11.437 -0.6147 -1.8867 -0.9116
10237TIP3    H252127   4.771   5.531  11.347 -0.2157  0.6973  2.1070
10238TIP3   OH252128   6.563   0.893  13.178  0.1313  0.2654  0.4202
10238TIP3    H152129   6.636   0.835  13.202 -0.6664 -1.6414 -1.5037
10238TIP3    H252130   6.563   0.893  13.083 -2.3643  0.2490  0.3633
10239TIP3   OH252131   2.295   3.097   1.053 -0.7390 -0.8058 -0.2195
10239TIP3    H152132   2.303   3.046   0.973 -0.1236  0.3050 -0.8935
10239TIP3    H252133   2.385   3.121   1.075 -1.0146 -0.0290  0.0955
10240TIP3   OH252134   4.855   1.020   2.026  0.4183 -0.1151  0.5783
10240TIP3    H152135   4.815   0.997   2.110  0.4851 -3.2972 -0.1382
10240TIP3    H252136   4.830   0.949   1.967  1.2723  1.4568 -1.8446
10241TIP3   OH252137   5.515   3.137   1.903 -0.6556  0.3270 -0.0558
10241TIP3    H152138   5.530   3.169   1.993  1.2872  0.9381 -0.5340
10241TIP3    H252139   5.510   3.042   1.911  0.2319  0.3296  0.6276
10242TIP3   OH252140   0.714   3.727  16.997  0.0658  0.7067  0.1736
10242TIP3    H152141   0.809   3.712  16.997  0.0633  0.5375 -1.1310
10242TIP3    H252142   0.682   3.675  16.923 -0.9121  1.5434 -0.0138
10243TIP3   OH252143   1.647   5.631  11.037  0.6308  0.2879  0.5672
10243TIP3    H152144   1.727   5.681  11.050  0.6414  0.2977  0.4695
10243TIP3    H252145   1.676   5.540  11.030  0.5322  0.1765  1.5456
10244TIP3   OH252146   3.191   3.705  10.726  0.0973  0.3449  0.2180
10244TIP3    H152147   3.183   3.786  10.675 -2.5278 -0.8052 -1.3822
10244TIP3    H252148   3.122   3.711  10.791 -0.1068 -0.6031  0.0960
10245TIP3   OH252149   1.438   0.600   2.341  0.4450  0.2727  0.3663
10245TIP3    H152150   1.460   0.582   2.250 -0.6267  1.5027 -0.1713
10245TIP3    H252151   1.511   0.564   2.391  0.7009 -1.0650 -0.9175
10246TIP3   OH252152   1.295   4.699   3.385  0.5339 -0.4030  0.1899
10246TIP3    H152153   1.242   4.643   3.442  0.2400  0.5766  0.9122
10246TIP3    H252154   1.233   4.739   3.325  0.7278 -0.7782 -0.2607
10247TIP3   OH252155   6.377   2.670  11.068 -0.4620 -0.3292 -0.0256
10247TIP3    H152156   6.457   2.622  11.087 -0.5156 -0.1235  0.7686
10247TIP3    H252157   6.369   2.667  10.973  0.3259 -0.6064 -0.0908
10248TIP3   OH252158   1.131   6.306  14.853  1.2031  0.0256 -0.3868
10248TIP3    H152159   1.104   6.303  14.761  2.1015 -0.3756 -0.6445
10248TIP3    H252160   1.194   6.235  14.862  0.4643 -0.5157  0.7677
10249TIP3   OH252161   3.431   0.448   1.788 -0.0554 -0.2765 -0.2711
10249TIP3    H152162   3.496   0.378   1.798 -1.0934 -1.0125  1.7146
10249TIP3    H252163   3.361   0.425   1.848 -1.2446  1.5820 -0.8609
10250TIP3   OH252164   2.221   4.068  15.427 -0.3437  0.2772 -0.1040
10250TIP3    H152165   2.301   4.016  15.412 -0.7563 -0.3314 -0.2392
10250TIP3    H252166   2.244   4.126  15.499  0.6152  0.9639 -0.9422
10251TIP3   OH252167   4.247   3.150   5.300 -0.5522  0.4332  0.0077
10251TIP3    H152168   4.260   3.216   5.369  1.2873  0.5481 -0.4075
10251TIP3    H252169   4.201   3.197   5.231 -1.8861  0.4753  0.8856
10252TIP3   OH252170   2.232   0.774   5.708  0.1896  0.5293 -0.0468
10252TIP3    H152171   2.233   0.781   5.803  0.7374 -1.5348  0.1427
10252TIP3    H252172   2.324   0.764   5.683 -0.0706 -0.5556 -0.6219
10253TIP3   OH252173   6.169   4.521   3.999  0.0608  0.5841  0.2294
10253TIP3    H152174   6.081   4.504   4.034  0.3746  0.6336  1.0519
10253TIP3    H252175   6.207   4.434   3.987  0.2814  0.5946  0.8573
10254TIP3   OH252176   6.560   3.126  16.463  0.1441 -0.0400 -0.2525
10254TIP3    H152177   6.500   3.076  16.517 -0.0783  1.2978  0.7958
10254TIP3    H252178   6.593   3.063  16.398  0.5736 -1.7637  1.5323
10255TIP3   OH252179   3.096   5.749   0.708  0.3901 -0.4510  0.5878
10255TIP3    H152180   3.010   5.706   0.714  0.2890 -0.1498  1.3648
10255TIP3    H252181   3.141   5.722   0.788  1.2876 -1.1580 -0.1300
10256TIP3   OH252182   4.452   4.670  15.659  0.3506  0.1318  0.1023
10256TIP3    H152183   4.459   4.612  15.583  0.5496 -0.5195  0.6139
10256TIP3    H252184   4.376   4.725  15.640  1.5297  1.3329 -1.4803
10257TIP3   OH252185   0.905   3.819  11.932  1.1362  0.5076 -0.8898
10257TIP3    H152186   0.910   3.885  12.001  2.7270  0.1311 -0.6190
10257TIP3    H252187   0.872   3.868  11.856  1.5040  1.4421 -0.4732
10258TIP3   OH252188   3.058   3.690   1.998 -0.6824  0.3390 -0.3192
10258TIP3    H152189   3.024   3.777   2.017 -2.4707 -0.6703  1.4089
10258TIP3    H252190   3.004   3.631   2.050  1.0676 -1.7478 -0.7244
10259TIP3   OH252191   3.313   1.470  16.816  0.4202  0.4376  0.2987
10259TIP3    H152192   3.273   1.478  16.903  0.5467  1.6395  0.2685
10259TIP3    H252193   3.261   1.528  16.760  0.9758  0.4788 -0.1877
10260TIP3   OH252194   0.976   4.782  14.113  0.4696  0.9040 -0.1371
10260TIP3    H152195   0.910   4.836  14.156  0.3569 -1.6659  3.2922
10260TIP3    H252196   1.049   4.780  14.175  1.6225 -0.5210 -1.4598
10261TIP3   OH252197   3.179   6.010   0.911 -0.4698 -0.2815 -0.5997
10261TIP3    H152198   3.214   5.956   0.840  0.8750 -0.0804 -0.1201
10261TIP3    H252199   3.253   6.063   0.941 -1.2495  0.3536  0.3020
10262TIP3   OH252200   4.814   3.656  11.890  0.0694 -0.3505  0.1514
10262TIP3    H152201   4.880   3.594  11.920 -0.6192 -0.5285  1.3417
10262TIP3    H252202   4.839   3.739  11.930  0.2643 -0.1289 -0.4100
10263TIP3   OH252203   5.019   4.488   1.557 -0.2671 -0.2054  0.3086
10263TIP3    H152204   5.049   4.441   1.479  0.3630 -0.0290  0.4454
10263TIP3    H252205   4.923   4.480   1.554 -0.2720  0.1191 -0.6886
10264TIP3   OH252206   6.619   5.949  12.351 -0.0296 -0.8148  0.0403
10264TIP3    H152207   6.555   5.948  12.422 -1.5058 -2.1498 -1.2360
10264TIP3    H252208   6.591   6.021  12.295  0.7922 -0.1374  0.4698
10265TIP3   OH252209   0.735   5.803   1.768 -0.1694  0.0528 -0.4510
10265TIP3    H152210   0.757   5.879   1.822 -1.4207  0.5895 -0.6656
10265TIP3    H252211   0.668   5.757   1.818  1.0365 -1.2985 -0.0164
10266TIP3   OH252212   2.387   1.749   3.140  0.0259  0.1053 -0.1397
10266TIP3    H152213   2.476   1.715   3.145 -0.2336 -0.9067 -1.6789
10266TIP3    H252214   2.396   1.844   3.152  1.4474  0.1366 -1.2182
10267TIP3   OH252215   3.231   3.855  17.054 -0.2637 -0.0499  0.0602
10267TIP3    H152216   3.278   3.896  16.982  1.9361 -1.5491  0.5505
10267TIP3    H252217   3.281   3.877  17.132  0.2598 -2.4267  0.4952
10268TIP3   OH252218   1.552   3.054  14.823 -0.6413 -0.3564  0.0627
10268TIP3    H152219   1.583   3.090  14.740 -0.4554  0.5999  0.5328
10268TIP3    H252220   1.627   3.061  14.882 -0.2675 -2.5016 -0.1046
10269TIP3   OH252221   4.452   2.821   4.940  0.7034  0.7429  0.2292
10269TIP3    H152222   4.494   2.852   4.859 -0.0599 -0.4502 -0.6607
10269TIP3    H252223   4.524   2.802   4.999  1.5281 -1.7619 -1.4376
10270TIP3   OH252224   5.427   2.478  16.666  0.1066  0.3603  0.3745
10270TIP3    H152225   5.438   2.397  16.616 -0.4407 -0.0563  0.9188
10270TIP3    H252226   5.334   2.498  16.657  0.3979  1.4249 -0.5009
10271TIP3   OH252227   3.166   0.338  16.933  0.3898 -0.3734  0.3814
10271TIP3    H152228   3.219   0.417  16.930 -0.8908  0.4961  0.0137
10271TIP3    H252229   3.110   0.349  17.010  0.5593 -1.1702  0.6353
10272TIP3   OH252230   0.471   3.249   5.341 -0.4324  0.1327  0.8624
10272TIP3    H152231   0.469   3.338   5.305  0.9278 -0.0320  0.3219
10272TIP3    H252232   0.476   3.262   5.436 -1.0866  0.6133  0.8379
10273TIP3   OH252233   4.341   0.743  14.499 -0.5981  0.6440  0.3066
10273TIP3    H152234   4.332   0.807  14.428 -0.6161  0.4925  0.1728
10273TIP3    H252235   4.279   0.674  14.477  1.7455 -1.0807 -1.3367
10274TIP3   OH252236   3.330   6.405  15.285 -0.1468 -0.0403  0.1699
10274TIP3    H152237   3.273   6.353  15.341  0.2867  0.9129  1.5414
10274TIP3    H252238   3.285   6.408  15.201 -0.7764 -1.5586  0.4185
10275TIP3   OH252239   1.030   4.362   1.162  0.4379 -0.2383  0.3345
10275TIP3    H152240   0.943   4.361   1.123  0.9035  0.1941 -0.7685
10275TIP3    H252241   1.085   4.314   1.099  0.7923 -1.4888  1.5446
10276TIP3   OH252242   1.747   4.497  11.434  0.0094  0.5507  0.0791
10276TIP3    H152243   1.818   4.463  11.380 -0.6688 -0.4703 -0.2065
10276TIP3    H252244   1.761   4.592  11.435  0.7509  0.4691 -0.8507
10277TIP3   OH252245   4.568   1.035   4.020 -0.5900  0.1400 -0.3547
10277TIP3    H152246   4.574   1.057   4.113  0.2653 -1.7060  0.0783
10277TIP3    H252247   4.479   1.059   3.995 -0.9617  0.2978  1.0338
10278TIP3   OH252248   5.836   1.512   5.448  0.3876 -0.4413  0.2043
10278TIP3    H152249   5.922   1.529   5.410 -0.3410  0.6610 -1.0245
10278TIP3    H252250   5.798   1.444   5.393  0.1079 -0.2739  0.1911
10279TIP3   OH252251   0.973   5.681  16.469  0.6052 -0.1879 -0.1992
10279TIP3    H152252   0.999   5.608  16.412 -0.7082 -0.2689 -0.7121
10279TIP3    H252253   0.992   5.649  16.557  0.3254 -1.0430 -0.4333
10280TIP3   OH252254   3.874   4.935   1.352  0.0999 -0.3924  0.3454
10280TIP3    H152255   3.809   4.967   1.415  1.0430  0.5896  0.8446
10280TIP3    H252256   3.958   4.966   1.386  0.6686 -0.1273 -1.2200
10281TIP3   OH252257   6.239   3.108   0.275 -0.2848  0.2526 -0.2940
10281TIP3    H152258   6.240   3.036   0.212 -1.5503 -1.6950  1.7098
10281TIP3    H252259   6.210   3.184   0.225  3.4116  0.1000 -3.0555
10282TIP3   OH252260   0.011   6.195   1.432  0.5713  0.1486 -0.1987
10282TIP3    H152261   0.043   6.264   1.490  0.1934  0.3999 -0.2865
10282TIP3    H252262   0.072   6.123   1.444  1.3333  0.7181 -0.5702
10283TIP3   OH252263   2.874   6.553   1.261 -0.5325  0.0219  0.0265
10283TIP3    H152264   2.936   6.480   1.251 -1.5125 -0.7438 -0.5830
10283TIP3    H252265   2.800   6.515   1.308 -1.0792  0.6115 -0.3452
10284TIP3   OH252266   6.426   5.937  12.053  0.0886  0.3790  0.2640
10284TIP3    H152267   6.509   5.890  12.050 -0.7557 -1.2336  0.9539
10284TIP3    H252268   6.437   6.011  11.993  1.0084 -1.4845 -1.9909
10285TIP3   OH252269   0.280   4.648  12.923  0.1906 -0.1413  0.3961
10285TIP3    H152270   0.223   4.602  12.984 -0.7136  0.9227  0.3784
10285TIP3    H252271   0.261   4.609  12.838 -0.8034  0.4501  0.3316
10286TIP3   OH252272   3.708   4.203  16.685  0.0202 -0.1250 -0.3229
10286TIP3    H152273   3.765   4.205  16.762 -0.9493 -1.3092  0.4691
10286TIP3    H252274   3.700   4.295  16.658  2.5427  0.0396 -0.6902
10287TIP3   OH252275   6.164   6.731  12.740 -0.7766  0.2045 -0.3473
10287TIP3    H152276   6.246   6.748  12.692 -0.5444 -1.5917 -0.6629
10287TIP3    H252277   6.149   6.637  12.728 -0.9869 -0.2382  2.6983
10288TIP3   OH252278   2.261   2.030   4.268  0.3299  0.5509 -0.6061
10288TIP3    H152279   2.330   2.095   4.283 -0.8451  1.6470  0.2952
10288TIP3    H252280   2.249   1.989   4.354 -0.7287  1.0028 -0.5202
10289TIP3   OH252281   1.545   2.733  12.664 -0.1005 -0.1921 -0.5655
10289TIP3    H152282   1.579   2.786  12.735 -0.1097 -2.3136  1.1129
10289TIP3    H252283   1.618   2.725  12.603  0.2409  0.7874 -0.3009
10290TIP3   OH252284   3.884   3.859  13.827  0.7121  0.2098  0.6711
10290TIP3    H152285   3.855   3.774  13.861  0.8325  0.4674  1.4262
10290TIP3    H252286   3.899   3.913  13.904  0.8758  0.8495  0.2067
10291TIP3   OH252287   0.468   2.304  17.159 -0.7468  0.0299 -0.1613
10291TIP3    H152288   0.384   2.331  17.122 -0.1874  0.8596 -0.8764
10291TIP3    H252289   0.507   2.249  17.091  0.2068  1.4154 -0.7841
10292TIP3   OH252290   2.053   4.341   5.171  0.3900 -0.3128 -0.3872
10292TIP3    H152291   2.045   4.364   5.263  1.1852 -1.0216 -0.1225
10292TIP3    H252292   1.983   4.389   5.127 -0.2312 -0.2633  0.6384
10293TIP3   OH252293   0.915   6.304  13.215 -0.2255 -0.3905  0.1799
10293TIP3    H152294   0.964   6.244  13.272  2.4418 -1.3724 -2.8579
10293TIP3    H252295   0.864   6.247  13.158 -0.6738  0.4042 -0.2286
10294TIP3   OH252296   0.980   0.815  14.112 -0.2606  0.3343 -0.0512
10294TIP3    H152297   0.922   0.849  14.044 -1.1023 -1.9725 -0.5795
10294TIP3    H252298   1.002   0.726  14.083  0.7018 -0.1148  1.8789
10295TIP3   OH252299   1.720   3.285  12.034 -0.4167 -0.8736  0.4616
10295TIP3    H152300   1.627   3.295  12.015 -0.3762  0.7665  1.0076
10295TIP3    H252301   1.738   3.350  12.102  0.7887 -2.2823  1.5799
10296TIP3   OH252302   2.392   4.915  14.639 -0.1976 -0.1820 -0.5024
10296TIP3    H152303   2.355   4.872  14.562  0.3694 -0.5197 -0.5885
10296TIP3    H252304   2.440   4.846  14.685 -1.0313 -0.1351  0.4854
10297TIP3   OH252305   3.819   5.976   3.451  0.3489  0.4927  0.1448
10297TIP3    H152306   3.764   5.941   3.381  1.1950 -1.8140  0.5524
10297TIP3    H252307   3.768   5.962   3.531  0.2282  1.2771  0.2165
10298TIP3   OH252308   0.114   4.545   5.690  0.5488 -0.3703 -0.1022
10298TIP3    H152309   0.155   4.486   5.627  1.1426  0.1497 -0.2183
10298TIP3    H252310   0.065   4.487   5.749  0.1741 -0.8747 -0.9031
10299TIP3   OH252311   1.550   4.375  14.226 -0.2411  0.0652 -0.0890
10299TIP3    H152312   1.630   4.327  14.206 -0.4103 -1.0672  1.7634
10299TIP3    H252313   1.546   4.377  14.321 -2.3934  0.1251 -0.1275
10300TIP3   OH252314   3.557   5.304   1.419 -0.2427 -0.6941 -0.1338
10300TIP3    H152315   3.629   5.367   1.415 -0.4117 -0.5606 -1.4961
10300TIP3    H252316   3.480   5.357   1.437 -0.5508 -0.3235 -2.2999
10301TIP3   OH252317   4.065   1.831  13.751 -0.2175 -0.2829  0.6159
10301TIP3    H152318   4.036   1.741  13.739 -0.0210 -0.2039 -0.6847
10301TIP3    H252319   4.158   1.830  13.730  0.4578 -0.2639  3.3369
10302TIP3   OH252320   5.550   2.143   3.482 -0.2512 -0.5394 -0.2322
10302TIP3    H152321   5.462   2.162   3.447  0.7911  1.3381 -2.0608
10302TIP3    H252322   5.563   2.050   3.462 -1.3538 -0.5456 -1.0596
10303TIP3   OH252323   0.443   5.621  12.655  0.5501  0.3719  0.2072
10303TIP3    H152324   0.388   5.550  12.688  0.7847 -0.0030 -0.2068
10303TIP3    H252325   0.533   5.591  12.669  0.6578  0.8203  0.5300
10304TIP3   OH252326   3.025   6.779   3.212 -0.4472 -0.5451 -0.4114
10304TIP3    H152327   3.076   6.705   3.244 -0.6349 -0.1133  0.9499
10304TIP3    H252328   3.085   6.854   3.220 -0.4144 -0.4504 -1.3432
10305TIP3   OH252329   1.964   4.424  13.857 -0.3306 -0.3020 -0.6800
10305TIP3    H152330   1.875   4.399  13.831 -0.4181  0.9286 -1.6591
10305TIP3    H252331   2.019   4.353  13.822 -0.9340 -1.2730  0.2727
10306TIP3   OH252332   0.484   6.423   2.223 -0.2863  0.1965  0.5388
10306TIP3    H152333   0.411   6.485   2.215 -0.2385  0.2167  0.2628
10306TIP3    H252334   0.471   6.361   2.152  0.4102  0.6612 -0.0091
10307TIP3   OH252335   1.004   3.277  16.259 -0.1191 -0.1540 -0.0252
10307TIP3    H152336   0.968   3.196  16.294  0.6978 -0.7245 -0.4897
10307TIP3    H252337   0.928   3.323  16.222 -0.6823 -0.4021  0.8175
10308TIP3   OH252338   6.575   6.411   1.574  0.3404  0.3380 -0.1302
10308TIP3    H152339   6.611   6.409   1.485 -0.3591  0.3578 -0.4245
10308TIP3    H252340   6.558   6.504   1.591  1.5277  0.4599  0.4722
10309TIP3   OH252341   2.914   2.659   0.242 -0.2376  0.5749 -0.2107
10309TIP3    H152342   2.869   2.740   0.268 -0.6959  1.1663 -2.5450
10309TIP3    H252343   3.004   2.687   0.224 -0.2167  0.4361 -0.3233
10310TIP3   OH252344   3.069   6.084  11.838  0.1118 -0.6410  0.9619
10310TIP3    H152345   3.008   6.028  11.885  0.3830 -0.1658  1.9306
10310TIP3    H252346   3.153   6.038  11.843 -0.0384 -1.0152  0.1449
10311TIP3   OH252347   3.079   2.000   5.191 -0.2435 -0.2149  0.1321
10311TIP3    H152348   3.086   1.954   5.107 -2.4140 -0.3172 -0.0419
10311TIP3    H252349   3.029   1.941   5.247  0.1360  0.3786  1.1337
10312TIP3   OH252350   2.430   2.462   0.849 -0.2336 -0.3231 -0.1447
10312TIP3    H152351   2.440   2.367   0.847 -0.2103 -0.3864 -4.2847
10312TIP3    H252352   2.341   2.477   0.816 -1.5152  1.1700  3.4161
10313TIP3   OH252353   2.366   5.737  16.264 -0.0529 -0.0770 -0.0186
10313TIP3    H152354   2.302   5.779  16.207 -0.6319  0.1525  0.7811
10313TIP3    H252355   2.446   5.732  16.212 -0.1829  1.3298 -0.3837
10314TIP3   OH252356   5.076   1.134  13.221  0.1102 -0.3079  0.1763
10314TIP3    H152357   5.151   1.109  13.167 -0.0508 -1.2989  0.3908
10314TIP3    H252358   5.099   1.104  13.309 -0.8018 -1.2295  0.1265
10315TIP3   OH252359   5.717   5.257  13.502  0.2474  0.2583  0.0819
10315TIP3    H152360   5.719   5.167  13.535 -1.6773 -0.5099 -1.6740
10315TIP3    H252361   5.769   5.254  13.422 -1.8579  0.0087 -1.3593
10316TIP3   OH252362   4.168   0.050   0.868 -0.0210 -0.0739 -0.5917
10316TIP3    H152363   4.110   0.081   0.937  0.4398 -1.1234  0.2870
10316TIP3    H252364   4.256   0.077   0.896  0.3284 -1.6759 -0.0599
10317TIP3   OH252365   2.470   4.432  11.219  0.2285  0.2455 -0.3556
10317TIP3    H152366   2.526   4.405  11.146 -0.5014  1.9848 -1.6093
10317TIP3    H252367   2.386   4.389  11.202  0.0791  0.5960 -0.5122
10318TIP3   OH252368   5.972   0.612  13.109  0.5293  0.0548  0.2252
10318TIP3    H152369   5.925   0.633  13.029  0.2770 -0.3508  0.2614
10318TIP3    H252370   6.001   0.521  13.097 -3.5178 -1.8012  2.4101
10319TIP3   OH252371   3.330   1.205   4.721  0.3288  0.0988 -0.0392
10319TIP3    H152372   3.313   1.116   4.753  1.6719 -0.3434 -0.5061
10319TIP3    H252373   3.324   1.198   4.626 -1.3111  0.9155 -0.0417
10320TIP3   OH252374   2.268   4.367  10.665 -0.0881 -0.1852  0.2066
10320TIP3    H152375   2.188   4.332  10.704  0.4271  0.2142  1.6635
10320TIP3    H252376   2.299   4.297  10.608 -1.6886 -0.1815 -0.7241
10321TIP3   OH252377   3.683   1.398  11.309 -0.4830  0.0656  0.3353
10321TIP3    H152378   3.654   1.481  11.346  0.8620  0.7355 -0.0409
10321TIP3    H252379   3.717   1.421  11.223  0.0233 -0.8610  0.2733
10322TIP3   OH252380   5.615   3.488  13.229  0.1241 -0.1307  0.0656
10322TIP3    H152381   5.644   3.577  13.213  1.7784 -0.0077  2.9385
10322TIP3    H252382   5.568   3.492  13.312  1.7474 -2.0990  1.1963
10323TIP3   OH252383   6.295   0.378  15.471 -0.5150  0.7694  0.3084
10323TIP3    H152384   6.357   0.306  15.481 -0.6712  0.0404 -2.9584
10323TIP3    H252385   6.351   0.457  15.468  0.1555  0.2803 -0.8959
10324TIP3   OH252386   4.531   5.773  16.090  0.9483 -0.4811 -0.4374
10324TIP3    H152387   4.465   5.729  16.143  1.0272 -1.3103 -1.0147
10324TIP3    H252388   4.546   5.714  16.016 -1.0195  1.7580 -2.8062
10325TIP3   OH252389   4.695   1.746  12.483  0.2352  0.4489 -0.1641
10325TIP3    H152390   4.688   1.679  12.415  0.8356 -0.0490  0.2599
10325TIP3    H252391   4.659   1.705  12.561 -0.0345  0.8670 -0.0628
10326TIP3   OH252392   3.589   0.995  10.508  0.0957 -0.0019  0.0995
10326TIP3    H152393   3.543   0.940  10.572  2.0910  0.9162  2.5122
10326TIP3    H252394   3.524   1.059  10.480 -0.6230  0.1789  2.0269
10327TIP3   OH252395   3.183   1.695  13.818 -0.1855  0.0620  0.1163
10327TIP3    H152396   3.126   1.618  13.817  1.1432 -0.9558 -0.3774
10327TIP3    H252397   3.213   1.702  13.908 -0.5792  0.2182  0.2368
10328TIP3   OH252398   2.868   2.602  16.832  0.3666  0.3575  0.2709
10328TIP3    H152399   2.940   2.606  16.768 -0.2153  2.3350 -0.3301
10328TIP3    H252400   2.792   2.576  16.780  0.0823  1.0493  0.3369
10329TIP3   OH252401   4.450   6.560   1.335 -0.4548 -0.6281  0.4524
10329TIP3    H152402   4.470   6.474   1.374  1.5385 -0.9270 -1.0422
10329TIP3    H252403   4.497   6.559   1.251 -4.2121  0.0843 -1.8977
10330TIP3   OH252404   1.821   0.668   0.397 -0.3289  0.4849  0.1857
10330TIP3    H152405   1.857   0.736   0.454  1.7579 -0.0370 -0.4268
10330TIP3    H252406   1.868   0.588   0.421 -2.8370 -0.8580  0.9903
10331TIP3   OH252407   2.930   2.029  13.289 -0.7001 -0.1243  0.0330
10331TIP3    H152408   2.939   2.102  13.351 -2.3151  0.8030 -0.7464
10331TIP3    H252409   3.017   2.017  13.252 -0.3630  1.3283  0.2952
10332TIP3   OH252410   0.459   5.399   4.179  0.1197 -0.3103 -0.0768
10332TIP3    H152411   0.468   5.334   4.109  3.8010 -0.6374  0.4695
10332TIP3    H252412   0.429   5.348   4.254  0.6779 -0.9345 -0.2625
10333TIP3   OH252413   0.459   5.519   2.666  0.5286 -0.2337 -0.4629
10333TIP3    H152414   0.388   5.542   2.725  1.2523 -0.8456  0.6742
10333TIP3    H252415   0.436   5.561   2.583 -0.2733  1.0295  0.3734
10334TIP3   OH252416   4.802   2.526  15.990  0.3253 -0.2332  0.2524
10334TIP3    H152417   4.881   2.544  16.042 -0.0285 -0.2666  0.8050
10334TIP3    H252418   4.730   2.563  16.042 -0.0383 -0.3120 -0.1904
10335TIP3   OH252419   4.787   0.129  14.320  0.5015 -0.1671  0.2355
10335TIP3    H152420   4.777   0.186  14.243  1.1430 -0.8705 -0.3856
10335TIP3    H252421   4.736   0.051  14.300 -1.1438  0.5450  1.4905
10336TIP3   OH252422   1.931   6.352  10.876 -0.1038 -0.0193  0.2060
10336TIP3    H152423   1.993   6.290  10.915 -0.8080 -0.1627  1.1201
10336TIP3    H252424   1.981   6.396  10.807  1.3766  0.7247  1.7006
10337TIP3   OH252425   6.480   6.180   2.763  0.1226 -0.3062  0.4465
10337TIP3    H152426   6.439   6.111   2.815  0.9215  0.4982  2.2663
10337TIP3    H252427   6.408   6.220   2.715 -1.0137  0.0435  2.3351
10338TIP3   OH252428   4.481   1.798   0.246  0.1428  0.2907  0.5102
10338TIP3    H152429   4.488   1.844   0.330  1.9481 -1.1756  1.2320
10338TIP3    H252430   4.553   1.735   0.246 -0.4254 -0.4904 -1.7152
10339TIP3   OH252431   0.329   0.116  13.034 -0.2740  0.4457 -0.4874
10339TIP3    H152432   0.315   0.154  12.947  2.8803  0.7957 -0.9288
10339TIP3    H252433   0.279   0.034  13.032 -0.1795  0.3822 -2.6624
10340TIP3   OH252434   2.410   0.252  14.294  0.6168 -0.0221  0.1075
10340TIP3    H152435   2.466   0.290  14.227  0.3726  0.0702 -0.0479
10340TIP3    H252436   2.350   0.196  14.245  1.3281 -1.0460  0.3899
10341TIP3   OH252437   3.093   1.725  11.308  0.2948 -0.6145 -0.2975
10341TIP3    H152438   3.138   1.683  11.381  0.8388  0.4326 -0.0127
10341TIP3    H252439   3.140   1.807  11.294  0.1398 -0.7454 -1.7668
10342TIP3   OH252440   0.009   1.748   1.044 -0.6269  0.4119 -0.7919
10342TIP3    H152441  -0.009   1.812   1.113 -0.3192  0.4181 -0.7142
10342TIP3    H252442   0.057   1.798   0.978 -1.7430  0.6461 -1.4595
10343TIP3   OH252443   0.123   5.629   2.212 -0.7976 -0.1554 -0.1243
10343TIP3    H152444   0.100   5.664   2.298  0.4008  0.1928  0.0724
10343TIP3    H252445   0.076   5.684   2.150  0.6790  1.5714  0.2024
10344TIP3   OH252446   4.917   5.413  15.595  0.2582  0.0063  0.2397
10344TIP3    H152447   4.949   5.377  15.512  2.9106  2.9277 -0.1910
10344TIP3    H252448   4.939   5.346  15.660  1.6033 -0.7570 -0.9590
10345TIP3   OH252449   3.140   1.433   3.253  0.0093  0.2521 -0.1421
10345TIP3    H152450   3.104   1.453   3.166  0.5620  0.6541 -0.2803
10345TIP3    H252451   3.209   1.497   3.266  0.4944 -0.3421  0.2395
10346TIP3   OH252452   3.001   2.661   4.004 -0.1197  0.3945 -0.4263
10346TIP3    H152453   2.970   2.595   3.942  0.4832  1.1891 -1.6101
10346TIP3    H252454   3.096   2.661   3.994  0.2236 -0.9623  2.0866
10347TIP3   OH252455   3.772   1.026   3.199 -0.1070 -0.8043  0.6107
10347TIP3    H152456   3.720   0.958   3.157  0.0001  0.1629 -1.1623
10347TIP3    H252457   3.862   0.995   3.195 -0.2350 -1.2658  1.2483
10348TIP3   OH252458   5.878   5.596  14.865  0.6591 -0.5333  0.0020
10348TIP3    H152459   5.938   5.562  14.799  1.0669 -1.3177  0.7606
10348TIP3    H252460   5.919   5.575  14.948  1.2781  2.4532  0.5574
10349TIP3   OH252461   6.661   5.576   5.027 -0.3522 -0.0414 -0.3773
10349TIP3    H152462   6.735   5.631   5.001  0.8624 -1.1516  0.5451
10349TIP3    H252463   6.615   5.557   4.945 -0.2270  1.5111 -0.8259
10350TIP3   OH252464   1.719   6.246  12.610  0.0499  0.0112 -0.4440
10350TIP3    H152465   1.669   6.171  12.642  0.1871 -0.4799 -1.3750
10350TIP3    H252466   1.809   6.228  12.637  0.0076  0.0840 -0.2468
10351TIP3   OH252467   0.342   4.992  17.151 -0.3679 -0.4512 -0.0596
10351TIP3    H152468   0.332   5.058  17.219  0.7758  0.0991 -0.4126
10351TIP3    H252469   0.292   5.027  17.077 -0.0698 -0.1599 -0.1236
10352TIP3   OH252470   4.774   3.045   0.906  0.2469 -0.5895  0.4923
10352TIP3    H152471   4.855   3.018   0.948  1.0398 -2.6965 -2.1204
10352TIP3    H252472   4.756   2.977   0.842 -1.5994  1.6873 -1.6138
10353TIP3   OH252473   5.745   0.852   1.922 -0.2562  0.4983  0.6128
10353TIP3    H152474   5.673   0.821   1.866  0.3287 -0.0965  0.1751
10353TIP3    H252475   5.739   0.797   2.000  1.0747 -1.1335 -0.3628
10354TIP3   OH252476   1.768   2.525  11.423 -0.1288  0.1804 -0.8427
10354TIP3    H152477   1.808   2.560  11.344  1.5269  0.5364  0.1102
10354TIP3    H252478   1.694   2.473  11.391  0.2361  0.6609 -2.5803
10355TIP3   OH252479   3.043   1.744  12.120  0.1183 -0.0755 -0.2827
10355TIP3    H152480   2.952   1.753  12.092  0.1134 -1.2105 -0.6686
10355TIP3    H252481   3.055   1.815  12.183 -1.3983 -0.6362  0.7049
10356TIP3   OH252482   0.610   5.828   3.224 -0.0844  0.4918  0.0597
10356TIP3    H152483   0.533   5.785   3.187  0.4395 -0.9098  0.5385
10356TIP3    H252484   0.613   5.799   3.315  2.9085 -2.3847 -0.7871
10357TIP3   OH252485   2.531   0.262  11.205  0.3752 -0.3921 -0.2739
10357TIP3    H152486   2.448   0.261  11.156 -0.1462 -0.1173  0.5762
10357TIP3    H252487   2.562   0.352  11.197 -0.0817 -0.1564  0.4847
10358TIP3   OH252488   2.354   4.838   3.090 -0.3231 -0.1508  0.2054
10358TIP3    H152489   2.282   4.774   3.089 -0.5490  0.0040 -2.8196
10358TIP3    H252490   2.432   4.785   3.103 -0.7831 -0.5632  1.4594
10359TIP3   OH252491   1.827   6.536  13.598 -0.3326 -0.2524  0.6488
10359TIP3    H152492   1.900   6.531  13.660 -0.7251  0.0186  1.1430
10359TIP3    H252493   1.843   6.464  13.537  0.2788 -0.2756  0.8294
10360TIP3   OH252494   1.800   5.884  10.336 -0.0427  0.1382 -0.1842
10360TIP3    H152495   1.850   5.807  10.363 -0.1111  0.5081  1.1103
10360TIP3    H252496   1.719   5.879  10.387  0.1305  1.2616  0.2460
10361TIP3   OH252497   0.996   5.740   3.112  0.1546  0.0191 -0.4482
10361TIP3    H152498   0.925   5.775   3.058  0.5814  0.1656 -0.9140
10361TIP3    H252499   1.050   5.690   3.052  1.2738  1.1217 -0.4075
10362TIP3   OH252500   5.454   2.548  12.838  0.0358 -0.6161 -0.5370
10362TIP3    H152501   5.492   2.466  12.870 -1.4745 -1.1977 -0.1767
10362TIP3    H252502   5.368   2.552  12.878  0.2049  1.3340 -0.2888
10363TIP3   OH252503   0.331   0.677  11.482  0.0928  0.0072  0.3204
10363TIP3    H152504   0.289   0.686  11.396  1.4499  1.5348 -0.2306
10363TIP3    H252505   0.421   0.651  11.462  0.2892 -0.1004  1.3075
10364TIP3   OH252506   2.370   5.998  12.295  0.2132  0.3801  0.2322
10364TIP3    H152507   2.309   5.993  12.222  1.4795 -1.3036 -0.7729
10364TIP3    H252508   2.360   6.087  12.328  0.8087  1.7975 -3.0695
10365TIP3   OH252509   3.133   2.931   4.767 -0.6961 -0.0374  0.1034
10365TIP3    H152510   3.180   2.854   4.736 -0.9365  0.1466 -0.7558
10365TIP3    H252511   3.147   2.997   4.699  1.2237  1.3927  1.7689
10366TIP3   OH252512   2.786   3.790   2.014 -0.0135 -0.0234 -0.0416
10366TIP3    H152513   2.754   3.796   2.104 -0.9452 -0.0836 -0.3536
10366TIP3    H252514   2.753   3.706   1.983  0.9278 -0.3350 -0.2091
10367TIP3   OH252515   3.193   2.920   2.249 -0.3675 -0.2921 -0.6511
10367TIP3    H152516   3.135   2.860   2.202 -0.5563 -0.7924  0.1987
10367TIP3    H252517   3.222   2.981   2.182  1.9983 -2.8944 -2.2189
10368TIP3   OH252518   6.287   0.076   0.269 -0.2804 -0.4447  0.4186
10368TIP3    H152519   6.223   0.140   0.238  1.4087  0.8313 -0.6837
10368TIP3    H252520   6.240  -0.006   0.272 -1.4474 -0.0033 -2.5394
10369TIP3   OH252521   2.502   6.298  15.982 -0.6456 -0.3383  0.1029
10369TIP3    H152522   2.588   6.300  16.024  0.8741 -0.5544 -2.7885
10369TIP3    H252523   2.495   6.382  15.936 -2.2506 -0.1092  0.6717
10370TIP3   OH252524   3.230   4.185  11.817  0.1723  0.6835  0.0182
10370TIP3    H152525   3.307   4.206  11.764  1.5525  0.6446  1.9300
10370TIP3    H252526   3.229   4.089  11.821 -1.4969  0.5364 -2.0657
10371TIP3   OH252527   4.330   6.330  13.386  0.5872  0.1585 -0.2308
10371TIP3    H152528   4.253   6.343  13.331 -0.0073 -1.4611  0.1486
10371TIP3    H252529   4.385   6.269  13.336  0.4765 -0.5903  0.5285
10372TIP3   OH252530   0.470   0.722   0.139  0.2848  0.4657 -0.1771
10372TIP3    H152531   0.485   0.659   0.210 -0.9836  1.7450  1.3338
10372TIP3    H252532   0.497   0.677   0.060  0.6197 -1.4900  0.9867
10373TIP3   OH252533   3.748   6.161   5.604 -0.5071  0.3085 -0.1426
10373TIP3    H152534   3.685   6.218   5.648  1.2755  1.3481  1.2106
10373TIP3    H252535   3.804   6.128   5.674  0.4506 -0.5731 -1.2778
10374TIP3   OH252536   0.733   3.949   3.158 -0.1270  0.3074 -0.1486
10374TIP3    H152537   0.654   3.932   3.107  0.3960 -1.9450 -0.3142
10374TIP3    H252538   0.769   3.862   3.176  0.7926  1.1268  2.3614
10375TIP3   OH252539   4.448   0.412  15.611  0.0493  0.3038 -0.2518
10375TIP3    H152540   4.380   0.473  15.584  0.2704  0.2417 -0.9928
10375TIP3    H252541   4.504   0.462  15.670 -0.1133  0.6396 -0.3788
10376TIP3   OH252542   3.487   1.476   2.406 -0.5289  0.5153  0.2764
10376TIP3    H152543   3.532   1.536   2.347 -0.0119 -0.6859 -0.5953
10376TIP3    H252544   3.458   1.531   2.478  0.0217  1.7861 -0.4308
10377TIP3   OH252545   4.182   6.289  16.221 -0.2226  0.5193  0.2748
10377TIP3    H152546   4.237   6.299  16.299 -0.6422  0.9917  0.5168
10377TIP3    H252547   4.100   6.332  16.244 -0.7372 -0.2657 -0.0480
10378TIP3   OH252548   3.862   6.507  14.184  0.5544 -0.2097 -0.2405
10378TIP3    H152549   3.791   6.481  14.242  0.0737  0.5506 -0.4735
10378TIP3    H252550   3.941   6.472  14.226  0.0630 -0.9743  0.0690
10379TIP3   OH252551   2.454   1.941  15.435  0.3296  0.5515 -0.7510
10379TIP3    H152552   2.490   2.028  15.447  1.9388 -0.0268 -1.1164
10379TIP3    H252553   2.451   1.903  15.523 -0.0068  0.8336 -0.6403
10380TIP3   OH252554   3.378   6.184   1.008  0.4157  0.3344  0.4038
10380TIP3    H152555   3.352   6.247   1.075  1.8988 -0.0762  1.4289
10380TIP3    H252556   3.466   6.157   1.033 -0.0213 -1.8918 -0.1797
10381TIP3   OH252557   0.679   0.756   3.772  0.1171 -0.2209 -0.3682
10381TIP3    H152558   0.598   0.780   3.815 -0.0155 -1.3801  0.0841
10381TIP3    H252559   0.691   0.663   3.793  0.1062 -0.8388 -2.7243
10382TIP3   OH252560   2.522   1.144   5.826 -0.0715 -0.4101 -0.0406
10382TIP3    H152561   2.529   1.055   5.860 -1.0858 -0.8320 -0.8897
10382TIP3    H252562   2.435   1.174   5.852 -0.2985 -0.2056 -0.9902
10383TIP3   OH252563   0.781   2.260   4.972 -0.1401 -0.2784 -0.2855
10383TIP3    H152564   0.810   2.346   4.943 -0.4790 -0.8917 -2.6163
10383TIP3    H252565   0.686   2.269   4.981 -0.2351 -0.5123 -0.9940
10384TIP3   OH252566   5.525   0.357  14.541  0.0698 -0.3407  0.1037
10384TIP3    H152567   5.460   0.286  14.545 -2.3938  1.7369 -0.3682
10384TIP3    H252568   5.534   0.386  14.632  0.9250 -1.0747  0.2688
10385TIP3   OH252569   0.690   0.475   2.384 -0.3180  0.6392  0.0704
10385TIP3    H152570   0.601   0.444   2.370 -0.5297  0.9735  0.6447
10385TIP3    H252571   0.703   0.469   2.479  0.5760 -0.2380 -0.0863
10386TIP3   OH252572   4.205   2.764  11.107 -0.3793 -0.0849  0.6037
10386TIP3    H152573   4.138   2.826  11.079 -0.4063 -0.1665  0.4834
10386TIP3    H252574   4.265   2.758  11.032 -0.6109 -0.5270  0.4453
10387TIP3   OH252575   2.489   5.244  13.544  0.0407  0.3300 -0.2232
10387TIP3    H152576   2.511   5.169  13.600  1.4617  0.3973 -0.6618
10387TIP3    H252577   2.463   5.206  13.461 -0.0994  0.3004 -0.1665
10388TIP3   OH252578   1.593   5.502  10.302 -0.1690  0.0946 -0.5828
10388TIP3    H152579   1.576   5.490  10.208 -0.1187  0.6967 -0.6737
10388TIP3    H252580   1.686   5.482  10.312 -0.6021 -2.0385 -0.2872
10389TIP3   OH252581   0.765   0.962  11.891  0.6266  0.1699 -0.2777
10389TIP3    H152582   0.789   0.883  11.940 -0.3887  0.8044  1.3303
10389TIP3    H252583   0.826   0.965  11.818  2.7230 -0.4505  1.3519
10390TIP3   OH252584   5.721   4.732  15.991  0.1060  0.6912  0.4329
10390TIP3    H152585   5.702   4.793  16.062 -0.9280  0.6361  0.2196
10390TIP3    H252586   5.639   4.683  15.979  0.7051 -0.2805  0.1545
10391TIP3   OH252587   1.717   3.359  13.228 -0.1147  0.2293 -0.3025
10391TIP3    H152588   1.745   3.303  13.300 -0.5025  2.1903  1.4457
10391TIP3    H252589   1.717   3.301  13.152 -0.0531 -2.0200  1.3125
10392TIP3   OH252590   3.525   3.339  12.078 -0.4132 -0.2609 -0.3506
10392TIP3    H152591   3.578   3.413  12.106  0.0078 -0.5838 -0.2981
10392TIP3    H252592   3.577   3.296  12.011 -0.0389 -1.3048  0.5691
10393TIP3   OH252593   5.161   4.762   5.919 -0.3095  0.9673  0.0453
10393TIP3    H152594   5.076   4.761   5.876 -1.6353  2.0156  2.4505
10393TIP3    H252595   5.201   4.844   5.890  0.1525  0.2690 -1.4350
10394TIP3   OH252596   2.242   6.248  15.308  0.6908 -0.3555  0.7113
10394TIP3    H152597   2.171   6.187  15.326 -0.2004  0.1153 -0.9371
10394TIP3    H252598   2.322   6.197  15.323 -0.0176 -1.8291 -0.2362
10395TIP3   OH252599   2.680   6.352  11.961  0.1280  0.7966 -0.3420
10395TIP3    H152600   2.774   6.353  11.941  0.2866 -0.9531  0.1782
10395TIP3    H252601   2.675   6.334  12.055 -0.6809 -2.1153 -0.8205
10396TIP3   OH252602   0.648   1.965   0.401 -0.0558  0.1165  0.1971
10396TIP3    H152603   0.679   2.009   0.481  1.2145  1.4273 -0.9613
10396TIP3    H252604   0.560   2.001   0.387  0.3538  1.1080  0.1223
10397TIP3   OH252605   0.991   3.794   2.248  0.3600 -0.7833 -0.5350
10397TIP3    H152606   1.020   3.827   2.333  0.4773 -2.6527  0.1937
10397TIP3    H252607   0.954   3.708   2.267 -2.3964 -0.0281 -1.9575
10398TIP3   OH252608   6.427   0.161   5.916 -0.5616 -0.1395  0.0019
10398TIP3    H152609   6.391   0.246   5.943  0.6619  0.5253 -0.4024
10398TIP3    H252610   6.443   0.171   5.822 -2.1578 -1.4751 -0.4576
10399TIP3   OH252611   6.225   4.176  15.355  0.0352 -0.3296  0.7976
10399TIP3    H152612   6.131   4.169  15.342  0.0745 -0.0962  0.3658
10399TIP3    H252613   6.242   4.126  15.435 -0.2326 -1.7095  0.0222
10400TIP3   OH252614   3.972   2.541   5.689 -0.4941 -0.4955  0.4509
10400TIP3    H152615   4.050   2.554   5.743  1.3419  0.8215 -2.2826
10400TIP3    H252616   3.921   2.621   5.701 -0.6200 -0.6657  1.0409
10401TIP3   OH252617   0.952   4.608  13.164  0.5675 -0.6518  0.5746
10401TIP3    H152618   1.035   4.560  13.165  0.7699 -0.5799 -2.6020
10401TIP3    H252619   0.977   4.700  13.164  0.3713 -0.5853  1.4479
10402TIP3   OH252620   3.642   5.451   2.602  0.2513 -0.2013  0.0951
10402TIP3    H152621   3.683   5.394   2.537 -1.1383  0.5213 -1.4968
10402TIP3    H252622   3.694   5.531   2.600 -0.4708  0.2572 -1.0224
10403TIP3   OH252623   2.951   0.345  14.855  0.0859  0.3536 -0.0332
10403TIP3    H152624   2.885   0.412  14.834 -2.1537 -1.6599  0.1568
10403TIP3    H252625   2.923   0.309  14.939  2.5517  0.6549  1.0035
10404TIP3   OH252626   3.471   4.322  15.392 -0.3201  1.0393 -0.3272
10404TIP3    H152627   3.481   4.319  15.487  1.8253 -1.2820 -0.5327
10404TIP3    H252628   3.377   4.325  15.378 -0.7069  0.8725  1.8531
10405TIP3   OH252629   2.281   5.379  13.922 -0.6651 -0.0106 -0.1235
10405TIP3    H152630   2.294   5.291  13.888 -2.2416 -0.3088  0.0067
10405TIP3    H252631   2.357   5.428  13.889  0.9698 -1.6876  0.9121
10406TIP3   OH252632   3.860   3.772   5.845 -0.6704 -0.3943  0.1860
10406TIP3    H152633   3.783   3.717   5.832 -0.2740 -0.4372 -2.4524
10406TIP3    H252634   3.840   3.853   5.800 -0.6347  1.1537  2.7590
10407TIP3   OH252635   3.202   0.193   0.516  0.0540 -0.0866  0.1819
10407TIP3    H152636   3.111   0.205   0.489  0.5283  1.1473 -0.9670
10407TIP3    H252637   3.239   0.136   0.449 -0.2457 -1.9548  1.5308
10408TIP3   OH252638   6.762   2.265  14.037  0.0326  0.3125  0.4432
10408TIP3    H152639   6.763   2.169  14.033 -1.5659  0.2947 -0.7624
10408TIP3    H252640   6.703   2.286  14.110  0.9795  0.3995  1.1960
10409TIP3   OH252641   0.820   0.659  11.822 -0.8411  0.1310  0.4289
10409TIP3    H152642   0.856   0.660  11.734 -0.5154 -0.6949  0.5451
10409TIP3    H252643   0.734   0.700  11.814  0.3086  2.6586  0.2474
10410TIP3   OH252644   4.946   1.046   0.318 -0.1787  0.1932 -0.0065
10410TIP3    H152645   4.986   1.066   0.234 -0.9473  0.9865 -0.1976
10410TIP3    H252646   4.855   1.073   0.309  0.2763  2.7737  1.9036
10411TIP3   OH252647   1.311   5.420   1.710 -0.4267 -0.8025  0.4325
10411TIP3    H152648   1.312   5.412   1.805 -1.1158  0.1676  0.5344
10411TIP3    H252649   1.387   5.369   1.681 -0.8851 -2.0984  1.4033
10412TIP3   OH252650   0.541   1.662  12.440 -0.5099  0.0674 -0.1441
10412TIP3    H152651   0.457   1.632  12.407  0.2211 -0.1467 -1.9491
10412TIP3    H252652   0.545   1.629  12.529 -0.7134 -3.3650 -1.2514
10413TIP3   OH252653   1.776   4.753   4.620 -0.4635  0.3279  0.2200
10413TIP3    H152654   1.762   4.728   4.711 -1.8195  1.8120  0.4724
10413TIP3    H252655   1.787   4.848   4.623  1.1313  0.2306 -1.0177
10414TIP3   OH252656   2.213   1.307  16.004  0.4675 -0.2415  0.1585
10414TIP3    H152657   2.140   1.359  16.039  1.1992  2.3913 -1.8367
10414TIP3    H252658   2.291   1.357  16.027  1.3028 -0.8906 -1.1642
10415TIP3   OH252659   5.436   2.367   4.626 -0.1912  0.1049  0.1953
10415TIP3    H152660   5.502   2.350   4.694  0.6294  0.3173 -0.5315
10415TIP3    H252661   5.437   2.462   4.614 -1.1579  0.1890  0.6839
10416TIP3   OH252662   3.084   0.253   5.178 -0.1430  0.1055 -0.0382
10416TIP3    H152663   3.058   0.295   5.096  0.4556 -2.0170 -1.3689
10416TIP3    H252664   3.141   0.181   5.152  0.0122 -0.6782  2.2465
10417TIP3   OH252665   4.470   2.647  13.530 -0.0832  0.0257 -0.2023
10417TIP3    H152666   4.537   2.715  13.528  0.5591 -0.6088 -0.9911
10417TIP3    H252667   4.408   2.676  13.596  0.5888  0.9906  0.0181
10418TIP3   OH252668   0.404   2.801   4.419  0.0673 -0.0275  0.2609
10418TIP3    H152669   0.461   2.821   4.345  0.8072  0.2060  0.8871
10418TIP3    H252670   0.397   2.883   4.468 -1.0629  0.0367  0.0387
10419TIP3   OH252671   5.626   4.430  16.593  0.5562 -0.9000 -0.3613
10419TIP3    H152672   5.673   4.507  16.625  0.8265 -1.3398  0.3396
10419TIP3    H252673   5.573   4.462  16.521 -0.6647  0.2977  1.0202
10420TIP3   OH252674   1.346   5.439   1.993 -0.2035  0.4856 -0.8922
10420TIP3    H152675   1.294   5.501   2.044  0.6700  0.8669 -0.4530
10420TIP3    H252676   1.323   5.353   2.029  1.2789  0.8178  1.0106
10421TIP3   OH252677   1.819   5.318  14.712 -0.9409 -0.0232  0.2892
10421TIP3    H152678   1.841   5.226  14.699  1.8054  0.9155 -3.1420
10421TIP3    H252679   1.898   5.357  14.747 -1.2814  1.3999 -0.4535
10422TIP3   OH252680   6.086   6.546  16.874  0.1906 -0.4436 -0.0010
10422TIP3    H152681   6.048   6.463  16.902  1.0581 -0.3421  1.5809
10422TIP3    H252682   6.020   6.584  16.816 -2.1999 -0.2563  2.6337
10423TIP3   OH252683   3.447   4.155   4.613 -0.0687 -0.7193  0.1317
10423TIP3    H152684   3.367   4.102   4.613 -0.4384 -0.1968 -0.5093
10423TIP3    H252685   3.437   4.211   4.536 -0.2215  1.0484  1.3811
10424TIP3   OH252686   1.449   4.338  11.966  0.3435 -0.1069  0.3444
10424TIP3    H152687   1.460   4.420  12.014 -0.5000 -0.5591  1.3578
10424TIP3    H252688   1.535   4.297  11.969  1.6683  2.0530 -2.8378
10425TIP3   OH252689   4.820   4.609   3.248  0.1103 -0.0859  0.0965
10425TIP3    H152690   4.850   4.611   3.339 -1.1296  1.4108  0.5125
10425TIP3    H252691   4.894   4.574   3.199  0.7501 -1.0573  1.6897
10426TIP3   OH252692   4.516   1.739   1.444 -0.3044 -0.3028 -0.4574
10426TIP3    H152693   4.569   1.660   1.436  1.3284  0.6467  0.4741
10426TIP3    H252694   4.430   1.706   1.470  1.1659 -1.6846  3.3497
10427TIP3   OH252695   1.952   5.405  10.757 -0.0771  0.2001 -0.5288
10427TIP3    H152696   1.903   5.392  10.675  1.1885 -0.6156 -1.1890
10427TIP3    H252697   2.012   5.477  10.737  0.1187  0.1154 -0.2444
10428TIP3   OH252698   5.823   3.560  12.213  0.5522  0.0827 -0.0415
10428TIP3    H152699   5.830   3.526  12.124 -0.4609 -1.1339  0.3188
10428TIP3    H252700   5.730   3.580  12.224  0.7267  0.5624  0.6336
10429TIP3   OH252701   3.768   3.459   2.794 -0.3769  0.2069 -0.0346
10429TIP3    H152702   3.682   3.420   2.781  0.1464 -0.8046 -0.6515
10429TIP3    H252703   3.804   3.414   2.870 -0.8775  1.5373  1.0211
10430TIP3   OH252704   4.998   4.997   0.841  0.0177 -0.0225 -0.4167
10430TIP3    H152705   4.939   4.977   0.914 -1.2544 -0.1430 -1.4474
10430TIP3    H252706   5.019   5.090   0.852 -1.2930  0.3200 -0.6639
10431TIP3   OH252707   6.252   1.936   4.430  0.0063 -0.1481  0.1306
10431TIP3    H152708   6.162   1.962   4.411  0.7926  1.3455 -1.9925
10431TIP3    H252709   6.266   1.857   4.378 -0.3444 -0.9918  1.2741
10432TIP3   OH252710   1.506   3.638  15.634  0.2551 -0.1668 -0.2879
10432TIP3    H152711   1.410   3.643  15.637  0.2091 -0.8815 -0.5412
10432TIP3    H252712   1.535   3.719  15.677 -0.4578  0.8079 -1.5766
10433TIP3   OH252713   5.850   2.349   0.129  0.0651  0.0644  0.0228
10433TIP3    H152714   5.774   2.295   0.152  0.3117 -0.3261 -0.0750
10433TIP3    H252715   5.819   2.439   0.140 -1.0315 -0.0178 -1.8989
10434TIP3   OH252716   0.400   2.413   5.469 -0.2704  0.2078 -0.6952
10434TIP3    H152717   0.397   2.319   5.486 -1.5921  0.2195 -0.7836
10434TIP3    H252718   0.408   2.421   5.374 -1.5295  0.1717 -0.8212
10435TIP3   OH252719   3.623   0.427   0.071 -0.2598  0.7891  0.5439
10435TIP3    H152720   3.585   0.402   0.155 -1.4205 -0.9779 -0.4451
10435TIP3    H252721   3.716   0.440   0.090 -0.2807 -0.7166  1.8968
10436TIP3   OH252722   1.149   0.425   4.411  0.1201 -0.6623  0.1786
10436TIP3    H152723   1.175   0.368   4.338  0.5582  0.2638 -0.4137
10436TIP3    H252724   1.067   0.464   4.382 -0.0973 -0.8654  0.5161
10437TIP3   OH252725   5.108   6.593  14.866  0.5635 -0.1156 -0.5556
10437TIP3    H152726   5.115   6.526  14.798 -0.8536  0.5250 -1.3834
10437TIP3    H252727   5.194   6.635  14.868  0.8725 -0.6935 -1.3740
10438TIP3   OH252728   6.520   1.662   3.601  0.8591  0.5697  0.0347
10438TIP3    H152729   6.438   1.710   3.594  0.7875  0.5343  0.5536
10438TIP3    H252730   6.508   1.606   3.678  0.0085 -2.0869 -1.8689
10439TIP3   OH252731   5.982   6.329   2.033  0.1429 -0.2590  0.6802
10439TIP3    H152732   6.061   6.330   2.086  0.9400  1.3435 -0.4408
10439TIP3    H252733   5.923   6.392   2.076  1.4691  2.4491 -1.1285
10440TIP3   OH252734   1.331   5.395  16.229  0.3193 -0.0901 -0.2032
10440TIP3    H152735   1.308   5.315  16.181  1.6742  0.3965 -1.7417
10440TIP3    H252736   1.364   5.454  16.162  2.0262  0.7338  1.3022
10441TIP3   OH252737   6.119   3.044   4.925 -0.5382 -0.1052  0.3812
10441TIP3    H152738   6.189   3.084   4.978 -0.7010  0.5790  0.0919
10441TIP3    H252739   6.164   2.980   4.870 -0.2025 -0.0052  0.5376
10442TIP3   OH252740   3.773   0.923   0.648 -0.3859  0.4269 -0.2673
10442TIP3    H152741   3.838   0.894   0.584 -1.6958 -0.8384 -1.0958
10442TIP3    H252742   3.817   0.915   0.733  0.0135 -2.1228 -0.6370
10443TIP3   OH252743   2.354   1.699  17.078  0.0438  0.5098  0.4432
10443TIP3    H152744   2.334   1.605  17.075  1.8271  0.1020 -0.2885
10443TIP3    H252745   2.349   1.727  16.987  1.0408  0.7361  0.4412
10444TIP3   OH252746   4.268   6.323   3.967  0.0368  0.2653  0.5231
10444TIP3    H152747   4.300   6.233   3.973 -0.7340 -0.0542 -0.0549
10444TIP3    H252748   4.230   6.341   4.053 -1.8481 -0.7685 -0.0463
10445TIP3   OH252749   0.570   6.489   0.624  0.2736 -0.0230  0.3193
10445TIP3    H152750   0.594   6.488   0.531 -1.4066 -2.6020 -0.1844
10445TIP3    H252751   0.632   6.430   0.666 -0.1331 -0.3418  0.4805
10446TIP3   OH252752   5.549   1.395   1.412 -0.5210  0.3242 -0.8402
10446TIP3    H152753   5.460   1.426   1.394  0.0541  2.1447 -0.6745
10446TIP3    H252754   5.602   1.432   1.343  0.2337 -0.2284 -0.5693
10447TIP3   OH252755   3.010   3.649   3.953  0.2948  0.4401 -0.0909
10447TIP3    H152756   2.917   3.642   3.976  0.2868 -2.1813 -0.6830
10447TIP3    H252757   3.041   3.559   3.951  2.6127  1.1987 -0.9632
10448TIP3   OH252758   1.699   5.797  13.875  0.7462  0.2081  0.3175
10448TIP3    H152759   1.777   5.740  13.872 -0.0966 -1.0124  0.9001
10448TIP3    H252760   1.626   5.737  13.883 -0.2714  1.3532 -0.0949
10449TIP3   OH252761   5.274   5.435   1.245 -0.1212  0.0103  0.9069
10449TIP3    H152762   5.282   5.393   1.330 -1.6867 -1.6810  0.2809
10449TIP3    H252763   5.327   5.380   1.186  1.8895  1.7941  0.9094
10450TIP3   OH252764   4.333   5.211   2.309  0.0289 -0.3247 -0.0630
10450TIP3    H152765   4.410   5.239   2.260  1.2282 -2.1339  0.7115
10450TIP3    H252766   4.345   5.249   2.396 -1.2091  1.3794 -0.5661
10451TIP3   OH252767   0.419   6.499  12.964 -0.0714  0.1102  0.3306
10451TIP3    H152768   0.430   6.502  13.059 -3.4119  0.2895  0.8315
10451TIP3    H252769   0.486   6.437  12.935  1.3332  0.3535  2.6978
10452TIP3   OH252770   1.432   3.520  11.457  0.3067 -0.7145  0.1743
10452TIP3    H152771   1.405   3.574  11.532 -0.3358 -2.0459  0.9366
10452TIP3    H252772   1.518   3.555  11.433 -0.7383  1.6964 -0.4117
10453TIP3   OH252773   5.134   2.614  13.405 -0.0496  0.2310  0.4968
10453TIP3    H152774   5.069   2.577  13.346 -0.2397  0.6889  0.4196
10453TIP3    H252775   5.090   2.687  13.448 -0.3959 -0.9310  2.2720
10454TIP3   OH252776   6.503   1.367   5.073  0.5974  0.0209  0.1690
10454TIP3    H152777   6.565   1.295   5.090  1.1400  0.6416  0.8951
10454TIP3    H252778   6.509   1.380   4.978  2.7402  1.0429  0.3714
10455TIP3   OH252779   5.892   0.021   5.678 -0.0509  0.0389  0.1472
10455TIP3    H152780   5.888  -0.009   5.769 -0.1987 -0.1229  0.0885
10455TIP3    H252781   5.828   0.092   5.673 -0.2010 -0.0962  0.1183
10456TIP3   OH252782   5.536   2.288  16.187 -0.5733 -0.2555 -0.6213
10456TIP3    H152783   5.496   2.202  16.174 -0.1968 -0.3570 -1.1484
10456TIP3    H252784   5.507   2.339  16.112 -1.1734  0.2256 -0.0697
10457TIP3   OH252785   5.511   5.999  16.638  0.0205  0.0995  0.1758
10457TIP3    H152786   5.512   6.094  16.628  0.8616 -0.0563 -1.6382
10457TIP3    H252787   5.419   5.975  16.634 -0.2440  0.8531  1.2049
10458TIP3   OH252788   6.403   4.523  12.090  0.5888 -0.1887  0.1001
10458TIP3    H152789   6.490   4.539  12.126 -0.0197  1.1333  1.0637
10458TIP3    H252790   6.343   4.537  12.164 -0.6835  2.3525 -1.2640
10459TIP3   OH252791   5.377   4.375  16.194 -0.4293 -0.5195 -0.0275
10459TIP3    H152792   5.361   4.460  16.152 -3.4030 -0.7205  0.5190
10459TIP3    H252793   5.466   4.352  16.167 -0.3013  1.7681 -1.9057
10460TIP3   OH252794   4.170   1.805   1.480 -0.4839  0.3248 -0.1871
10460TIP3    H152795   4.204   1.755   1.405  3.0190  0.0948  1.3848
10460TIP3    H252796   4.158   1.740   1.549  0.5709  1.1075  0.7626
10461TIP3   OH252797   1.241   4.057  13.287 -0.7033 -0.3850  0.2964
10461TIP3    H152798   1.200   4.066  13.200 -1.4161 -0.5098  0.6114
10461TIP3    H252799   1.330   4.029  13.269 -0.5225  0.5964 -0.4434
10462TIP3   OH252800   4.410   0.177  16.427 -0.3719 -0.0425 -0.1860
10462TIP3    H152801   4.434   0.128  16.349  0.4293  1.4091 -0.9074
10462TIP3    H252802   4.474   0.150  16.493  1.4672  1.5418 -1.2136
10463TIP3   OH252803   4.174   6.060  17.182  0.1255  0.0497  0.5573
10463TIP3    H152804   4.185   5.980  17.234 -0.8445  0.9501  2.2568
10463TIP3    H252805   4.174   6.030  17.091 -1.3303 -2.0443  1.1608
10464TIP3   OH252806   3.535   2.510  14.712 -0.6032 -0.1412  0.0115
10464TIP3    H152807   3.454   2.553  14.737  0.0949  0.7883  0.7333
10464TIP3    H252808   3.547   2.441  14.778  0.7098  1.6586  1.7820
10465TIP3   OH252809   6.755   0.031  16.248 -0.0658 -0.0169 -0.4945
10465TIP3    H152810   6.756  -0.065  16.244 -0.2874  0.0371 -2.9757
10465TIP3    H252811   6.813   0.058  16.178  0.1207  1.7069  0.2824
10466TIP3   OH252812   1.390   3.609  16.876  0.2707  0.4345 -0.3461
10466TIP3    H152813   1.345   3.639  16.796  0.3338  1.5991  0.0373
10466TIP3    H252814   1.448   3.681  16.898  0.6434 -0.1101  0.4656
10467TIP3   OH252815   5.366   6.636  11.406  0.0502  0.3060  0.6245
10467TIP3    H152816   5.296   6.579  11.373 -0.0559 -0.6128  2.3069
10467TIP3    H252817   5.393   6.688  11.330 -1.3313 -0.4775 -0.4484
10468TIP3   OH252818   0.694   5.758   5.439  0.0427  0.2165 -0.3295
10468TIP3    H152819   0.684   5.843   5.481 -0.7893  0.7229 -1.5177
10468TIP3    H252820   0.643   5.764   5.359  0.4833 -1.1942 -0.7483
10469TIP3   OH252821   5.248   2.748   4.063 -0.0411  0.3771 -0.1868
10469TIP3    H152822   5.265   2.798   3.984  0.6637  2.5768  1.2676
10469TIP3    H252823   5.163   2.780   4.094  0.6622  1.0968  1.0498
10470TIP3   OH252824   5.281   5.082   4.304  0.2885  0.5793  0.1137
10470TIP3    H152825   5.338   5.093   4.380  1.3578  1.3873 -0.7434
10470TIP3    H252826   5.291   5.165   4.256 -1.4017  0.6160 -0.2308
10471TIP3   OH252827   1.977   2.697  16.964  0.3178  0.3382  0.7673
10471TIP3    H152828   1.992   2.682  17.057 -0.5513  0.9495  1.0144
10471TIP3    H252829   1.994   2.612  16.923  3.3746  0.6966  1.1087
10472TIP3   OH252830   0.420   3.145   5.753  0.7218  0.3204 -0.1706
10472TIP3    H152831   0.488   3.130   5.687  1.2727 -0.8256  0.6075
10472TIP3    H252832   0.468   3.146   5.836 -0.2993 -1.7150  0.5222
10473TIP3   OH252833   4.090   1.028   4.678  0.0759  0.4812 -0.2649
10473TIP3    H152834   4.142   0.950   4.698 -0.3473 -0.0845 -1.3158
10473TIP3    H252835   4.156   1.098   4.670  0.3842  0.4603  1.5760
10474TIP3   OH252836   5.819   1.987  12.385 -0.7184 -0.2525 -0.1216
10474TIP3    H152837   5.910   2.016  12.383  0.0178 -2.1697  1.8056
10474TIP3    H252838   5.784   2.013  12.300  1.9021 -0.2601 -1.3000
10475TIP3   OH252839   0.382   3.561  14.240  0.1845 -0.1838  0.7826
10475TIP3    H152840   0.324   3.601  14.304 -0.8880  0.8596 -0.7555
10475TIP3    H252841   0.458   3.619  14.236 -0.0746  0.1496  0.6161
10476TIP3   OH252842   4.042   1.377   4.172 -0.0691  0.4394  0.3187
10476TIP3    H152843   4.057   1.463   4.211  0.5414  0.1424  0.7757
10476TIP3    H252844   3.947   1.366   4.172 -0.1183  0.8139  0.9303
10477TIP3   OH252845   0.461   6.084   1.919 -0.5819 -0.0360 -0.3442
10477TIP3    H152846   0.460   6.057   2.011  0.5075  0.3187 -0.2116
10477TIP3    H252847   0.438   6.177   1.921 -0.9783 -0.1293 -0.4765
10478TIP3   OH252848   0.706   6.649   4.391  0.1289 -0.2241 -0.2197
10478TIP3    H152849   0.728   6.710   4.462 -0.2977 -0.3817  0.0566
10478TIP3    H252850   0.674   6.706   4.320 -0.2640 -0.1231  0.0354
10479TIP3   OH252851   6.781   2.173   3.526  0.0702 -0.5839 -0.4329
10479TIP3    H152852   6.689   2.189   3.506  0.0661  0.4819  0.3816
10479TIP3    H252853   6.786   2.079   3.543 -1.0669 -0.5051  0.4614
10480TIP3   OH252854   2.416   1.093  14.645  0.0951  0.1629  0.8131
10480TIP3    H152855   2.354   1.164  14.627  0.4311 -0.4077 -3.5961
10480TIP3    H252856   2.370   1.037  14.707 -2.8095  1.0493 -0.3602
10481TIP3   OH252857   2.673   2.891  16.156  0.2362  0.2987  0.5731
10481TIP3    H152858   2.719   2.968  16.190 -1.4787  0.7680  1.9727
10481TIP3    H252859   2.600   2.927  16.106  1.3899 -0.4323 -1.7893
10482TIP3   OH252860   6.277   6.186  14.840  0.2722  0.1901  0.0427
10482TIP3    H152861   6.315   6.212  14.924 -0.7720  0.2176  0.5176
10482TIP3    H252862   6.183   6.182  14.856  0.1771 -1.3141 -0.7168
10483TIP3   OH252863   2.808   0.414   1.409 -0.2888  0.3169 -0.2870
10483TIP3    H152864   2.782   0.428   1.500 -0.2983 -2.2418  0.1781
10483TIP3    H252865   2.806   0.319   1.398  1.0438  0.4864 -2.5817
10484TIP3   OH252866   0.353   4.066  16.458  0.1760  0.2234  0.3240
10484TIP3    H152867   0.431   4.119  16.479 -1.5430  2.8190  0.6406
10484TIP3    H252868   0.389   3.981  16.431  3.0562  0.8830  1.5885
10485TIP3   OH252869   3.910   2.601   0.887 -0.0971  0.2434 -0.4371
10485TIP3    H152870   3.970   2.581   0.959 -0.0640  1.1323 -0.2134
10485TIP3    H252871   3.849   2.665   0.923 -1.0803 -0.4912 -0.7197
10486TIP3   OH252872   0.404   0.898   0.763 -0.1021  0.0971 -0.4180
10486TIP3    H152873   0.495   0.885   0.737 -0.1782 -0.4446 -0.4215
10486TIP3    H252874   0.364   0.812   0.754 -0.7525  0.4445 -0.9590
10487TIP3   OH252875   6.190   0.366  11.650 -0.5264  0.7620 -0.2599
10487TIP3    H152876   6.151   0.291  11.694  0.0252 -0.0378 -1.1047
10487TIP3    H252877   6.284   0.352  11.656 -0.3834 -0.7849 -3.9017
10488TIP3   OH252878   5.301   1.831  13.958  0.2761  0.1238  0.1449
10488TIP3    H152879   5.210   1.859  13.950  0.5085  0.9910  0.4703
10488TIP3    H252880   5.312   1.810  14.051  0.1395 -0.9617 -0.0716
10489TIP3   OH252881   5.656   0.010  15.006 -0.2764  0.1116 -0.3141
10489TIP3    H152882   5.741   0.031  15.044 -0.1949 -0.4931 -0.1477
10489TIP3    H252883   5.617   0.095  14.985  0.1662  0.4080  0.0488
10490TIP3   OH252884   1.805   3.239   2.716 -0.0045  0.1639 -0.1198
10490TIP3    H152885   1.728   3.182   2.717  1.3451 -1.8902 -2.1855
10490TIP3    H252886   1.854   3.214   2.794 -0.5451  0.1991  0.2395
10491TIP3   OH252887   2.598   6.597   3.810  0.1755  0.0127  0.2624
10491TIP3    H152888   2.505   6.591   3.832 -0.1386  0.3330 -0.9177
10491TIP3    H252889   2.630   6.675   3.855 -0.4690  0.6945 -0.4389
10492TIP3   OH252890   5.730   5.198   3.274  0.0347 -0.0895 -0.1595
10492TIP3    H152891   5.763   5.270   3.219  0.3147  0.9497  1.3097
10492TIP3    H252892   5.636   5.195   3.253  0.0168  0.7033 -0.2557
10493TIP3   OH252893   4.801   4.527   2.095  0.0511 -0.1296  0.3183
10493TIP3    H152894   4.888   4.543   2.059  0.0097 -0.8712 -0.1257
10493TIP3    H252895   4.809   4.549   2.188  0.8738 -0.7558  0.4020
10494TIP3   OH252896   5.441   6.192   2.631 -0.2195  0.4511  0.4977
10494TIP3    H152897   5.494   6.261   2.670 -2.4554  2.1303  0.8107
10494TIP3    H252898   5.357   6.235   2.613 -0.8774 -1.5632 -1.6657
10495TIP3   OH252899   4.090   1.798   4.096 -0.3009  0.3272 -0.7248
10495TIP3    H152900   4.159   1.766   4.038  1.4192  2.2351  0.1064
10495TIP3    H252901   4.134   1.863   4.151 -2.3201  0.1234  1.2940
10496TIP3   OH252902   3.249   6.762  16.729 -0.1959 -0.1762  0.3478
10496TIP3    H152903   3.302   6.697  16.684  1.3580  0.4162  1.2481
10496TIP3    H252904   3.300   6.843  16.725 -1.1543  0.4873  0.9927
10497TIP3   OH252905   5.800   4.192   4.984  0.1248  0.8712 -0.3149
10497TIP3    H152906   5.772   4.251   5.054  0.7019  1.7677 -0.8114
10497TIP3    H252907   5.761   4.108   5.006 -1.7334  1.7043 -0.2038
10498TIP3   OH252908   0.756   5.472   3.564  0.2324  0.3247  0.0409
10498TIP3    H152909   0.733   5.394   3.514  1.0999 -0.5462  0.9825
10498TIP3    H252910   0.850   5.465   3.580  0.5006  1.9784 -0.5520
10499TIP3   OH252911   3.342   2.803  14.540  0.1116  0.5789  0.1018
10499TIP3    H152912   3.353   2.799  14.635 -0.9137 -1.0999  0.2000
10499TIP3    H252913   3.261   2.854  14.528 -0.0999  0.2651  0.1742
10500TIP3   OH252914   2.052   4.285   1.586 -0.2503 -0.1902  0.1060
10500TIP3    H152915   2.050   4.307   1.493  0.4018 -0.3579  0.0440
10500TIP3    H252916   2.116   4.346   1.623  1.2132 -1.6032  0.0166
10501TIP3   OH252917   3.474   2.448  12.015  0.2584 -0.3151  0.3993
10501TIP3    H152918   3.485   2.453  11.920  0.4896 -0.3307  0.4252
10501TIP3    H252919   3.480   2.539  12.044 -0.3372 -0.2503  0.3429
10502TIP3   OH252920   0.234   4.275   4.679  0.2008 -0.6201  0.2021
10502TIP3    H152921   0.311   4.303   4.628 -0.5939  1.4844  0.0650
10502TIP3    H252922   0.270   4.244   4.762  1.2189  0.3661  0.1557
10503TIP3   OH252923   3.105   3.115  12.345  0.2551  0.5039  0.3646
10503TIP3    H152924   3.062   3.126  12.260  1.6341  2.4165 -0.1404
10503TIP3    H252925   3.157   3.194  12.357  3.0639 -1.3409  1.2916
10504TIP3   OH252926   0.010   0.743   0.226 -0.1284  0.4256  0.0896
10504TIP3    H152927   0.088   0.736   0.281 -0.1321  2.0265  0.3403
10504TIP3    H252928  -0.053   0.792   0.279 -1.1094 -0.3640 -0.3230
10505TIP3   OH252929   4.122   6.318   4.939  0.2731 -0.4291 -0.1917
10505TIP3    H152930   4.072   6.394   4.909 -0.4852 -0.4226  1.0260
10505TIP3    H252931   4.173   6.351   5.013  0.1510 -1.0498  0.1716
10506TIP3   OH252932   3.781   2.689   4.361  0.0185 -0.3104  0.4400
10506TIP3    H152933   3.796   2.603   4.401 -1.8251 -0.2678  1.3695
10506TIP3    H252934   3.775   2.749   4.436 -1.1333  0.1845 -0.0229
10507TIP3   OH252935   0.862   5.157  11.595  0.2032 -0.2216 -0.7757
10507TIP3    H152936   0.907   5.112  11.666  2.0181  1.9980 -0.4136
10507TIP3    H252937   0.801   5.216  11.638 -0.4422 -0.5820 -1.1684
10508TIP3   OH252938   1.609   4.903  16.907  0.1414 -0.4205 -0.1403
10508TIP3    H152939   1.667   4.900  16.983  0.9923 -0.9080 -0.7803
10508TIP3    H252940   1.634   4.827  16.855  0.1902  0.3801 -1.3320
10509TIP3   OH252941   5.756   2.396   5.585 -0.1018  0.2345  0.8839
10509TIP3    H152942   5.666   2.373   5.604 -0.3422  0.4619  0.0302
10509TIP3    H252943   5.793   2.420   5.671 -1.1483  1.1772  1.0852
10510TIP3   OH252944   2.783   1.230   4.525  0.7333 -0.6969  0.1603
10510TIP3    H152945   2.752   1.143   4.501 -0.5145 -0.1353 -0.3397
10510TIP3    H252946   2.809   1.221   4.617 -2.5120 -0.8533  1.1849
10511TIP3   OH252947   6.249   2.454   4.536 -0.4783 -0.2400  0.4836
10511TIP3    H152948   6.268   2.376   4.485 -2.8747 -0.9807  0.5970
10511TIP3    H252949   6.219   2.519   4.472 -1.1042 -0.3456  0.6587
10512TIP3   OH252950   1.585   0.096  12.181 -0.5839 -0.1753 -0.7581
10512TIP3    H152951   1.638   0.052  12.248 -0.7245 -0.5408 -0.8853
10512TIP3    H252952   1.542   0.024  12.134  0.1111  0.0310 -1.7320
10513TIP3   OH252953   0.279   2.145  12.978 -0.6865  0.0804  0.6692
10513TIP3    H152954   0.272   2.240  12.988  1.4067  0.3296  0.1043
10513TIP3    H252955   0.211   2.110  13.037 -0.3819  1.8777  2.1807
10514TIP3   OH252956   4.858   1.555  15.794  0.2938 -0.6455 -0.3942
10514TIP3    H152957   4.917   1.630  15.786  0.2420 -0.4688  0.7090
10514TIP3    H252958   4.774   1.593  15.820  0.0541 -1.0141 -0.6228
10515TIP3   OH252959   6.223   2.125   3.181 -0.6160 -0.4201 -0.5107
10515TIP3    H152960   6.244   2.155   3.270 -1.2679 -0.0060 -0.4890
10515TIP3    H252961   6.301   2.077   3.153  0.1225  0.5724 -0.2129
10516TIP3   OH252962   0.847   0.256  14.052 -0.1496  0.3801 -0.1167
10516TIP3    H152963   0.817   0.200  13.980  0.5081 -2.7999  1.8739
10516TIP3    H252964   0.773   0.313  14.071 -1.1856 -0.3499 -1.7695
10517TIP3   OH252965   1.390   2.099   2.065 -0.8215 -0.0864  0.0826
10517TIP3    H152966   1.466   2.125   2.013 -1.2524 -0.3810 -0.7019
10517TIP3    H252967   1.426   2.087   2.154  0.2463 -1.0944 -0.4485
10518TIP3   OH252968   0.755   6.615  15.289 -0.1944  0.1519  0.8539
10518TIP3    H152969   0.701   6.668  15.347 -0.3776  1.6184 -0.5668
10518TIP3    H252970   0.845   6.640  15.310  0.0669 -2.5306  3.4467
10519TIP3   OH252971   4.426   1.941   3.673  0.5707  0.0346 -0.1668
10519TIP3    H152972   4.355   1.963   3.612  1.0847 -0.9539 -1.1671
10519TIP3    H252973   4.481   1.880   3.624  0.2044 -1.9840  1.7805
10520TIP3   OH252974   5.753   6.613   2.562  0.5681 -0.4380  0.2431
10520TIP3    H152975   5.701   6.679   2.515  0.2457 -1.2238 -0.5377
10520TIP3    H252976   5.841   6.622   2.527  0.9947  0.8480  1.5174
10521TIP3   OH252977   3.169   5.757   5.313 -0.2627 -0.2106  0.1751
10521TIP3    H152978   3.116   5.750   5.234 -1.4703  1.3912  0.7953
10521TIP3    H252979   3.111   5.729   5.384 -0.9409  3.0227  1.0559
10522TIP3   OH252980   4.426   3.478   1.678 -0.4623 -0.1483 -0.3126
10522TIP3    H152981   4.358   3.446   1.620 -0.0715  3.3543 -3.0603
10522TIP3    H252982   4.393   3.562   1.710  0.7766 -0.4287  1.9147
10523TIP3   OH252983   3.358   5.942  13.711 -0.0678 -0.3696  0.2901
10523TIP3    H152984   3.282   5.893  13.680  0.0961 -0.8268  0.6064
10523TIP3    H252985   3.382   5.998  13.637 -0.7479 -0.1713  0.2085
10524TIP3   OH252986   5.937   4.001  15.092 -0.2453 -0.5796 -0.1679
10524TIP3    H152987   5.938   3.987  15.187 -0.6136 -0.2628 -0.1126
10524TIP3    H252988   5.934   3.912  15.055 -0.0127 -0.7067  0.1150
10525TIP3   OH252989   6.164   0.838   0.674 -0.7472  0.2227 -0.3497
10525TIP3    H152990   6.171   0.835   0.579 -0.9796 -2.2043 -0.3599
10525TIP3    H252991   6.132   0.751   0.698  0.1852  0.4665  2.0183
10526TIP3   OH252992   5.685   3.175   2.965 -0.0358  0.3889 -0.5871
10526TIP3    H152993   5.605   3.184   3.016  0.0689  1.2945 -0.5628
10526TIP3    H252994   5.695   3.081   2.951 -0.6592  0.2143  0.1113
10527TIP3   OH252995   5.655   0.099  15.549 -0.7768  0.1015  0.5168
10527TIP3    H152996   5.676   0.190  15.568 -0.7317  0.7073 -1.9775
10527TIP3    H252997   5.697   0.048  15.618 -0.3144  1.9254  1.6290
10528TIP3   OH252998   6.182   2.504  16.602  0.4991 -0.0779  0.0536
10528TIP3    H152999   6.239   2.428  16.617  0.2644 -0.9608 -2.9204
10528TIP3    H253000   6.209   2.539  16.517 -1.0175  1.6937  0.2263
10529TIP3   OH253001   2.343   2.255  11.353 -0.0132 -0.2854  0.3781
10529TIP3    H153002   2.261   2.228  11.394 -0.4460  2.1884  1.3495
10529TIP3    H253003   2.335   2.226  11.262 -1.0678 -1.8421  0.9360
10530TIP3   OH253004   1.394   6.541   6.355  0.1202  0.1630  0.7143
10530TIP3    H153005   1.308   6.501   6.363  0.1020 -0.0071 -0.1914
10530TIP3    H253006   1.439   6.519   6.436 -1.0929  1.2590  1.7245
10531TIP3   OH253007   2.718   6.156  15.849  0.0405  0.1742  0.0179
10531TIP3    H153008   2.630   6.162  15.886 -0.8066 -2.8111 -1.2812
10531TIP3    H253009   2.763   6.093  15.906  0.8068  0.4248 -0.3054
10532TIP3   OH253010   3.793   1.133   0.389 -0.0416 -1.0907  0.2012
10532TIP3    H153011   3.825   1.178   0.468  0.2835 -1.2917  0.1840
10532TIP3    H253012   3.780   1.204   0.325  0.5106 -1.0260  0.1596
10533TIP3   OH253013   1.108   0.201   3.136 -0.5177 -0.2900 -0.8561
10533TIP3    H153014   1.016   0.198   3.162 -0.7551  2.0976 -1.1734
10533TIP3    H253015   1.109   0.258   3.059  0.9797 -2.1503 -2.3070
10534TIP3   OH253016   4.096   1.127  15.773  0.4487 -0.2217 -0.0130
10534TIP3    H153017   4.181   1.154  15.808  0.0451 -1.0707  1.7672
10534TIP3    H253018   4.055   1.209  15.743  1.0804  0.4943  1.0038
10535TIP3   OH253019   6.053   2.878  13.214  0.4590  0.3527 -0.0789
10535TIP3    H153020   6.081   2.800  13.166  0.8864  0.3702  0.1430
10535TIP3    H253021   6.125   2.897  13.274  0.2708  0.8023  0.0094
10536TIP3   OH253022   3.107   0.440   1.342  0.2186 -0.3205 -0.4498
10536TIP3    H153023   3.052   0.499   1.291  0.2767 -1.0342 -1.3606
10536TIP3    H253024   3.062   0.356   1.338 -0.7672 -0.0191  2.2666
10537TIP3   OH253025   6.093   3.620   5.357  0.1503 -0.2350  0.8150
10537TIP3    H153026   6.058   3.670   5.284  1.2993  0.3127  0.6144
10537TIP3    H253027   6.017   3.600   5.412 -0.2891  2.1945  1.1769
10538TIP3   OH253028   3.101   6.070   5.087  0.2289 -0.0545 -0.4121
10538TIP3    H153029   3.129   6.161   5.079 -0.0792  0.2188  1.2577
10538TIP3    H253030   3.101   6.036   4.997  0.3035  1.6004 -1.0585
10539TIP3   OH253031   0.119   4.588   6.502 -0.1995 -0.4801 -0.4649
10539TIP3    H153032   0.051   4.547   6.449 -0.1824  0.2705 -1.0857
10539TIP3    H253033   0.092   4.571   6.593 -0.1923 -1.8189 -0.7044
10540TIP3   OH253034   5.405   6.451   5.981  0.2556 -0.0592 -0.3061
10540TIP3    H153035   5.312   6.435   5.966 -0.3715  2.4898  0.3906
10540TIP3    H253036   5.439   6.367   6.012 -2.3881 -0.4416  1.9540
10541TIP3   OH253037   0.163   0.403   6.197 -0.1862 -0.1515  0.1252
10541TIP3    H153038   0.184   0.316   6.164 -0.9156  0.1561 -1.2005
10541TIP3    H253039   0.244   0.433   6.238  0.6879 -0.6631 -1.1638
10542TIP3   OH253040   6.618   4.739   3.619  0.0248  0.4460  0.3572
10542TIP3    H153041   6.613   4.756   3.713 -0.8812 -0.1455  0.4300
10542TIP3    H253042   6.527   4.740   3.590  0.3632  1.9635 -0.7768
10543TIP3   OH253043   5.630   5.911   1.466  0.2239 -1.2530  0.0955
10543TIP3    H153044   5.579   5.959   1.531  1.4132 -1.5122  1.2982
10543TIP3    H253045   5.718   5.949   1.473  1.1473 -3.3684  0.9312
10544TIP3   OH253046   3.113   4.636   1.704 -0.3946  0.2200  0.3237
10544TIP3    H153047   3.098   4.565   1.642  1.7311 -1.3869  1.5446
10544TIP3    H253048   3.208   4.641   1.714 -0.4473  3.2457  0.3263
10545TIP3   OH253049   1.572   3.965   2.006  0.3914  0.2510  0.4477
10545TIP3    H153050   1.630   3.967   2.082  0.5267 -0.6719  0.3689
10545TIP3    H253051   1.607   3.896   1.950 -0.3374  0.2056  0.0395
10546TIP3   OH253052   0.813   0.927  13.937 -0.5742 -0.1151 -0.1196
10546TIP3    H153053   0.767   1.007  13.959  0.5470  0.1805  1.2993
10546TIP3    H253054   0.831   0.934  13.843  0.4448  1.8031  0.1807
10547TIP3   OH253055   0.874   2.804   4.690  0.5249 -0.2983 -0.2746
10547TIP3    H153056   0.927   2.833   4.617  2.0908  0.0865  0.9629
10547TIP3    H253057   0.791   2.777   4.650  1.4025 -0.3361 -2.1918
10548TIP3   OH253058   5.626   3.103  15.779  0.6391 -0.2400 -0.3259
10548TIP3    H153059   5.584   3.025  15.814  0.2698 -0.3914 -1.0820
10548TIP3    H253060   5.713   3.074  15.751  1.5620  0.2195  1.8715
10549TIP3   OH253061   1.715   1.193   0.157  0.0559  0.1935  0.3288
10549TIP3    H153062   1.696   1.128   0.090  0.5047  0.1822  0.2136
10549TIP3    H253063   1.640   1.188   0.217 -0.6172  0.5868 -0.4569
10550TIP3   OH253064   5.577   2.480  11.840  0.4756 -0.2288 -0.4914
10550TIP3    H153065   5.612   2.393  11.821  1.3691  0.2400 -1.0719
10550TIP3    H253066   5.652   2.529  11.875 -0.4568 -0.2444  1.7248
10551TIP3   OH253067   4.744   2.681  10.160  0.7702 -0.1154 -0.2736
10551TIP3    H153068   4.773   2.643  10.243 -0.9346 -1.6313 -0.2918
10551TIP3    H253069   4.693   2.758  10.185  0.2727 -0.5591  0.1015
10552TIP3   OH253070   1.323   5.233   0.492 -0.1651 -0.3922  0.6273
10552TIP3    H153071   1.407   5.266   0.460 -1.2293  2.5697  0.5514
10552TIP3    H253072   1.278   5.202   0.414 -0.3239  1.0131  0.1213
10553TIP3   OH253073   4.294   3.245   5.550  0.7798 -0.2117 -0.1955
10553TIP3    H153074   4.289   3.340   5.543 -2.0531 -0.1104  1.6440
10553TIP3    H253075   4.359   3.229   5.618  0.9034  0.4034 -0.1663
10554TIP3   OH253076   4.921   6.615   4.233 -0.4220  0.0583  0.1271
10554TIP3    H153077   4.925   6.651   4.322 -0.8289  0.0573  0.1472
10554TIP3    H253078   4.976   6.536   4.237 -0.7971 -0.1865  0.4930
10555TIP3   OH253079   6.749   4.476  13.713 -0.2975  0.0318 -0.0443
10555TIP3    H153080   6.689   4.550  13.706 -0.6193 -0.1662  0.5417
10555TIP3    H253081   6.789   4.469  13.626 -1.2956  0.0228 -0.5177
10556TIP3   OH253082   1.691   5.112  13.787  0.3592  0.3293 -0.0842
10556TIP3    H153083   1.618   5.052  13.772 -0.0999  1.3366 -2.4049
10556TIP3    H253084   1.691   5.128  13.881 -3.8107  1.9097 -0.1454
10557TIP3   OH253085   2.149   1.474  15.508 -0.0112  0.9152  0.0558
10557TIP3    H153086   2.074   1.504  15.560 -0.5422 -1.1751  0.5899
10557TIP3    H253087   2.187   1.403  15.560 -0.4414 -1.1395 -2.2699
10558TIP3   OH253088   6.348   0.881   6.432 -0.5628  0.2746  0.3650
10558TIP3    H153089   6.331   0.811   6.495 -0.7729  0.3699  0.4140
10558TIP3    H253090   6.424   0.850   6.382  0.4612  0.8095  1.5519
10559TIP3   OH253091   0.143   5.737   3.787 -0.2604  0.0332 -0.5917
10559TIP3    H153092   0.076   5.724   3.721 -0.0462  1.0311 -1.0322
10559TIP3    H253093   0.169   5.829   3.777  2.4857 -0.7727 -1.6990
10560TIP3   OH253094   4.545   1.913  12.792  0.5014 -0.8086  0.2130
10560TIP3    H153095   4.559   1.856  12.717 -1.0752 -2.2823  0.9514
10560TIP3    H253096   4.553   1.855  12.868  1.9553  0.6190  1.2244
10561TIP3   OH253097   1.176   2.376   2.172 -0.4831 -0.5285  0.7520
10561TIP3    H153098   1.265   2.342   2.174  0.7299  2.3500  2.3847
10561TIP3    H253099   1.123   2.308   2.212  1.2569 -1.6141  1.3186
10562TIP3   OH253100   2.319   3.607  15.085  0.6040  0.6043  0.5250
10562TIP3    H153101   2.403   3.569  15.109  1.3899  1.7636 -0.2715
10562TIP3    H253102   2.322   3.611  14.989 -1.0506 -0.8359  0.3647
10563TIP3   OH253103   6.310   1.089   6.623 -0.0501 -0.0218  0.3046
10563TIP3    H153104   6.307   1.177   6.586  0.1374  0.0015  0.3414
10563TIP3    H253105   6.329   1.032   6.549  0.0725 -0.0033  0.3214
10564TIP3   OH253106   1.549   0.755  16.182 -0.4278  0.2703  0.2227
10564TIP3    H153107   1.455   0.737  16.178 -0.7643  1.8418  0.4097
10564TIP3    H253108   1.558   0.823  16.248  0.4913  2.1123 -1.6794
10565TIP3   OH253109   0.926   4.762   2.047  0.4418 -0.1284  0.2577
10565TIP3    H153110   1.004   4.767   2.102  1.9745 -1.7866 -1.5834
10565TIP3    H253111   0.929   4.842   1.994  3.3246 -1.8747 -2.6121
10566TIP3   OH253112   3.018   4.109  16.498  0.3457 -0.3118  0.0219
10566TIP3    H153113   2.960   4.043  16.536  1.7253 -1.3184  0.4883
10566TIP3    H253114   2.976   4.134  16.416 -0.6657 -1.1066  0.2780
10567TIP3   OH253115   5.491   5.848  14.589  0.0825 -0.1361 -0.5726
10567TIP3    H153116   5.484   5.853  14.493  0.0192 -0.4371 -0.5860
10567TIP3    H253117   5.461   5.933  14.620  1.3958  0.4673 -0.8809
10568TIP3   OH253118   6.711   0.724   1.781  0.3180 -0.6419 -0.5436
10568TIP3    H153119   6.757   0.682   1.854 -1.8392  2.4309  2.9219
10568TIP3    H253120   6.635   0.667   1.765 -0.8528  0.0842  1.8839
10569TIP3   OH253121   3.705   5.541   1.499 -0.4310  0.0218  0.1088
10569TIP3    H153122   3.794   5.534   1.533 -0.0369  2.0598 -0.4177
10569TIP3    H253123   3.652   5.570   1.574 -0.3422  0.4634 -0.0017
10570TIP3   OH253124   0.712   2.874  14.445 -0.0046  0.5240 -0.7105
10570TIP3    H153125   0.677   2.962  14.451 -1.0978  0.0804 -0.4588
10570TIP3    H253126   0.719   2.844  14.536 -0.4581  0.0338 -0.8366
10571TIP3   OH253127   2.178   1.569  14.260  0.0703  0.5533 -0.4025
10571TIP3    H153128   2.085   1.582  14.243 -0.3863 -3.2939 -1.9964
10571TIP3    H253129   2.222   1.611  14.186 -0.3669  1.9453  0.0946
10572TIP3   OH253130   3.092   6.432  13.623 -0.8481 -0.4071 -0.4310
10572TIP3    H153131   3.009   6.415  13.578 -1.1682  0.8090 -0.3440
10572TIP3    H253132   3.150   6.362  13.594 -1.2257 -0.0002 -2.2871
10573TIP3   OH253133   2.648   3.966  11.628 -0.8241  0.7124  0.2743
10573TIP3    H153134   2.659   3.880  11.588 -1.7800  0.9645 -0.5895
10573TIP3    H253135   2.735   4.006  11.625 -0.3574 -0.2294  0.7442
10574TIP3   OH253136   0.955   6.296   3.613  0.2222 -0.0483  0.1387
10574TIP3    H153137   0.959   6.355   3.538  0.9672 -1.1570 -0.7331
10574TIP3    H253138   0.885   6.331   3.668 -0.3822  0.7517 -1.1004
10575TIP3   OH253139   3.169   0.597   5.770 -0.5739  0.2606 -0.3844
10575TIP3    H153140   3.173   0.621   5.863 -2.0877 -0.9857  0.0444
10575TIP3    H253141   3.078   0.614   5.745 -0.3211  0.0461 -1.4723
10576TIP3   OH253142   1.704   2.792  12.409  0.2944  0.2531 -0.0850
10576TIP3    H153143   1.785   2.746  12.433 -1.0314 -0.6664  3.1153
10576TIP3    H253144   1.648   2.724  12.373  0.3466  0.5563 -0.7440
10577TIP3   OH253145   4.396   1.453   1.817  0.0940 -0.4407  0.1004
10577TIP3    H153146   4.386   1.389   1.888 -0.3703 -1.6007 -0.9824
10577TIP3    H253147   4.411   1.536   1.862 -3.0734 -0.5698  1.7049
10578TIP3   OH253148   1.279   3.206   5.274  0.7040 -0.3115 -0.4675
10578TIP3    H153149   1.300   3.298   5.285  0.2659 -0.1208 -1.1313
10578TIP3    H253150   1.187   3.206   5.248  0.3612 -1.0093  0.6862
10579TIP3   OH253151   5.117   0.322  12.495  0.1409 -0.1602  0.0067
10579TIP3    H153152   5.211   0.312  12.481 -0.0126 -1.4055 -0.2284
10579TIP3    H253153   5.106   0.308  12.589  0.1428 -0.3337 -0.0201
10580TIP3   OH253154   3.220   6.733   2.266  0.2308 -0.1695  0.4811
10580TIP3    H153155   3.203   6.762   2.176 -2.1373  0.7249  1.1437
10580TIP3    H253156   3.290   6.791   2.297 -0.8594  1.4202  0.0914
10581TIP3   OH253157   0.720   0.564   2.667  0.4127  0.0030 -0.5526
10581TIP3    H153158   0.644   0.585   2.721  0.1920 -0.4465 -0.6826
10581TIP3    H253159   0.776   0.641   2.674  0.0868  0.2152 -0.2097
10582TIP3   OH253160   1.208   1.156  15.444  0.2372  0.1019  0.0247
10582TIP3    H153161   1.167   1.089  15.389 -2.1277 -0.4125  2.2063
10582TIP3    H253162   1.174   1.239  15.410  1.9663  0.1738 -1.7107
10583TIP3   OH253163   5.748   2.402  16.705 -0.0953 -0.2499  0.0982
10583TIP3    H153164   5.654   2.397  16.683 -0.4596 -0.7612  1.6857
10583TIP3    H253165   5.750   2.416  16.799  1.4222  1.5720 -0.1509
10584TIP3   OH253166   1.635   4.862   2.980  0.5068 -0.0845  0.1673
10584TIP3    H153167   1.649   4.938   2.924  0.4432  2.0086  2.7726
10584TIP3    H253168   1.544   4.871   3.011  0.7241 -0.8100  1.0642
10585TIP3   OH253169   5.181   6.068  12.345 -0.3762 -0.8283 -0.0907
10585TIP3    H153170   5.162   6.161  12.336  0.2488 -0.5224  1.3877
10585TIP3    H253171   5.102   6.023  12.315 -1.1793  0.2211  0.4007
10586TIP3   OH253172   5.189   0.690  13.421 -0.4563 -0.0152 -0.4155
10586TIP3    H153173   5.176   0.604  13.381  0.6321 -0.9035  1.0054
10586TIP3    H253174   5.120   0.695  13.488 -0.6013  0.2806 -0.5858
10587TIP3   OH253175   1.220   4.373  17.097 -0.1261 -0.1784  0.2525
10587TIP3    H153176   1.314   4.372  17.080  0.1601  0.3355  1.6459
10587TIP3    H253177   1.183   4.424  17.025  0.4787 -1.4924 -1.0313
10588TIP3   OH253178   1.711   0.545  13.454  0.2064  0.4232 -0.1411
10588TIP3    H153179   1.673   0.457  13.449  0.5865 -0.1489  3.6093
10588TIP3    H253180   1.642   0.598  13.494  1.0293  0.9950  0.5652
10589TIP3   OH253181   1.057   1.514   5.115 -0.5269 -0.2996  0.4858
10589TIP3    H153182   1.058   1.566   5.195  0.2886  0.4799 -0.0178
10589TIP3    H253183   1.108   1.436   5.137 -1.1038 -0.5469  1.0023
10590TIP3   OH253184   1.345   3.379  10.621  0.4647 -0.4767 -0.5894
10590TIP3    H153185   1.297   3.296  10.623 -0.0894 -0.2168 -2.0906
10590TIP3    H253186   1.411   3.368  10.553  0.7858  0.1120 -0.3809
10591TIP3   OH253187   3.351   1.548   3.852 -0.6922 -0.3567  0.0695
10591TIP3    H153188   3.354   1.578   3.761  1.0618  0.5414  0.3823
10591TIP3    H253189   3.285   1.605   3.893 -0.6723  0.0052 -0.3834
10592TIP3   OH253190   2.341   2.866  16.341  0.4097 -0.1335  0.3688
10592TIP3    H153191   2.287   2.862  16.262  0.6299 -0.6052  0.2391
10592TIP3    H253192   2.395   2.787  16.338  0.1416 -0.3644  1.1929
10593TIP3   OH253193   2.722   5.493   1.410 -0.1347 -0.1419 -0.0636
10593TIP3    H153194   2.766   5.553   1.470  0.6446  0.3572 -1.1055
10593TIP3    H253195   2.650   5.545   1.374  1.4109  0.7310 -2.0801
10594TIP3   OH253196   4.418   4.146  11.653 -0.0975  0.4719  0.2461
10594TIP3    H153197   4.329   4.132  11.687 -0.1786 -1.5483 -0.6676
10594TIP3    H253198   4.406   4.205  11.579 -0.7897 -0.3443 -0.3109
10595TIP3   OH253199   0.415   5.688  11.568 -0.1293 -0.3068 -0.0403
10595TIP3    H153200   0.439   5.728  11.484  3.6218 -2.2686 -0.0860
10595TIP3    H253201   0.380   5.602  11.545  0.3551 -0.6191  0.3689
10596TIP3   OH253202   0.384   0.512  14.580 -0.0495 -0.4149 -0.1574
10596TIP3    H153203   0.357   0.533  14.669  1.5856  1.6309 -0.0823
10596TIP3    H253204   0.478   0.525  14.579 -0.1615  0.7846 -2.4655
10597TIP3   OH253205   5.334   6.471  11.147 -1.1611  0.0112 -0.7847
10597TIP3    H153206   5.378   6.555  11.136 -1.1223  0.3021  1.3015
10597TIP3    H253207   5.392   6.420  11.203 -2.8672 -0.0494  1.0093
10598TIP3   OH253208   3.563   5.845  15.483 -0.1357  0.0282  0.2549
10598TIP3    H153209   3.629   5.851  15.553 -0.3569  1.7269  0.3722
10598TIP3    H253210   3.531   5.935  15.473 -0.0313 -0.1411 -2.1235
10599TIP3   OH253211   2.577   0.167   5.954  0.0317  0.0575  0.7515
10599TIP3    H153212   2.625   0.232   6.005 -0.9616  0.9074  0.6235
10599TIP3    H253213   2.489   0.166   5.992  0.6572 -3.1117  2.4753
10600TIP3   OH253214   2.062   0.879  11.998 -0.0860 -0.2948 -0.8199
10600TIP3    H153215   2.058   0.914  11.909 -0.2588  0.3333 -0.5652
10600TIP3    H253216   2.148   0.905  12.030  0.7011 -2.0236 -1.4123
10601TIP3   OH253217   5.112   4.878   1.985 -0.3875 -0.5399  0.3303
10601TIP3    H153218   5.020   4.891   1.961  0.1479  0.0123 -1.5592
10601TIP3    H253219   5.125   4.935   2.060 -1.7613 -1.1911  1.1118
10602TIP3   OH253220   0.215   5.552   4.650 -0.1209  0.0246 -0.3307
10602TIP3    H153221   0.231   5.459   4.669 -3.0035 -0.3577  0.7877
10602TIP3    H253222   0.244   5.598   4.728  0.9315  0.0617 -0.7238
10603TIP3   OH253223   1.687   1.770   5.910 -0.3543  0.1625  0.0224
10603TIP3    H153224   1.643   1.740   5.830  1.9085 -1.6782 -0.6291
10603TIP3    H253225   1.714   1.690   5.954  2.5999  1.1501  0.1871
10604TIP3   OH253226   0.476   0.075  11.775  0.0726 -0.1235 -0.0104
10604TIP3    H153227   0.468   0.142  11.707  0.5098  1.2789  1.2699
10604TIP3    H253228   0.481  -0.007  11.726 -1.6172  0.6321 -1.5908
10605TIP3   OH253229   0.896   3.698   0.452  0.2706 -0.4487  0.7637
10605TIP3    H153230   0.968   3.753   0.484 -1.0021  0.4025  2.2865
10605TIP3    H253231   0.827   3.760   0.428 -0.0380 -1.2611 -0.5767
10606TIP3   OH253232   3.943   6.233   0.020  0.4251  0.5639  0.0688
10606TIP3    H153233   3.955   6.294  -0.053  1.7998  0.3769  0.1135
10606TIP3    H253234   4.012   6.167   0.007  0.3043  0.2003  1.2046
10607TIP3   OH253235   0.634   5.234  12.519  0.1453  0.3144 -0.2341
10607TIP3    H153236   0.613   5.158  12.464 -1.2307  0.3857  0.1564
10607TIP3    H253237   0.648   5.305  12.457  2.4020 -0.4073 -0.6726
10608TIP3   OH253238   0.231   6.341   3.073  0.3014 -0.1412  0.0515
10608TIP3    H153239   0.280   6.277   3.124  1.9823  0.9156 -0.1661
10608TIP3    H253240   0.285   6.357   2.996 -0.2528  1.2720 -0.0749
10609TIP3   OH253241   4.308   6.232   0.162  0.0043  0.0256 -0.3256
10609TIP3    H153242   4.255   6.238   0.241  1.1381  0.6826  0.4190
10609TIP3    H253243   4.269   6.161   0.112 -0.0055 -1.2580  1.4002
10610TIP3   OH253244   6.083   1.646   2.817  0.0245 -0.0210 -1.1538
10610TIP3    H153245   6.060   1.739   2.821  1.0363  0.3515 -3.0343
10610TIP3    H253246   6.144   1.633   2.889 -2.2589  0.0422  0.9552
10611TIP3   OH253247   5.358   6.512  16.340 -0.4239 -0.0736  0.2813
10611TIP3    H153248   5.363   6.420  16.313  1.6418 -0.2636  1.1404
10611TIP3    H253249   5.359   6.510  16.435 -1.1912  0.8372  0.3288
10612TIP3   OH253250   0.474   6.229  12.876  0.1019 -0.8962 -0.2510
10612TIP3    H153251   0.496   6.136  12.877 -2.5313 -1.5846  0.3324
10612TIP3    H253252   0.491   6.256  12.785  0.9340 -1.9137 -0.4174
10613TIP3   OH253253   6.584   2.212   6.676 -0.3456  0.1806  0.1379
10613TIP3    H153254   6.669   2.189   6.714  0.5461  0.6539 -1.4738
10613TIP3    H253255   6.591   2.187   6.584 -1.4246  1.5634 -0.3533
10614TIP3   OH253256   0.748   2.022   0.701  0.2724  0.3570  0.1222
10614TIP3    H153257   0.758   2.042   0.794 -0.9290  0.3287  0.2807
10614TIP3    H253258   0.787   1.936   0.690  1.1313  0.7016  0.4302
10615TIP3   OH253259   1.893   5.786   2.432 -0.0602  0.0840  0.4690
10615TIP3    H153260   1.828   5.732   2.476 -0.4287  1.1089  1.2479
10615TIP3    H253261   1.925   5.733   2.360  2.4740 -2.8135  3.4249
10616TIP3   OH253262   6.518   0.283   5.637 -0.7584  0.5640  0.2838
10616TIP3    H153263   6.457   0.348   5.670 -0.9741  0.6355 -0.2611
10616TIP3    H253264   6.475   0.244   5.561 -0.4102  0.1540  0.2875
10617TIP3   OH253265   5.252   0.594   2.803 -0.3231  0.2639 -0.3715
10617TIP3    H153266   5.339   0.564   2.830 -0.0528  1.0493 -0.3552
10617TIP3    H253267   5.241   0.561   2.714  0.2866  0.7612 -0.6343
10618TIP3   OH253268   0.817   2.350   2.835  0.2903 -0.0226  0.1033
10618TIP3    H153269   0.820   2.351   2.739  0.5134 -0.6380  0.1024
10618TIP3    H253270   0.847   2.263   2.859  1.4396  0.5336  0.7750
10619TIP3   OH253271   4.965   4.527   5.248 -0.6316  1.0886 -1.1755
10619TIP3    H153272   4.951   4.433   5.235 -1.7667  1.2106 -0.9273
10619TIP3    H253273   4.901   4.569   5.192  0.3315  1.7474 -1.8144
10620TIP3   OH253274   4.847   0.453   5.793 -0.4563 -0.0719 -0.1109
10620TIP3    H153275   4.891   0.524   5.747 -0.5763 -0.5872 -1.0498
10620TIP3    H253276   4.787   0.416   5.728 -3.2436  1.3901  1.4232
10621TIP3   OH253277   4.056   6.537   3.830  0.4460  0.1604  0.9055
10621TIP3    H153278   4.089   6.461   3.877  0.3140 -1.7149 -1.8450
10621TIP3    H253279   4.133   6.592   3.816  0.9055 -0.4010  1.2084
10622TIP3   OH253280   4.695   6.425  15.900 -0.0482  0.8629 -0.4670
10622TIP3    H153281   4.697   6.521  15.902  0.5481  0.8475  1.2911
10622TIP3    H253282   4.668   6.400  15.988 -0.7186 -0.5911 -1.0681
10623TIP3   OH253283   2.635   6.587  12.487  0.0897  0.3224 -0.0800
10623TIP3    H153284   2.637   6.580  12.391  0.2897 -1.1437  0.0086
10623TIP3    H253285   2.723   6.617  12.510 -0.9131  4.1154 -0.5097
10624TIP3   OH253286   1.662   6.539   3.946 -0.2604 -0.6672  0.4284
10624TIP3    H153287   1.637   6.483   3.873  0.7961 -0.3437 -0.1965
10624TIP3    H253288   1.687   6.622   3.906  0.9587 -0.6921  1.0893
10625TIP3   OH253289   6.464   6.135   3.677 -0.3155 -0.6130 -0.2918
10625TIP3    H153290   6.516   6.213   3.658 -2.1672  0.8687  0.3455
10625TIP3    H253291   6.415   6.119   3.596  0.7535 -1.7252 -0.7411
10626TIP3   OH253292   1.068   6.414   4.467  0.1028  0.0203 -0.7198
10626TIP3    H153293   1.142   6.466   4.434  1.0270 -0.5590  0.3626
10626TIP3    H253294   1.042   6.459   4.547 -1.3199  0.7102 -1.5242
10627TIP3   OH253295   1.261   3.016  13.787 -0.0569  0.0880 -0.6149
10627TIP3    H153296   1.282   2.992  13.697 -1.3261  0.0076 -0.9153
10627TIP3    H253297   1.260   3.111  13.787  1.2470  0.1107 -0.3516
10628TIP3   OH253298   3.724   4.730   3.202 -0.1084  0.0986  0.3732
10628TIP3    H153299   3.637   4.750   3.238 -1.0990 -0.7511 -1.4321
10628TIP3    H253300   3.707   4.665   3.134  2.0518 -0.6067  0.4554
10629TIP3   OH253301   0.414   1.523  13.187  0.0117  0.2235 -0.0174
10629TIP3    H153302   0.463   1.557  13.263  1.6183 -0.3316 -0.7580
10629TIP3    H253303   0.406   1.598  13.129  1.1170  0.0445 -0.4324
10630TIP3   OH253304   0.558   1.450   5.510 -0.4702  0.3293 -0.0041
10630TIP3    H153305   0.468   1.473   5.533 -0.3127 -1.1150  2.3048
10630TIP3    H253306   0.611   1.517   5.553 -0.3369 -0.3273  0.8695
10631TIP3   OH253307   0.580   2.002   1.547 -0.3535  0.0873 -0.3468
10631TIP3    H153308   0.593   1.979   1.455  2.2327 -1.1020  0.2238
10631TIP3    H253309   0.520   1.935   1.581 -0.6123  0.0068 -0.9641
10632TIP3   OH253310   5.599   3.595   0.784 -0.3556  0.1696 -0.2491
10632TIP3    H153311   5.544   3.518   0.769 -1.2174  0.5282  0.9245
10632TIP3    H253312   5.620   3.592   0.877 -1.6725  2.1238  0.1916
10633TIP3   OH253313   4.878   4.372   0.234 -0.5427  0.2242 -0.0699
10633TIP3    H153314   4.891   4.431   0.160  1.2334  0.0517  0.0679
10633TIP3    H253315   4.966   4.346   0.260 -1.1359 -0.0651  1.8279
10634TIP3   OH253316   6.634   4.669  10.967 -0.1509  0.4854 -0.3763
10634TIP3    H153317   6.579   4.611  10.916  0.5230  0.6010 -1.2596
10634TIP3    H253318   6.702   4.699  10.906  0.0089  1.5354  0.2732
10635TIP3   OH253319   5.713   2.000  14.456  0.1311 -0.1201  0.2297
10635TIP3    H153320   5.623   2.005  14.488  0.2921  2.4552  0.4502
10635TIP3    H253321   5.741   2.091  14.449  2.9228 -0.8541  0.7010
10636TIP3   OH253322   4.566   5.922   1.349  0.0004 -0.4601 -0.9007
10636TIP3    H153323   4.527   5.836   1.332 -1.5076 -0.1296  0.5743
10636TIP3    H253324   4.619   5.940   1.272 -1.0689 -1.9205 -2.0394
10637TIP3   OH253325   1.180   3.604  16.197  0.1215  0.5652  0.3207
10637TIP3    H153326   1.128   3.684  16.206  1.0200  1.1819  0.1699
10637TIP3    H253327   1.136   3.554  16.129  1.0200  2.1549 -1.5400
10638TIP3   OH253328   3.572   4.761  15.271 -0.2279 -0.7278 -0.2923
10638TIP3    H153329   3.539   4.811  15.346 -0.9704 -0.9582 -0.4593
10638TIP3    H253330   3.645   4.814  15.237 -1.0339  0.2750 -0.4976
10639TIP3   OH253331   6.671   5.208   4.517  0.5673 -0.4575 -0.7670
10639TIP3    H153332   6.632   5.272   4.458 -0.8554  0.4731  1.0718
10639TIP3    H253333   6.763   5.234   4.523  0.3870  0.3699 -1.3443
10640TIP3   OH253334   0.746   1.139   5.006  0.5315  0.0787  0.1780
10640TIP3    H153335   0.720   1.221   5.047 -1.6726 -1.8508  3.0769
10640TIP3    H253336   0.816   1.163   4.945 -0.5956  4.1544  0.1978
10641TIP3   OH253337   0.010   1.047   3.329 -0.4273  0.1172  0.5754
10641TIP3    H153338  -0.066   1.022   3.381 -0.2934 -0.7521  0.3641
10641TIP3    H253339   0.020   1.141   3.344 -1.1287  0.1031  1.1415
10642TIP3   OH253340   4.773   1.986   0.702  0.9093 -0.3082  0.2673
10642TIP3    H153341   4.803   2.076   0.706 -0.8176  0.2773  2.7135
10642TIP3    H253342   4.849   1.934   0.731  1.4489  0.5000  0.3225
10643TIP3   OH253343   1.411   1.625  15.219  0.3748  0.1175  0.3315
10643TIP3    H153344   1.375   1.542  15.187  0.6349 -0.3383  1.1747
10643TIP3    H253345   1.336   1.685  15.218  0.2458 -0.0370 -0.5476
10644TIP3   OH253346   3.572   0.248  16.264  0.4515  0.5295  0.6272
10644TIP3    H153347   3.493   0.300  16.276  0.5920  1.0782 -0.6456
10644TIP3    H253348   3.540   0.158  16.255 -0.2513  0.9420 -1.6782
10645TIP3   OH253349   6.776   0.380  14.730 -0.1484 -0.4241 -0.2304
10645TIP3    H153350   6.782   0.454  14.791  0.2903 -1.2250  0.7296
10645TIP3    H253351   6.759   0.420  14.645 -1.6822  0.6840  0.5501
10646TIP3   OH253352   4.889   0.119  15.737  0.4936 -0.5555  0.0904
10646TIP3    H153353   4.884   0.210  15.767  1.4374 -0.8778  1.3023
10646TIP3    H253354   4.825   0.114  15.665  0.7080  1.1490 -0.2623
10647TIP3   OH253355   6.564   3.532   1.895 -0.2721 -0.7090 -0.0121
10647TIP3    H153356   6.641   3.586   1.912 -0.9245  0.0481  0.6071
10647TIP3    H253357   6.497   3.594   1.867 -1.2649 -1.0763  1.4266
10648TIP3   OH253358   6.748   4.983  10.904  0.2794  0.4817 -0.0840
10648TIP3    H153359   6.776   4.955  10.991 -0.1702 -2.4382 -0.7532
10648TIP3    H253360   6.724   5.075  10.914  0.6138  0.3381  2.7501
10649TIP3   OH253361   1.038   1.753   1.453 -0.2924 -0.0518 -0.0783
10649TIP3    H153362   1.016   1.784   1.541  0.1884 -0.3383  0.1508
10649TIP3    H253363   1.009   1.661   1.452  2.7951 -1.1977  1.0337
10650TIP3   OH253364   5.019   4.310   2.922  0.1269  0.0160 -0.7320
10650TIP3    H153365   5.018   4.216   2.938 -2.3718  0.1711  0.4344
10650TIP3    H253366   5.064   4.347   2.998 -2.1910 -0.0563  0.7940
10651TIP3   OH253367   3.705   2.909   1.291  0.2752 -0.2234 -0.0541
10651TIP3    H153368   3.707   2.834   1.351 -0.2338 -0.1239  0.0963
10651TIP3    H253369   3.694   2.985   1.348  2.6986  0.1935 -0.0430
10652TIP3   OH253370   1.024   2.802  15.054 -0.2971 -0.6520  0.3380
10652TIP3    H153371   1.019   2.897  15.045  1.2387 -0.4789  0.9310
10652TIP3    H253372   0.949   2.780  15.110  0.0143  0.3878  1.2171
10653TIP3   OH253373   6.488   5.471   1.621  0.4426  0.3623  0.2944
10653TIP3    H153374   6.579   5.498   1.608  0.0037  1.2401 -1.1506
10653TIP3    H253375   6.436   5.547   1.594 -0.7615 -0.7131 -0.5039
10654TIP3   OH253376   3.060   3.139   3.065  0.0913  0.3589  0.0023
10654TIP3    H153377   3.121   3.117   3.135  0.0127  1.0462  0.2880
10654TIP3    H253378   3.116   3.167   2.992  0.2075 -0.9851 -0.4558
10655TIP3   OH253379   4.978   2.531  17.190  0.0817  0.0398 -0.2251
10655TIP3    H153380   5.038   2.457  17.198  0.0449 -0.0475 -0.7531
10655TIP3    H253381   4.993   2.565  17.102  1.4786  1.8586  0.6330
10656TIP3   OH253382   2.967   4.628  11.556 -0.4941  0.1991  0.0750
10656TIP3    H153383   3.029   4.667  11.617  0.2558 -0.0819 -0.4937
10656TIP3    H253384   2.965   4.689  11.482 -1.2239  0.4222  0.2652
10657TIP3   OH253385   4.105   2.489  14.331 -0.2832  0.2325 -0.3942
10657TIP3    H153386   4.033   2.521  14.277 -0.3367 -1.1316 -1.1816
10657TIP3    H253387   4.109   2.395  14.312  1.7917  0.2924 -0.5008
10658TIP3   OH253388   6.394   6.452  11.781  0.3522 -0.3749  0.1092
10658TIP3    H153389   6.392   6.537  11.824  1.3309 -0.8574  1.1604
10658TIP3    H253390   6.327   6.401  11.827  0.3651 -0.4351  0.0603
10659TIP3   OH253391   1.794   3.331   4.930 -0.3465 -0.1027 -0.5029
10659TIP3    H153392   1.847   3.272   4.876 -1.6953 -0.6349 -1.2847
10659TIP3    H253393   1.761   3.276   5.001 -1.7019 -0.3555 -1.2969
10660TIP3   OH253394   0.275   0.381  11.914  0.3805 -0.1054 -0.2893
10660TIP3    H153395   0.336   0.432  11.860 -0.4014  1.4315  0.2232
10660TIP3    H253396   0.330   0.346  11.985  0.5868  1.9474  0.6373
10661TIP3   OH253397   2.763   4.419  16.069 -0.3228 -0.1009  0.1433
10661TIP3    H153398   2.797   4.494  16.118 -0.3435  0.1581 -0.2352
10661TIP3    H253399   2.736   4.356  16.137  0.1801  0.0115  0.4598
10662TIP3   OH253400   5.316   6.687   6.683  0.2492 -0.1614 -0.3256
10662TIP3    H153401   5.308   6.593   6.669 -1.3098 -0.0121 -0.6186
10662TIP3    H253402   5.265   6.726   6.612  0.0030  0.8630  0.3841
10663TIP3   OH253403   5.489   5.274   3.811  0.3208  0.0915  0.7925
10663TIP3    H153404   5.527   5.309   3.731 -0.0270  0.4235  0.7690
10663TIP3    H253405   5.429   5.205   3.782 -0.3307  0.6808  0.7124
10664TIP3   OH253406   1.293   2.212  12.220  0.0502 -0.4700 -0.1744
10664TIP3    H153407   1.214   2.215  12.166 -0.2225  0.3431  0.2499
10664TIP3    H253408   1.362   2.249  12.164 -0.9156  3.8253  1.0622
10665TIP3   OH253409   3.130   2.506   1.562  0.0732 -0.1022 -0.9997
10665TIP3    H153410   3.211   2.514   1.512  0.0058  0.1580 -1.0691
10665TIP3    H253411   3.145   2.431   1.620  0.7826  0.6146 -0.2363
10666TIP3   OH253412   5.534   1.874  16.089 -0.1247  0.2754 -0.2430
10666TIP3    H153413   5.460   1.935  16.084 -0.1825  0.2139 -0.1521
10666TIP3    H253414   5.572   1.891  16.175 -1.2329 -1.0620  0.5605
10667TIP3   OH253415   4.200   5.713   0.353  0.7663  0.3351 -0.3013
10667TIP3    H153416   4.266   5.647   0.373 -0.6853 -0.7513  1.2856
10667TIP3    H253417   4.128   5.693   0.413 -1.6560  0.4996 -2.9266
10668TIP3   OH253418   1.793   4.457  16.954  0.0286 -0.2353  0.0496
10668TIP3    H153419   1.705   4.471  16.918  0.6565  1.7515 -0.8343
10668TIP3    H253420   1.834   4.397  16.892 -0.5646 -0.9018  0.2807
10669TIP3   OH253421   0.230   6.130  13.685 -0.1285 -0.0463  0.0457
10669TIP3    H153422   0.235   6.047  13.733 -0.3561  0.8606  1.7066
10669TIP3    H253423   0.162   6.115  13.619 -1.9873 -0.4654  1.9281
10670TIP3   OH253424   0.924   6.785  11.358  0.2511 -0.5679  0.4874
10670TIP3    H153425   1.019   6.779  11.361  0.5412  2.1841 -0.3291
10670TIP3    H253426   0.903   6.793  11.265 -0.7644 -0.9381  0.6730
10671TIP3   OH253427   4.078   2.314   2.468  0.1226 -0.4215  0.0499
10671TIP3    H153428   4.067   2.219   2.456  0.4544 -0.2319 -2.0250
10671TIP3    H253429   4.095   2.348   2.380  0.6863  1.4950  0.8497
10672TIP3   OH253430   3.463   3.262   6.343 -0.2786  0.3335  0.4410
10672TIP3    H153431   3.490   3.333   6.401 -0.3591 -1.2310  2.5008
10672TIP3    H253432   3.542   3.210   6.331  0.3848  1.8633 -2.9083
10673TIP3   OH253433   1.199   6.487  17.020  0.0882 -0.2595  0.0284
10673TIP3    H153434   1.267   6.524  16.964 -1.2993  0.5521 -1.1965
10673TIP3    H253435   1.163   6.414  16.971 -0.8462  0.1836  0.0214
10674TIP3   OH253436   4.302   0.381   0.173  0.3201 -0.0388 -0.1466
10674TIP3    H153437   4.257   0.455   0.133  0.3433  0.5245  0.8287
10674TIP3    H253438   4.336   0.415   0.256  1.9800 -0.6162 -0.5321
10675TIP3   OH253439   3.148   1.433  15.510 -0.3265 -0.2121  0.2027
10675TIP3    H153440   3.060   1.403  15.485  0.2725 -2.2127  0.3056
10675TIP3    H253441   3.192   1.450  15.427 -1.2998  2.5721  0.1500
10676TIP3   OH253442   5.527   6.108  12.983 -0.0866 -0.0731 -0.0950
10676TIP3    H153443   5.540   6.042  13.052 -0.9181 -1.6565 -1.3703
10676TIP3    H253444   5.597   6.090  12.919  0.5357  1.2287  0.1772
10677TIP3   OH253445   5.111   5.117  12.307  0.0477 -0.0730  0.7192
10677TIP3    H153446   5.072   5.194  12.349  0.3482  0.1021  0.6805
10677TIP3    H253447   5.055   5.101  12.231 -0.0285  0.0972  0.7371
10678TIP3   OH253448   0.074   4.123  16.452 -0.0092 -0.4313 -0.3458
10678TIP3    H153449   0.033   4.072  16.521 -0.3128  1.3760  0.8842
10678TIP3    H253450   0.168   4.108  16.463 -0.0445  0.0061  0.6199
10679TIP3   OH253451   3.316   6.368  12.999 -0.1320  0.9269 -0.4527
10679TIP3    H153452   3.369   6.420  12.939  0.4763  0.6802 -0.1428
10679TIP3    H253453   3.321   6.279  12.964 -2.3235  1.2452 -1.7979
10680TIP3   OH253454   1.059   4.036  16.109 -0.3402 -0.4136  0.3548
10680TIP3    H153455   1.024   4.064  16.024 -1.5142 -1.1501  0.5800
10680TIP3    H253456   1.000   4.074  16.174 -0.0316 -0.6893  0.8033
10681TIP3   OH253457   2.849   6.411   4.675 -0.5549  0.3316  0.1038
10681TIP3    H153458   2.797   6.459   4.740 -0.9789  1.7462 -1.2261
10681TIP3    H253459   2.784   6.369   4.619 -0.1917 -2.1191  1.4071
10682TIP3   OH253460   3.398   4.432  17.185 -0.3515 -0.5238  0.1003
10682TIP3    H153461   3.341   4.365  17.224 -0.4531 -0.5147 -0.0318
10682TIP3    H253462   3.367   4.515  17.223 -2.2553 -0.1651 -2.0188
10683TIP3   OH253463   1.559   1.027   5.804  0.1578 -0.2267  0.1029
10683TIP3    H153464   1.651   1.038   5.781 -0.1285  0.2768 -0.8872
10683TIP3    H253465   1.520   0.986   5.726 -0.3677 -0.8830  0.6942
10684TIP3   OH253466   6.155   3.917   3.622  0.2059 -0.1350  0.4173
10684TIP3    H153467   6.226   3.952   3.675 -0.4187  0.6092  0.7885
10684TIP3    H253468   6.190   3.837   3.584  2.1478  1.5326 -1.5233
10685TIP3   OH253469   4.335   2.288  17.179  0.1256  0.1135 -0.2368
10685TIP3    H153470   4.315   2.224  17.111  0.6903  0.9707 -1.2252
10685TIP3    H253471   4.392   2.241  17.240 -1.2516 -0.9888  0.2542
10686TIP3   OH253472   2.420   2.645  14.431 -0.2322  0.1973 -0.2240
10686TIP3    H153473   2.438   2.713  14.366  0.6729  0.7623  0.6049
10686TIP3    H253474   2.459   2.677  14.512 -0.9344 -0.7176  0.4978
10687TIP3   OH253475   4.455   1.026   3.128  0.2533 -0.0018  0.5991
10687TIP3    H153476   4.524   0.960   3.119 -0.1400 -0.5583  1.5119
10687TIP3    H253477   4.496   1.108   3.099  1.7395 -0.0565  2.3964
10688TIP3   OH253478   1.760   4.463   5.155 -0.1206 -0.0660 -0.1357
10688TIP3    H153479   1.718   4.536   5.110 -0.4721 -0.8627 -1.1256
10688TIP3    H253480   1.688   4.417   5.199  0.2536  0.8934  1.5728
10689TIP3   OH253481   4.874   5.133   1.812  0.2523  0.3951  0.3244
10689TIP3    H153482   4.907   5.043   1.820 -0.0584  0.0429 -1.7409
10689TIP3    H253483   4.818   5.145   1.889 -0.6826 -1.6379  0.0395
10690TIP3   OH253484   0.435   2.688  13.950 -0.2806  0.5495 -0.2684
10690TIP3    H153485   0.473   2.619  13.896 -1.9880 -1.0489  0.4674
10690TIP3    H253486   0.510   2.730  13.992  0.8868  0.1268 -1.8571
10691TIP3   OH253487   6.630   4.693  13.601 -0.1778  0.5625 -0.3335
10691TIP3    H153488   6.539   4.673  13.579 -0.2056  1.6839 -1.3438
10691TIP3    H253489   6.653   4.766  13.544  2.3373 -1.6460 -2.3789
10692TIP3   OH253490   0.005   5.463  14.828 -0.1556  0.1630 -0.0913
10692TIP3    H153491  -0.064   5.420  14.778  0.6544 -0.4022 -0.7607
10692TIP3    H253492  -0.041   5.522  14.887 -1.1194  1.4969 -2.0963
10693TIP3   OH253493   1.092   6.249   2.441  0.0878 -0.3729 -0.0953
10693TIP3    H153494   1.187   6.244   2.438  0.0066 -1.7040 -1.3716
10693TIP3    H253495   1.064   6.163   2.470 -0.7436 -0.1391 -0.1808
10694TIP3   OH253496   6.393   4.062   4.231  0.1474 -0.0563 -0.2060
10694TIP3    H153497   6.317   4.016   4.196  0.6016 -1.1711  0.1949
10694TIP3    H253498   6.359   4.112   4.305 -0.3913  0.3945 -0.7506
10695TIP3   OH253499   2.464   5.475  16.145  0.6315  0.2045 -0.4612
10695TIP3    H153500   2.482   5.564  16.115  0.2491  0.0713 -1.1074
10695TIP3    H253501   2.543   5.450  16.194 -0.2037  1.7587  1.8310
10696TIP3   OH253502   4.359   0.426   1.093 -0.2585  0.3393  0.1328
10696TIP3    H153503   4.348   0.332   1.085 -2.6029  0.3762  1.9660
10696TIP3    H253504   4.293   0.464   1.035 -1.0278  0.7791  1.2527
10697TIP3   OH253505   6.746   1.832  11.656  0.2354 -0.6030  0.1657
10697TIP3    H153506   6.656   1.845  11.687  0.5488 -0.5034  1.0651
10697TIP3    H253507   6.788   1.783  11.726  0.5554 -1.7534 -0.8007
10698TIP3   OH253508   1.388   1.915   4.472  0.2413  0.3379 -0.4783
10698TIP3    H153509   1.302   1.956   4.477 -0.8090 -1.7281 -0.1219
10698TIP3    H253510   1.370   1.828   4.434  1.7034 -1.2046  2.0847
10699TIP3   OH253511   1.417   5.713  11.202  0.0299  0.1151  0.2614
10699TIP3    H153512   1.346   5.756  11.156 -0.2813  1.4809  1.9378
10699TIP3    H253513   1.493   5.723  11.144 -0.2987  1.9814  0.0862
10700TIP3   OH253514   2.748   6.610  16.106 -0.1251  0.0029  0.1567
10700TIP3    H153515   2.788   6.576  16.186 -0.6700 -0.2306  0.3347
10700TIP3    H253516   2.794   6.565  16.035  0.6409  0.5076  0.3120
10701TIP3   OH253517   2.031   3.174   3.739  0.8336 -0.9216 -0.4757
10701TIP3    H153518   2.018   3.178   3.644 -1.0374 -1.1148 -0.2677
10701TIP3    H253519   2.066   3.260   3.762  0.9274 -0.7356 -1.2881
10702TIP3   OH253520   0.812   2.724  16.355  0.2594 -0.0498 -0.2910
10702TIP3    H153521   0.726   2.766  16.368  1.3352  1.9516  0.8294
10702TIP3    H253522   0.874   2.797  16.352  2.1934 -1.5339  1.1061
10703TIP3   OH253523   0.564   3.609   1.352 -0.3064 -0.0867  0.2951
10703TIP3    H153524   0.602   3.615   1.440  0.0003 -1.0652  0.2457
10703TIP3    H253525   0.505   3.534   1.357  1.1106 -1.3365 -0.8186
10704TIP3   OH253526   4.232   5.222  15.844  0.6938  0.2231 -0.5443
10704TIP3    H153527   4.153   5.180  15.876 -0.1626  2.0072 -0.1647
10704TIP3    H253528   4.214   5.238  15.751  1.4874 -1.2228 -0.9752
10705TIP3   OH253529   4.019   1.259   6.441 -0.4030  0.3965 -0.1438
10705TIP3    H153530   4.061   1.263   6.527  1.1159  1.8888 -0.8925
10705TIP3    H253531   4.046   1.174   6.405 -1.8315 -0.6764  1.1667
10706TIP3   OH253532   1.921   4.165   1.121 -0.5181  0.1111  0.3140
10706TIP3    H153533   1.976   4.200   1.191 -1.6297  0.0234  1.2543
10706TIP3    H253534   1.924   4.233   1.053  0.0741  0.4775  0.6957
10707TIP3   OH253535   2.566   1.956   2.753  0.0674  0.3004  0.3158
10707TIP3    H153536   2.629   1.894   2.717  0.7166  1.1913 -0.1076
10707TIP3    H253537   2.485   1.906   2.761  0.7029 -0.7344  0.4373
10708TIP3   OH253538   2.594   0.909  11.192 -0.2779 -0.6060  0.4049
10708TIP3    H153539   2.538   0.951  11.257  1.1964  0.4375  1.0516
10708TIP3    H253540   2.589   0.967  11.116 -0.9335 -1.1053  0.0596
10709TIP3   OH253541   3.186   2.370  11.200 -0.1779  0.2830 -0.7091
10709TIP3    H153542   3.281   2.364  11.190 -0.0813  1.7924 -0.8378
10709TIP3    H253543   3.158   2.430  11.131 -1.5348 -1.8821 -2.1638
10710TIP3   OH253544   0.712   5.430  11.158  0.5804 -0.2384 -0.1852
10710TIP3    H153545   0.675   5.458  11.074  0.5838 -1.0175 -0.4607
10710TIP3    H253546   0.637   5.395  11.207  0.7049 -0.5023 -0.1782
10711TIP3   OH253547   3.975   2.409   5.462 -0.3831  0.4832 -0.3599
10711TIP3    H153548   3.974   2.452   5.548 -0.6269  1.5502 -0.8761
10711TIP3    H253549   3.998   2.479   5.401 -0.1729 -0.2738 -1.1662
10712TIP3   OH253550   3.769   1.389  14.672  0.3972 -0.0502 -0.1863
10712TIP3    H153551   3.757   1.414  14.580 -0.6099 -1.8253 -0.5869
10712TIP3    H253552   3.710   1.314  14.684  0.4138  0.2313  1.9514
10713TIP3   OH253553   1.094   3.242   4.329  0.0604  0.1372 -0.0826
10713TIP3    H153554   1.144   3.161   4.322 -2.3400 -1.4263 -0.3881
10713TIP3    H253555   1.092   3.261   4.423 -0.0907 -0.6437  0.0731
10714TIP3   OH253556   2.997   0.443  11.340 -0.4567  0.0280  0.0372
10714TIP3    H153557   2.965   0.355  11.322 -1.8253  0.6278 -0.6327
10714TIP3    H253558   3.070   0.454  11.280  0.8569 -1.2470  1.3371
10715TIP3   OH253559   5.063   1.073   5.038  0.2939 -1.0495  0.3504
10715TIP3    H153560   5.023   1.159   5.048  0.8372 -0.8494  0.8636
10715TIP3    H253561   4.995   1.020   4.996  0.2016 -0.1934 -0.6259
10716TIP3   OH253562   6.127   1.649  14.935  0.2129 -0.3788  0.2744
10716TIP3    H153563   6.182   1.722  14.965  0.3939 -0.1365 -0.6262
10716TIP3    H253564   6.061   1.690  14.878  1.2666 -1.0808 -1.5222
10717TIP3   OH253565   1.843   1.239   3.805  0.1959  0.3032 -0.2490
10717TIP3    H153566   1.764   1.288   3.829 -0.1915 -0.4202  0.0012
10717TIP3    H253567   1.847   1.168   3.869  1.8785  1.1700  0.6694
10718TIP3   OH253568   0.172   3.313   2.863 -0.1471  0.5534 -0.2742
10718TIP3    H153569   0.183   3.408   2.873 -0.9115  0.5140  1.0555
10718TIP3    H253570   0.129   3.304   2.777 -0.4985  1.4418 -0.2093
10719TIP3   OH253571   5.672   5.073   2.319 -0.3045  0.5820 -0.0449
10719TIP3    H153572   5.629   4.990   2.296 -2.4738  1.6973 -0.2514
10719TIP3    H253573   5.665   5.125   2.239  1.9655  0.6466 -0.2433
10720TIP3   OH253574   3.938   3.794   3.113 -0.0403 -0.2059 -0.3319
10720TIP3    H153575   3.944   3.740   3.035 -2.0597 -1.1445  0.1042
10720TIP3    H253576   3.952   3.884   3.082  1.1945 -0.7389 -1.4047
10721TIP3   OH253577   2.229   1.002  13.407 -0.2440  0.1734 -0.7212
10721TIP3    H153578   2.293   0.956  13.352 -0.2071  1.3063 -1.6799
10721TIP3    H253579   2.187   1.064  13.347 -0.0477  1.6177  0.5751
10722TIP3   OH253580   3.500   2.575  16.535  0.1006 -0.8560  0.2923
10722TIP3    H153581   3.546   2.499  16.498  1.1821 -0.4994  0.8439
10722TIP3    H253582   3.570   2.631  16.569 -0.6201  0.7729 -0.7860
10723TIP3   OH253583   0.269   4.672  15.670 -0.0285  0.1839 -0.1289
10723TIP3    H153584   0.307   4.607  15.729 -0.0718  0.6325  0.4055
10723TIP3    H253585   0.210   4.723  15.725  1.1346  1.6481 -0.1778
10724TIP3   OH253586   3.099   4.528  17.174  0.9373 -0.2980 -0.2511
10724TIP3    H153587   3.148   4.592  17.122 -0.9037  0.6038 -0.9508
10724TIP3    H253588   3.118   4.444  17.132 -1.3472  0.4976 -3.2271
10725TIP3   OH253589   6.004   2.483   0.785  0.0092  0.7144 -0.1700
10725TIP3    H153590   5.962   2.489   0.700  1.8262  1.7934 -1.0563
10725TIP3    H253591   6.097   2.469   0.765  0.4150  0.5728  1.6280
10726TIP3   OH253592   6.209   0.631  16.209 -0.0742 -0.0837 -0.1600
10726TIP3    H153593   6.273   0.564  16.235 -2.5393 -1.7896  2.0004
10726TIP3    H253594   6.139   0.581  16.166 -1.3378  1.3043  0.2212
10727TIP3   OH253595   6.620   3.321  10.436  0.5908 -0.1403  0.1903
10727TIP3    H153596   6.665   3.313  10.352 -2.6676 -0.2015 -1.7671
10727TIP3    H253597   6.633   3.412  10.462 -0.7438  0.7873 -2.0416
10728TIP3   OH253598   6.643   1.667  12.767 -0.6725  1.0658  0.1991
10728TIP3    H153599   6.621   1.708  12.683 -0.9699  0.5349  0.0142
10728TIP3    H253600   6.595   1.718  12.832 -1.3535  0.7686 -0.0669
10729TIP3   OH253601   5.976   4.807  16.453 -0.0951 -0.0230  0.5023
10729TIP3    H153602   6.055   4.757  16.472 -0.1647 -1.0578 -1.5816
10729TIP3    H253603   5.905   4.754  16.489  0.0873  0.6713  1.9500
10730TIP3   OH253604   4.795   6.243  12.625 -0.0518  0.1420  0.0358
10730TIP3    H153605   4.847   6.319  12.598 -0.8796  0.8259  0.3261
10730TIP3    H253606   4.851   6.168  12.607 -0.2482  0.5766 -2.9452
10731TIP3   OH253607   1.834   4.294   4.934  0.8463 -0.2668 -0.8312
10731TIP3    H153608   1.828   4.198   4.941 -1.3732 -0.0563  2.2689
10731TIP3    H253609   1.811   4.325   5.022  1.4812  3.1530 -1.7550
10732TIP3   OH253610   3.200   5.797  12.165  0.1562 -0.1105  0.2233
10732TIP3    H153611   3.193   5.805  12.070 -0.1107  1.1486  0.3392
10732TIP3    H253612   3.214   5.703  12.180 -0.2288 -0.3806 -1.0234
10733TIP3   OH253613   5.769   0.628   0.391  0.1281  0.2916 -0.1000
10733TIP3    H153614   5.838   0.597   0.333 -0.8663  3.0557 -3.0582
10733TIP3    H253615   5.691   0.578   0.363 -0.6618  2.5663 -2.3419
10734TIP3   OH253616   2.315   2.917  13.394 -0.3853  0.6789 -0.4306
10734TIP3    H153617   2.301   2.916  13.488 -2.5412 -0.3189 -0.6981
10734TIP3    H253618   2.256   2.986  13.362  0.7574  1.4159 -1.0186
10735TIP3   OH253619   3.597   6.678  15.333  0.0778 -0.3483  0.2799
10735TIP3    H153620   3.635   6.715  15.253  1.1320 -0.6790  0.6084
10735TIP3    H253621   3.617   6.585  15.328  0.1023 -0.3818  0.9026
10736TIP3   OH253622   3.508   0.817  14.053  0.5735 -0.3364 -0.9090
10736TIP3    H153623   3.581   0.764  14.023  2.0984  1.6133 -0.8605
10736TIP3    H253624   3.491   0.878  13.982 -1.4753 -1.1267 -1.1753
10737TIP3   OH253625   0.175   4.759  16.894  0.1844  0.6722 -0.0550
10737TIP3    H153626   0.200   4.671  16.867 -2.5349  0.6250 -3.0890
10737TIP3    H253627   0.250   4.814  16.871  1.2677 -0.5857  0.3406
10738TIP3   OH253628   6.535   2.232  15.869  0.5410  0.0166 -0.3313
10738TIP3    H153629   6.628   2.208  15.874  0.5435 -0.2641 -1.4449
10738TIP3    H253630   6.489   2.148  15.868  0.3432  0.1260 -0.8290
10739TIP3   OH253631   0.513   2.740  11.445 -0.2893 -0.2965  0.6250
10739TIP3    H153632   0.560   2.799  11.504  2.4344 -1.5959 -0.0882
10739TIP3    H253633   0.474   2.675  11.503 -0.9547  0.6290  1.2287
10740TIP3   OH253634   4.621   0.817   4.644 -0.2129 -0.8018 -0.0246
10740TIP3    H153635   4.664   0.852   4.722  0.8192  0.4766 -1.1044
10740TIP3    H253636   4.659   0.730   4.631 -1.5146 -1.6878  1.7098
10741TIP3   OH253637   2.280   0.977  12.149  0.4871 -0.0473 -0.1039
10741TIP3    H153638   2.276   1.042  12.219 -0.5168  1.4090 -1.4452
10741TIP3    H253639   2.372   0.977  12.123  0.5248  0.7824 -0.0131
10742TIP3   OH253640   6.179   4.898   3.731 -0.4275  0.1590  0.2628
10742TIP3    H153641   6.272   4.875   3.738 -0.3882  0.0099 -0.6094
10742TIP3    H253642   6.177   4.994   3.733 -0.2511  0.1629  0.2341
10743TIP3   OH253643   0.182   3.343  12.611 -0.1985 -0.4353  0.1644
10743TIP3    H153644   0.259   3.288  12.598 -0.6317 -0.9259 -0.3738
10743TIP3    H253645   0.163   3.380  12.524 -1.2016 -1.1718  0.0531
10744TIP3   OH253646   5.050   6.175  14.139  0.1867  0.2022 -0.0760
10744TIP3    H153647   5.092   6.255  14.170  0.2913 -0.3948  1.3905
10744TIP3    H253648   5.104   6.146  14.065  1.0714  0.6206  0.3916
10745TIP3   OH253649   2.754   1.006  11.874 -0.2748  0.2531 -0.3859
10745TIP3    H153650   2.722   1.021  11.785  2.2905  0.2853 -1.3942
10745TIP3    H253651   2.846   1.034  11.871 -0.1245  0.2816  2.2977
10746TIP3   OH253652   2.734   0.043   4.941 -0.2036  0.3904  0.1419
10746TIP3    H153653   2.702   0.090   5.017  1.9491  0.8246  0.8614
10746TIP3    H253654   2.823   0.077   4.928  0.7269 -2.0688 -0.4950
10747TIP3   OH253655   2.994   3.733  14.634 -0.0970 -0.3998  0.1659
10747TIP3    H153656   2.923   3.698  14.688 -0.4959 -0.8474 -0.6231
10747TIP3    H253657   2.968   3.713  14.544  0.2068  0.9689 -0.2478
10748TIP3   OH253658   1.977   6.327  14.694 -0.1564 -0.4968  0.5691
10748TIP3    H153659   2.031   6.304  14.769 -0.0755 -2.7350 -0.0965
10748TIP3    H253660   1.897   6.276  14.706  0.2151 -1.6012 -1.2557
10749TIP3   OH253661   2.140   0.384  11.773 -0.1297 -0.0620 -0.0611
10749TIP3    H153662   2.191   0.306  11.797  1.6019  0.6833 -1.1018
10749TIP3    H253663   2.154   0.445  11.846 -0.3025 -0.1883  0.0798
10750TIP3   OH253664   5.920   1.742  16.678  0.3463 -0.3075 -0.8858
10750TIP3    H153665   5.913   1.685  16.755 -0.6927 -0.4068 -1.0456
10750TIP3    H253666   6.009   1.728  16.647  0.3099 -1.3758 -0.5532
10751TIP3   OH253667   2.620   1.614  15.973 -0.0101  0.3132 -0.7639
10751TIP3    H153668   2.698   1.560  15.981  0.0892  0.1977 -2.3437
10751TIP3    H253669   2.654   1.704  15.971  0.0725  0.2686 -1.3465
10752TIP3   OH253670   1.092   2.908  11.540  0.2505 -0.0279  0.2622
10752TIP3    H153671   1.001   2.919  11.512 -0.2375 -1.4763  1.1780
10752TIP3    H253672   1.114   2.989  11.586 -0.1640  0.8121 -0.9486
10753TIP3   OH253673   3.716   1.377   0.868  0.1934  0.6658 -0.7569
10753TIP3    H153674   3.663   1.454   0.846  1.2860  1.3976 -0.9042
10753TIP3    H253675   3.679   1.307   0.814 -0.2314  1.3019 -1.3210
10754TIP3   OH253676   4.685   0.461   3.203 -0.0186 -0.1209  0.3636
10754TIP3    H153677   4.732   0.495   3.279  0.7459 -0.0729 -0.1243
10754TIP3    H253678   4.660   0.539   3.154  0.7509 -0.2078 -0.1752
10755TIP3   OH253679   2.245   6.037  14.632  0.3949 -0.3708 -0.3642
10755TIP3    H153680   2.179   6.088  14.586 -0.4337 -0.5324  0.6164
10755TIP3    H253681   2.286   5.984  14.563 -0.0641  0.1880 -1.0804
10756TIP3   OH253682   5.064   6.323   5.493  0.1057 -0.1999 -0.1114
10756TIP3    H153683   5.137   6.364   5.446 -0.4230  0.6309 -0.2368
10756TIP3    H253684   5.006   6.291   5.424 -1.2186  1.9958 -0.1062
10757TIP3   OH253685   2.406   5.397  16.861  0.4112  0.2034  0.4608
10757TIP3    H153686   2.387   5.486  16.891  1.9497  0.4090  0.9079
10757TIP3    H253687   2.368   5.392  16.773  1.0594  1.5990  0.0757
10758TIP3   OH253688   6.550   3.713   4.906  0.5694 -0.0649 -0.6004
10758TIP3    H153689   6.607   3.728   4.830 -0.1836  2.7397 -0.7414
10758TIP3    H253690   6.475   3.666   4.872  0.9274 -0.1580 -1.2711
10759TIP3   OH253691   1.948   4.677  13.327  0.3371 -0.0581 -0.7251
10759TIP3    H153692   1.913   4.713  13.409  0.4583 -2.2889  0.3939
10759TIP3    H253693   1.877   4.688  13.264 -0.1123  0.8603 -0.0807
10760TIP3   OH253694   0.232   0.354  11.433  0.2363 -0.6548  0.2528
10760TIP3    H153695   0.159   0.347  11.372 -0.4325 -1.0764  1.0804
10760TIP3    H253696   0.303   0.392  11.381 -0.5990 -0.1237 -0.5297
10761TIP3   OH253697   1.444   0.798   4.301  0.1373 -0.3645  0.7905
10761TIP3    H153698   1.490   0.740   4.241  0.5405  1.7131 -1.0629
10761TIP3    H253699   1.454   0.885   4.262 -2.5941  0.6284  2.0334
10762TIP3   OH253700   5.141   2.736  13.949  0.3174 -0.3823 -0.3547
10762TIP3    H153701   5.113   2.801  13.885  0.8693 -0.3732 -0.5866
10762TIP3    H253702   5.220   2.773  13.989 -1.3975  0.8362  2.1942
10763TIP3   OH253703   4.808   1.495  12.763 -0.1972 -0.2281  0.2851
10763TIP3    H153704   4.825   1.453  12.679  0.1349  0.9421 -0.2638
10763TIP3    H253705   4.842   1.584  12.752  1.7320 -0.6379  2.3586
10764TIP3   OH253706   0.635   3.808   0.051 -0.0713 -0.8173  0.3231
10764TIP3    H153707   0.631   3.904   0.047  1.7829 -0.6293  1.6801
10764TIP3    H253708   0.669   3.782  -0.035  0.8649 -0.1247  0.4671
10765TIP3   OH253709   2.932   1.456  17.196 -0.2687  0.5206  0.5762
10765TIP3    H153710   2.891   1.409  17.269 -0.1451  0.5485  0.6634
10765TIP3    H253711   2.944   1.545  17.228  0.9036  0.2427  0.9717
10766TIP3   OH253712   6.728   6.697  11.735 -0.4282  0.1686  0.5430
10766TIP3    H153713   6.749   6.788  11.712 -0.9987  0.5721  1.5526
10766TIP3    H253714   6.632   6.694  11.736 -0.4373 -0.7690 -0.6618
10767TIP3   OH253715   2.593   4.340  10.984  0.1374  0.2996 -0.2769
10767TIP3    H153716   2.584   4.275  10.914  0.2171  1.4502 -1.3929
10767TIP3    H253717   2.678   4.381  10.968  0.5740 -0.0467  1.0637
10768TIP3   OH253718   3.224   1.714   1.687 -0.0184  0.5223 -0.4470
10768TIP3    H153719   3.216   1.750   1.776  2.6406  0.7289 -0.1949
10768TIP3    H253720   3.181   1.629   1.692 -2.5270  1.7371  0.1733
10769TIP3   OH253721   4.668   4.774   6.513 -0.2668  0.3863  0.0932
10769TIP3    H153722   4.645   4.754   6.422 -0.2700 -0.4222  0.2602
10769TIP3    H253723   4.732   4.845   6.507 -0.5929  0.6346 -0.5153
10770TIP3   OH253724   4.698   3.793  13.674 -0.5120  0.2194 -0.5379
10770TIP3    H153725   4.753   3.779  13.597  0.2001  0.4373 -0.0736
10770TIP3    H253726   4.626   3.848  13.643 -0.3258  0.1608 -1.0811
10771TIP3   OH253727   6.543   3.628   3.581 -0.4537  0.1330 -0.3267
10771TIP3    H153728   6.630   3.591   3.596 -0.8663 -0.2345  1.3222
10771TIP3    H253729   6.512   3.584   3.501  0.9729  0.5098 -1.1325
10772TIP3   OH253730   5.765   3.809   2.226  0.3591 -0.2324 -0.2817
10772TIP3    H153731   5.746   3.876   2.161  2.4122  1.1595  0.4411
10772TIP3    H253732   5.774   3.857   2.309  0.5694 -1.5706  0.5054
10773TIP3   OH253733   2.538   2.022  12.865  0.2249 -0.0280  0.2268
10773TIP3    H153734   2.631   2.013  12.842  0.6251  0.3304  1.6097
10773TIP3    H253735   2.539   2.070  12.948 -1.1356 -1.1174  0.9003
10774TIP3   OH253736   3.975   2.258  12.434 -0.2858 -0.2533  0.4005
10774TIP3    H153737   3.904   2.270  12.371 -1.3198  0.0941  1.5914
10774TIP3    H253738   4.038   2.203  12.389 -0.8131  0.2984 -1.0746
10775TIP3   OH253739   4.258   5.541   0.038 -0.1170 -0.4306  0.4006
10775TIP3    H153740   4.320   5.478   0.001  1.0716  0.4588  0.8065
10775TIP3    H253741   4.214   5.493   0.108 -1.9258 -1.9345 -1.6424
10776TIP3   OH253742   0.065   2.243   6.733 -0.3454 -0.0505 -0.2362
10776TIP3    H153743   0.015   2.323   6.749  0.5137  0.2293  1.2852
10776TIP3    H253744   0.119   2.262   6.656 -1.8177 -0.0170 -1.2961
10777TIP3   OH253745   3.230   5.365  13.896  0.2440 -0.2519 -0.1054
10777TIP3    H153746   3.326   5.368  13.887  0.4108 -1.6148  0.9109
10777TIP3    H253747   3.210   5.436  13.957  0.7432 -0.6196  0.5038
10778TIP3   OH253748   2.591   3.493   0.788  0.0340  0.2432  0.7174
10778TIP3    H153749   2.597   3.562   0.855  2.4956  1.5418 -0.6985
10778TIP3    H253750   2.553   3.538   0.712  3.8338  0.9029 -1.0229
10779TIP3   OH253751   4.412   4.832   5.853 -0.1405 -0.0586  0.3328
10779TIP3    H153752   4.472   4.870   5.789  0.1945 -1.0999  0.0020
10779TIP3    H253753   4.462   4.760   5.891 -0.3103  0.5872  1.8304
10780TIP3   OH253754   5.451   2.206   2.877 -0.0189  0.9829  0.8113
10780TIP3    H153755   5.377   2.249   2.920 -1.1169  1.5489 -1.4784
10780TIP3    H253756   5.528   2.236   2.926 -1.1961  1.1446  2.6493
10781TIP3   OH253757   1.593   0.386  10.677  0.2940  0.4589 -0.5790
10781TIP3    H153758   1.669   0.442  10.685 -0.0001  0.8881 -0.7664
10781TIP3    H253759   1.627   0.305  10.640  0.5252  0.9502 -1.4582
10782TIP3   OH253760   6.071   0.609   4.337 -0.4793  0.2621 -0.3391
10782TIP3    H153761   5.979   0.605   4.360 -0.5018  0.5096 -0.3848
10782TIP3    H253762   6.099   0.697   4.363  0.2691 -0.5014  1.6628
10783TIP3   OH253763   4.076   4.117  16.384 -0.1750  0.0298  0.1355
10783TIP3    H153764   4.167   4.145  16.375  0.0925 -0.0470  2.0809
10783TIP3    H253765   4.027   4.178  16.329  0.7121  2.4650  1.8506
10784TIP3   OH253766   4.493   6.013   5.881 -0.9618  0.1938 -0.0275
10784TIP3    H153767   4.495   6.092   5.827 -2.5681 -0.2386 -0.7665
10784TIP3    H253768   4.408   6.015   5.924 -0.3319 -0.2822  1.2949
10785TIP3   OH253769   6.373   0.244   4.782  0.3221 -0.2770  0.3001
10785TIP3    H153770   6.293   0.255   4.731  0.7211  0.2513 -0.2131
10785TIP3    H253771   6.358   0.296   4.861  0.2081 -0.0777  0.1487
10786TIP3   OH253772   0.788   5.161   3.675 -0.1444 -0.1776 -0.1250
10786TIP3    H153773   0.844   5.207   3.737  0.0251  0.2723 -0.6070
10786TIP3    H253774   0.708   5.213   3.671 -0.3859 -0.5222  0.1486
10787TIP3   OH253775   3.029   0.397  13.222  0.3874 -0.1101  0.2318
10787TIP3    H153776   3.101   0.343  13.191  1.1191  0.9983 -0.0523
10787TIP3    H253777   3.012   0.365  13.311  0.3465 -1.2314 -0.1552
10788TIP3   OH253778   3.849   5.539  12.872 -0.5574 -0.0071 -0.3279
10788TIP3    H153779   3.764   5.499  12.890 -0.9401  1.3383  1.1343
10788TIP3    H253780   3.830   5.610  12.811 -0.3835 -0.0931 -0.4829
10789TIP3   OH253781   1.657   2.883  12.055  0.7710  0.2117  0.0180
10789TIP3    H153782   1.702   2.878  11.971  3.1577 -0.8337  1.2529
10789TIP3    H253783   1.671   2.797  12.095  2.0565  1.4902  2.5693
10790TIP3   OH253784   1.868   4.177   4.538  0.7933  0.4518 -0.5072
10790TIP3    H153785   1.837   4.156   4.450 -0.5165 -1.0412  0.2411
10790TIP3    H253786   1.959   4.148   4.540  0.4948 -0.5576 -1.0466
10791TIP3   OH253787   2.788   2.329  16.281  0.1151 -0.2740 -0.1661
10791TIP3    H153788   2.719   2.375  16.327  1.0310 -1.0115  2.1084
10791TIP3    H253789   2.854   2.312  16.348  2.0312 -0.5280 -2.0049
10792TIP3   OH253790   1.718   5.113  13.411  0.8058  0.0879  0.4785
10792TIP3    H153791   1.722   5.183  13.347  1.1534  0.0501  0.4568
10792TIP3    H253792   1.646   5.138  13.470  0.4801  0.1191  0.0762
10793TIP3   OH253793   5.082   5.593  16.950  0.0910  0.1451 -0.1436
10793TIP3    H153794   5.163   5.630  16.914 -0.5282 -0.8436 -2.7869
10793TIP3    H253795   5.111   5.540  17.024  2.1840 -1.6018 -2.0400
10794TIP3   OH253796   2.510   4.994   4.998  0.7934 -0.0012 -0.2761
10794TIP3    H153797   2.453   4.970   4.925  0.5315 -0.4727  0.0761
10794TIP3    H253798   2.547   5.078   4.973  0.5970 -0.0922 -0.8896
10795TIP3   OH253799   1.587   1.456   0.671  0.1244 -0.5777 -0.3627
10795TIP3    H153800   1.605   1.445   0.764  1.7938 -0.5470 -0.6497
10795TIP3    H253801   1.672   1.448   0.629 -0.6693 -1.1538 -1.9547
10796TIP3   OH253802   3.096   3.201   4.741 -0.2018  0.4858 -0.4766
10796TIP3    H153803   3.083   3.232   4.651 -1.4278  0.2188 -0.4007
10796TIP3    H253804   3.014   3.158   4.764  0.5248 -0.4946  0.3682
10797TIP3   OH253805   1.344   3.445   1.067  0.7426  0.2656  0.3955
10797TIP3    H153806   1.420   3.438   1.010 -0.3322  1.2546 -1.2360
10797TIP3    H253807   1.340   3.537   1.092 -0.1918  0.3299  0.0551
10798TIP3   OH253808   3.760   4.053  13.080  0.5472 -0.2801  0.1083
10798TIP3    H153809   3.811   3.978  13.110  2.9610  0.7198 -1.1696
10798TIP3    H253810   3.685   4.015  13.034  0.3272 -1.8239  1.6369
10799TIP3   OH253811   5.351   2.170  15.668 -0.4000  0.0034 -0.3884
10799TIP3    H153812   5.258   2.170  15.644 -0.7034  0.1925  0.6954
10799TIP3    H253813   5.354   2.224  15.747  0.7091  0.3491 -0.6593
10800TIP3   OH253814   3.947   3.060  13.176  0.4009 -0.0600  0.2621
10800TIP3    H153815   3.993   3.125  13.230  0.9510 -1.0463  1.0336
10800TIP3    H253816   4.004   3.047  13.100  1.4150 -1.2127  1.1712
10801TIP3   OH253817   2.451   1.266  13.777  0.2919 -0.1556 -0.2722
10801TIP3    H153818   2.467   1.349  13.732  1.1760 -0.9703 -1.5351
10801TIP3    H253819   2.385   1.222  13.724  0.6123 -0.7044 -0.2262
10802TIP3   OH253820   2.697   1.029   1.942 -0.5408 -0.1853  0.1245
10802TIP3    H153821   2.733   1.031   1.853 -1.5811  1.3922 -0.3157
10802TIP3    H253822   2.677   1.121   1.961 -2.7893 -0.7807  0.9370
10803TIP3   OH253823   3.877   4.793  11.462 -0.1884 -0.3037 -0.6985
10803TIP3    H153824   3.829   4.710  11.459 -0.5572 -0.0657 -1.9588
10803TIP3    H253825   3.844   4.842  11.387  1.5706  0.1391 -1.2203
10804TIP3   OH253826   2.590   1.262  12.601 -0.0370  0.0126  0.1226
10804TIP3    H153827   2.579   1.170  12.626  1.7993 -0.6839 -1.3648
10804TIP3    H253828   2.565   1.265  12.509  0.2316  0.9232  0.0699
10805TIP3   OH253829   0.808   0.138  17.130  0.3609 -0.2694  0.0892
10805TIP3    H153830   0.853   0.218  17.103  1.7209 -0.7586  0.7862
10805TIP3    H253831   0.866   0.067  17.100 -0.7629 -1.0054 -0.4264
10806TIP3   OH253832   5.220   1.515   3.016 -0.6690  0.3474  0.2464
10806TIP3    H153833   5.141   1.565   3.034 -0.8938 -0.1185  0.5603
10806TIP3    H253834   5.255   1.554   2.936  0.0187  2.0485  1.3205
10807TIP3   OH253835   5.070   1.079  15.315  0.8636 -0.0073 -0.1721
10807TIP3    H153836   5.066   1.144  15.244  0.6483  1.4964  1.1586
10807TIP3    H253837   4.979   1.067  15.341  1.1048  1.6653  1.7139
10808TIP3   OH253838   5.018   5.280   2.938  0.5681  0.0086 -0.0230
10808TIP3    H153839   4.927   5.254   2.927  0.5833  0.7983 -2.7758
10808TIP3    H253840   5.063   5.243   2.862  2.8242 -1.2909  1.8235
10809TIP3   OH253841   6.250   1.607  14.354 -0.7920  0.4763 -0.5692
10809TIP3    H153842   6.201   1.678  14.313 -0.2765 -0.4559 -2.9907
10809TIP3    H253843   6.312   1.651  14.412 -0.6465  2.0263 -1.8154
10810TIP3   OH253844   2.271   5.011   0.780  0.3479 -0.0721 -0.2565
10810TIP3    H153845   2.274   4.955   0.703 -0.9673  0.9119 -1.0464
10810TIP3    H253846   2.199   5.071   0.765  0.3011  0.4145  1.5724
10811TIP3   OH253847   3.901   6.588  15.969 -0.0706  0.0038  0.0201
10811TIP3    H153848   3.837   6.614  15.902  0.8726  1.8907 -0.2252
10811TIP3    H253849   3.849   6.579  16.049 -1.1189 -1.7094 -0.8095
10812TIP3   OH253850   0.037   5.894  14.637 -0.6400  0.0152 -0.2008
10812TIP3    H153851   0.015   5.809  14.598  0.2658 -1.3126  1.9876
10812TIP3    H253852   0.058   5.950  14.562  1.1813 -2.4066 -1.6355
10813TIP3   OH253853   4.782   2.268  15.553 -0.1099 -0.6497  0.0345
10813TIP3    H153854   4.859   2.213  15.563  0.7472  0.3131 -0.9603
10813TIP3    H253855   4.782   2.324  15.630 -0.4584 -1.3984  0.5871
10814TIP3   OH253856   6.578   0.356   2.027 -0.3876 -0.3572 -0.2960
10814TIP3    H153857   6.650   0.335   2.087 -0.1222  1.7161  0.1963
10814TIP3    H253858   6.534   0.272   2.012 -1.0442 -0.8926  3.5623
10815TIP3   OH253859   3.360   3.275  12.515  0.4252 -0.2956  0.3467
10815TIP3    H153860   3.290   3.293  12.452 -1.4543 -0.9448  2.1227
10815TIP3    H253861   3.378   3.360  12.556 -0.3355 -0.3571  0.8331
10816TIP3   OH253862   3.951   1.655  12.668 -0.7738 -0.5958 -0.0873
10816TIP3    H153863   3.983   1.727  12.613 -1.8257  0.1322  0.2268
10816TIP3    H253864   3.910   1.594  12.606 -0.6991 -0.4723 -0.2588
10817TIP3   OH253865   3.908   1.698   3.807 -0.1155 -0.8040  1.1551
10817TIP3    H153866   3.920   1.684   3.901  0.1379  0.7855  1.3869
10817TIP3    H253867   3.983   1.752   3.782 -0.9985  0.0647  0.3515
10818TIP3   OH253868   1.785   3.134  15.992 -0.1936 -0.1580  0.0937
10818TIP3    H153869   1.741   3.051  15.976  0.1355 -0.0566 -1.5447
10818TIP3    H253870   1.875   3.119  15.962 -0.1125  0.7565 -0.1401
10819TIP3   OH253871   4.302   2.660   1.013  0.0825 -0.1296 -0.3548
10819TIP3    H153872   4.277   2.700   1.096  0.9362 -1.4454  0.5776
10819TIP3    H253873   4.270   2.721   0.946 -0.0791  1.2608  0.9387
10820TIP3   OH253874   0.059   2.415  13.117 -0.1353 -0.7402  0.8100
10820TIP3    H153875  -0.000   2.419  13.192 -2.1687  1.9508 -0.7339
10820TIP3    H253876   0.020   2.350  13.059 -0.6294 -0.2314  0.5598
10821TIP3   OH253877   4.286   6.538  15.763 -0.0208  0.1984  0.7816
10821TIP3    H153878   4.323   6.590  15.835 -0.3313  0.7981  0.5210
10821TIP3    H253879   4.320   6.450  15.776  1.4307  0.7101  0.5916
10822TIP3   OH253880   2.801   5.324  14.768  0.5294  0.1382 -0.0871
10822TIP3    H153881   2.785   5.233  14.745 -1.3964  0.4351 -0.0882
10822TIP3    H253882   2.843   5.320  14.854 -0.3231 -0.7448  0.3013
10823TIP3   OH253883   0.015   6.636  11.223  0.1228 -0.5871  0.0371
10823TIP3    H153884  -0.067   6.639  11.271  1.3709  0.4563  2.2810
10823TIP3    H253885   0.069   6.704  11.264  0.9805  1.1466 -3.5994
10824TIP3   OH253886   0.615   4.905   4.566  0.3339  0.6766 -0.2066
10824TIP3    H153887   0.695   4.957   4.571  0.1671  1.0484 -1.2534
10824TIP3    H253888   0.630   4.832   4.626  2.3738 -0.4896 -2.0167
10825TIP3   OH253889   2.493   6.293  16.328 -0.0561 -0.3556 -0.2472
10825TIP3    H153890   2.559   6.319  16.393 -1.0965  1.7409  0.0654
10825TIP3    H253891   2.544   6.273  16.249  0.9897  1.0186  0.0398
10826TIP3   OH253892   2.915   6.551   3.446  0.6605  0.0609  0.2788
10826TIP3    H153893   3.005   6.561   3.417  0.6734  0.1705  0.3563
10826TIP3    H253894   2.892   6.636   3.485 -0.4068  1.0435 -2.2695
10827TIP3   OH253895   0.977   5.892   6.521 -0.0645  0.4426  0.6195
10827TIP3    H153896   1.026   5.818   6.485 -0.0537  0.1481  1.2272
10827TIP3    H253897   1.045   5.952   6.553 -0.0811  0.4749  0.5941
10828TIP3   OH253898   3.381   1.069   4.477 -0.0639 -0.5267 -0.1503
10828TIP3    H153899   3.474   1.043   4.478  0.0436 -0.1422 -0.0249
10828TIP3    H253900   3.334   0.987   4.489  0.2881 -0.6386  0.5796
10829TIP3   OH253901   2.293   5.459  14.202  0.1848 -0.1186  0.4115
10829TIP3    H153902   2.332   5.443  14.117 -0.2206 -1.0477  0.3969
10829TIP3    H253903   2.250   5.544  14.193 -2.9810 -1.7311 -1.5019
10830TIP3   OH253904   3.443   6.625  13.483  0.4527 -0.4175 -0.8373
10830TIP3    H153905   3.524   6.581  13.507  0.2627  0.0824  0.8180
10830TIP3    H253906   3.386   6.615  13.559  0.2876  2.4022 -0.4845
10831TIP3   OH253907   2.841   6.266   1.160 -0.5233  0.1911  0.0930
10831TIP3    H153908   2.864   6.190   1.212 -1.9474 -0.9527 -0.8646
10831TIP3    H253909   2.763   6.302   1.203 -1.2060 -0.2667 -0.7276
10832TIP3   OH253910   5.520   3.544   0.403  0.3675 -0.2595 -0.0380
10832TIP3    H153911   5.495   3.547   0.311  0.2906  1.5990  0.0208
10832TIP3    H253912   5.446   3.503   0.447 -1.1935  2.1156 -0.3306
10833TIP3   OH253913   0.950   3.050   0.647 -0.6937 -0.4347 -0.1723
10833TIP3    H153914   0.860   3.081   0.647 -0.9088 -0.9169 -2.2488
10833TIP3    H253915   0.946   2.965   0.691 -1.2248 -0.4041 -0.1631
10834TIP3   OH253916   2.085   0.194   3.290 -0.1272 -1.1763 -0.2977
10834TIP3    H153917   2.072   0.256   3.218 -0.3662 -0.3723  0.4321
10834TIP3    H253918   2.098   0.110   3.246  2.5876 -0.2834 -1.3980
10835TIP3   OH253919   2.674   6.553   3.256 -0.0400 -0.1425 -0.0854
10835TIP3    H153920   2.623   6.611   3.312 -1.8339 -2.8224  1.3004
10835TIP3    H253921   2.762   6.556   3.293  0.0259  1.8874 -0.2848
10836TIP3   OH253922   2.186   0.113  12.186 -0.2783 -1.0825 -0.4598
10836TIP3    H153923   2.147   0.087  12.269  0.0753 -2.0019 -0.5775
10836TIP3    H253924   2.137   0.192  12.161 -0.9356 -1.2634  0.2120
10837TIP3   OH253925   4.159   3.706  13.080 -0.3776 -0.1642 -0.0189
10837TIP3    H153926   4.201   3.741  13.002 -0.4391 -1.2843 -0.5653
10837TIP3    H253927   4.146   3.613  13.061 -2.8349  0.0586  0.2338
10838TIP3   OH253928   0.638   4.560   0.563 -0.0508 -0.8286 -0.2780
10838TIP3    H153929   0.710   4.499   0.543  0.0338 -0.6624 -0.4803
10838TIP3    H253930   0.601   4.582   0.478 -1.6703 -2.5054 -0.0543
10839TIP3   OH253931   1.826   2.371   0.992 -0.6449 -0.4898 -1.1086
10839TIP3    H153932   1.759   2.341   0.930 -1.1660 -0.6794 -0.4580
10839TIP3    H253933   1.805   2.327   1.074 -0.3098  0.2200 -0.6342
10840TIP3   OH253934   6.628   5.990   3.113  0.0666 -0.4453 -0.2348
10840TIP3    H153935   6.598   5.987   3.204  0.4244 -0.2549 -0.1071
10840TIP3    H253936   6.719   6.021   3.119  0.0306 -0.2426 -0.6695
10841TIP3   OH253937   5.354   5.837   5.842 -0.2516 -0.3834 -0.0524
10841TIP3    H153938   5.437   5.796   5.867 -0.7473 -1.8120 -0.6462
10841TIP3    H253939   5.287   5.774   5.866 -1.0760  0.2049 -0.7358
10842TIP3   OH253940   0.565   0.517   0.324  0.2225  0.2280  0.3180
10842TIP3    H153941   0.492   0.513   0.386  0.4082 -0.0226  0.5179
10842TIP3    H253942   0.643   0.524   0.379  0.4497 -0.7777  0.1292
10843TIP3   OH253943   5.091   6.306  10.592 -0.0182  0.2182  0.3783
10843TIP3    H153944   5.170   6.255  10.606 -0.3087 -0.2573  0.3026
10843TIP3    H253945   5.061   6.281  10.505 -1.1329 -0.8259  1.0274
10844TIP3   OH253946   2.112   4.474   1.061 -0.1666 -0.0346 -0.5349
10844TIP3    H153947   2.067   4.556   1.080 -0.5978 -0.0369 -1.5029
10844TIP3    H253948   2.063   4.408   1.110 -1.2797 -0.0417 -1.6055
10845TIP3   OH253949   4.969   5.886   2.343 -0.4331  0.5699 -0.0334
10845TIP3    H153950   4.982   5.792   2.356  0.3395  0.4529 -1.4215
10845TIP3    H253951   5.057   5.923   2.345 -0.1521  0.5585 -4.0857
10846TIP3   OH253952   5.385   4.520   5.729 -0.4515 -0.1441 -0.5318
10846TIP3    H153953   5.393   4.425   5.739  1.4355 -0.0211 -0.6719
10846TIP3    H253954   5.329   4.531   5.653 -0.4007 -1.1452 -0.7260
10847TIP3   OH253955   2.879   1.607   4.163  0.0436  0.0527  0.0017
10847TIP3    H153956   2.795   1.654   4.161 -0.2917 -0.5749 -0.7167
10847TIP3    H253957   2.880   1.554   4.083  0.9337 -0.2863  0.2223
10848TIP3   OH253958   5.286   4.578   3.812  0.0268  0.0917  0.2931
10848TIP3    H153959   5.378   4.578   3.787  0.3214  0.0262  1.3247
10848TIP3    H253960   5.287   4.567   3.907 -1.0431  0.1903  0.3297
10849TIP3   OH253961   4.134   2.006  15.967  0.1350  0.2245  0.0730
10849TIP3    H153962   4.178   1.930  16.003 -1.6250 -0.1323  1.6013
10849TIP3    H253963   4.193   2.079  15.984  0.6042 -0.3855  1.1061
10850TIP3   OH253964   6.191   4.244   3.772 -0.2420 -0.5676 -0.4581
10850TIP3    H153965   6.235   4.166   3.807 -1.3515 -1.3048 -0.6298
10850TIP3    H253966   6.109   4.210   3.736 -0.8549  0.7202 -0.3275
10851TIP3   OH253967   1.195   2.277  13.776 -0.1673 -0.1443  0.2260
10851TIP3    H153968   1.121   2.303  13.720 -0.1764  0.1425  0.3651
10851TIP3    H253969   1.254   2.352  13.773 -1.1053  0.7532  2.2093
10852TIP3   OH253970   5.990   3.885   5.730  0.2507 -0.4560  0.4821
10852TIP3    H153971   5.917   3.825   5.717  0.2963 -0.1139 -1.9307
10852TIP3    H253972   5.950   3.967   5.759 -0.3851 -0.2330 -0.9544
10853TIP3   OH253973   3.721   2.740  17.131 -0.3199  0.4246 -0.7015
10853TIP3    H153974   3.715   2.688  17.051 -2.2827  0.1067 -0.3889
10853TIP3    H253975   3.733   2.676  17.201 -1.3568  0.4792 -0.4621
10854TIP3   OH253976   0.162   1.792  13.666 -0.8416  0.6434  0.0955
10854TIP3    H153977   0.156   1.859  13.599  1.0261  0.7067 -0.0426
10854TIP3    H253978   0.191   1.713  13.619  2.1859  1.1095  0.9876
10855TIP3   OH253979   1.993   4.738  13.781  0.4686 -0.3350  0.2765
10855TIP3    H153980   1.984   4.643  13.785 -0.5335 -0.3139 -0.9518
10855TIP3    H253981   2.059   4.753  13.714  1.0519 -0.1789  0.8861
10856TIP3   OH253982   4.933   2.106  13.166 -0.1907  0.5139 -0.1694
10856TIP3    H153983   5.029   2.111  13.162 -0.2143  1.5354  0.1812
10856TIP3    H253984   4.913   2.088  13.258 -0.3338  0.1595 -0.2690
10857TIP3   OH253985   0.362   0.633   1.516  0.0196  0.1490 -0.2414
10857TIP3    H153986   0.343   0.598   1.603 -2.0556  0.4726 -0.5256
10857TIP3    H253987   0.411   0.713   1.533  0.3640 -0.2246  0.5833
10858TIP3   OH253988   6.758   6.145  12.575  0.0403  0.1162 -0.5730
10858TIP3    H153989   6.813   6.109  12.644 -1.5355 -1.1681  0.0690
10858TIP3    H253990   6.714   6.219  12.615  1.0887  1.0100 -1.0228
10859TIP3   OH253991   0.945   4.114   0.915  0.2311  0.0164  0.1211
10859TIP3    H153992   0.892   4.184   0.878  0.2530 -0.0664 -0.0643
10859TIP3    H253993   0.884   4.065   0.971 -0.3131 -1.0743 -1.3666
10860TIP3   OH253994   3.830   1.770   4.538  0.0307 -0.4867  0.1149
10860TIP3    H153995   3.789   1.783   4.453  0.7933  2.4170  0.0844
10860TIP3    H253996   3.787   1.693   4.574  0.0637 -2.1584 -3.0792
10861TIP3   OH253997   4.242   0.077   4.160 -0.2610 -0.2213 -0.5009
10861TIP3    H153998   4.310   0.012   4.142 -0.3182  0.0967 -1.9946
10861TIP3    H253999   4.173   0.058   4.096 -1.0092  0.2946  0.1238
10862TIP3   OH254000   4.241   3.555   4.249 -0.0577 -0.4693  0.0719
10862TIP3    H154001   4.326   3.548   4.292  1.2777 -1.1608 -2.4828
10862TIP3    H254002   4.258   3.609   4.172 -2.1919  0.2269  0.0256
10863TIP3   OH254003   3.304   4.788   5.181  0.1230 -0.2607 -0.6392
10863TIP3    H154004   3.284   4.780   5.274  0.7220  0.6899 -0.4126
10863TIP3    H254005   3.399   4.774   5.176  0.2358  0.5797 -0.9810
10864TIP3   OH254006   5.531   1.372  11.361 -0.0476  0.6842 -1.2460
10864TIP3    H154007   5.507   1.283  11.334  3.3049 -0.5910 -0.4890
10864TIP3    H254008   5.514   1.373  11.455  0.7379  0.5038 -1.0945
10865TIP3   OH254009   4.463   6.623  16.794 -0.5570 -0.3509 -0.0787
10865TIP3    H154010   4.438   6.671  16.715 -1.9037 -0.7528  0.0711
10865TIP3    H254011   4.383   6.620  16.846  0.5115  0.6344  1.7093
10866TIP3   OH254012   1.256   5.412  12.273 -0.4740  0.4754 -0.1384
10866TIP3    H154013   1.219   5.465  12.202 -0.6564  0.1424 -0.2952
10866TIP3    H254014   1.334   5.372  12.235  0.1383  1.3042  0.2425
10867TIP3   OH254015   3.898   0.439  14.142  0.0735  0.3544  0.1629
10867TIP3    H154016   3.819   0.389  14.163 -0.1154  1.3424  2.0153
10867TIP3    H254017   3.961   0.413  14.209  1.3130 -0.3128 -1.2117
10868TIP3   OH254018   1.619   2.294   0.855 -0.0214 -0.0189  0.7738
10868TIP3    H154019   1.586   2.382   0.873  0.0845  0.4621 -1.1335
10868TIP3    H254020   1.549   2.252   0.803  0.2979 -0.7454  0.9154
10869TIP3   OH254021   0.307   5.832  14.614 -0.1232  0.3269  1.2937
10869TIP3    H154022   0.213   5.821  14.599  0.2319 -0.3093 -0.8804
10869TIP3    H254023   0.325   5.922  14.588  0.3205 -0.4803 -1.6044
10870TIP3   OH254024   2.319   4.662  11.808  0.3993 -0.3140 -0.4846
10870TIP3    H154025   2.305   4.580  11.762  0.1273  0.1541 -1.2638
10870TIP3    H254026   2.339   4.637  11.897 -0.0025 -1.2142 -0.6395
10871TIP3   OH254027   6.747   3.582  14.684 -0.9151 -0.2287  0.5908
10871TIP3    H154028   6.827   3.568  14.633 -1.1006 -1.0993  0.5146
10871TIP3    H254029   6.740   3.503  14.738 -3.0484 -1.4035 -1.2231
10872TIP3   OH254030   5.066   5.564  16.335  0.4049 -0.2686  0.1392
10872TIP3    H154031   5.144   5.531  16.379  0.2759  0.3048  0.8367
10872TIP3    H254032   4.993   5.532  16.389  0.2585  0.7028  0.5504
10873TIP3   OH254033   5.070   1.714   2.556 -0.7012  0.6141  0.3661
10873TIP3    H154034   5.044   1.794   2.509 -0.1109  0.4457 -0.2637
10873TIP3    H254035   5.126   1.668   2.494 -0.7338 -0.1102  0.8747
10874TIP3   OH254036   5.507   0.756  12.060 -0.2163 -0.0037 -0.4933
10874TIP3    H154037   5.423   0.794  12.087 -0.1091 -0.7533  1.0071
10874TIP3    H254038   5.500   0.747  11.965 -1.0284  1.8335 -0.6627
10875TIP3   OH254039   2.658   6.332  13.013 -0.0179  0.0839  0.1521
10875TIP3    H154040   2.700   6.255  12.974  0.4505  0.1524  0.5114
10875TIP3    H254041   2.697   6.406  12.966  0.6595  0.1754  0.8377
10876TIP3   OH254042   5.980   1.073  11.839 -0.0009 -0.2553 -0.2090
10876TIP3    H154043   6.032   1.152  11.855 -1.3582  0.4423  1.1429
10876TIP3    H254044   5.928   1.094  11.762 -1.0206  0.5885  0.6670
10877TIP3   OH254045   6.744   0.423  12.790  0.0627 -0.6161  0.1813
10877TIP3    H154046   6.742   0.516  12.766  0.0703 -0.5618  0.3905
10877TIP3    H254047   6.782   0.379  12.714  2.6983 -0.1213  1.1034
10878TIP3   OH254048   4.985   1.445  16.299 -0.2870 -0.6218 -0.1864
10878TIP3    H154049   5.022   1.378  16.241  0.6640  2.0383 -2.9288
10878TIP3    H254050   4.997   1.527  16.251  0.8763  1.9218  3.9437
10879TIP3   OH254051   1.137   1.856  11.747  0.2768  0.6709 -0.0730
10879TIP3    H154052   1.090   1.792  11.694  1.9162 -0.6952  0.0206
10879TIP3    H254053   1.101   1.940  11.721 -2.3023 -0.2786  0.1519
10880TIP3   OH254054   2.711   2.074   6.414 -0.1420  0.0353  0.0979
10880TIP3    H154055   2.733   2.067   6.507  1.3598 -0.4018 -0.2693
10880TIP3    H254056   2.668   1.991   6.394 -0.1668 -0.0068  0.3150
10881TIP3   OH254057   3.581   2.860  11.657 -0.3235 -0.3882  0.6203
10881TIP3    H154058   3.649   2.803  11.691 -1.4563 -2.1534  0.0383
10881TIP3    H254059   3.628   2.929  11.611  1.0923 -0.5370  1.7953
10882TIP3   OH254060   3.201   2.422  13.312 -0.0441  0.7427  0.1486
10882TIP3    H154061   3.204   2.507  13.355 -0.2522  1.1046 -0.5280
10882TIP3    H254062   3.233   2.439  13.223  1.0051 -0.1064  0.3385
10883TIP3   OH254063   3.214   4.049   1.605  0.4736 -0.4547  0.3272
10883TIP3    H154064   3.304   4.023   1.625  0.1200 -0.5664  1.8943
10883TIP3    H254065   3.185   4.097   1.682 -0.5366  0.3280 -0.5095
10884TIP3   OH254066   3.492   6.193  12.621 -0.5826 -0.0409  0.2978
10884TIP3    H154067   3.565   6.141  12.654 -1.2901 -0.9950  0.4323
10884TIP3    H254068   3.467   6.149  12.539 -1.1835  0.0897  0.4053
10885TIP3   OH254069   3.086   2.881   1.388  0.1956  0.0470 -0.0372
10885TIP3    H154070   3.005   2.876   1.339 -0.2126  0.4255  0.5817
10885TIP3    H254071   3.140   2.810   1.353 -0.3816 -0.1791 -0.4806
10886TIP3   OH254072   4.210   3.985   6.163 -0.8253  0.2611  0.3697
10886TIP3    H154073   4.166   3.914   6.210 -1.1253 -0.2730 -0.6706
10886TIP3    H254074   4.236   4.047   6.231  1.0120 -1.6576  1.5224
10887TIP3   OH254075   0.584   1.354  16.821  0.3418  0.0278 -0.4601
10887TIP3    H154076   0.504   1.406  16.813 -0.0418 -0.8500 -3.0769
10887TIP3    H254077   0.653   1.418  16.840 -0.5776  1.0796 -0.5832
10888TIP3   OH254078   0.598   5.341   5.717 -0.0645 -0.1851 -0.1931
10888TIP3    H154079   0.580   5.247   5.713  0.6071 -0.4818  2.0112
10888TIP3    H254080   0.673   5.354   5.659  0.5197 -1.2321  0.3021
10889TIP3   OH254081   6.376   0.251   6.675 -0.1520  0.2576  0.0415
10889TIP3    H154082   6.328   0.200   6.609 -0.9156  0.7668  0.1886
10889TIP3    H254083   6.387   0.191   6.748  2.0219 -0.8104 -1.0717
10890TIP3   OH254084   6.164   1.513   4.802 -0.0082 -0.7853 -0.2313
10890TIP3    H154085   6.076   1.535   4.831  0.3092  0.3746 -0.1184
10890TIP3    H254086   6.169   1.543   4.712  0.3329 -0.6868 -0.1831
10891TIP3   OH254087   0.692   6.575  16.187  0.0291  0.2671 -0.0908
10891TIP3    H154088   0.763   6.540  16.241 -0.3690 -1.2739 -0.5183
10891TIP3    H254089   0.613   6.562  16.239 -0.3200 -0.9629 -0.8623
10892TIP3   OH254090   1.225   2.170  16.606 -0.2565  1.1801 -0.1389
10892TIP3    H154091   1.291   2.103  16.584 -1.5895 -0.6090  0.9648
10892TIP3    H254092   1.260   2.213  16.684  0.4056  1.4702 -0.5890
10893TIP3   OH254093   5.059   6.082   4.889  0.0260 -0.1708  0.3253
10893TIP3    H154094   5.017   6.118   4.811 -0.1145 -1.7193 -0.3402
10893TIP3    H254095   5.056   6.154   4.953 -3.9034 -0.2550  0.4299
10894TIP3   OH254096   2.142   3.302  11.544 -0.1774  0.0835  0.6587
10894TIP3    H154097   2.047   3.300  11.533 -0.3011 -2.4559  1.4203
10894TIP3    H254098   2.176   3.259  11.465  0.2709  0.2449  0.7612
10895TIP3   OH254099   2.128   6.226  11.864 -0.3153 -0.4600  0.3309
10895TIP3    H154100   2.130   6.293  11.796  2.3608 -0.1960  0.5308
10895TIP3    H254101   2.091   6.271  11.940 -0.6152  0.1350 -0.1539
10896TIP3   OH254102   2.078   1.402   3.802 -0.1191  0.2807 -0.3656
10896TIP3    H154103   2.138   1.370   3.869 -0.6616  1.8640  0.9587
10896TIP3    H254104   2.018   1.329   3.787 -0.0589 -0.0816  0.9884
10897TIP3   OH254105   4.886   3.589  15.033  0.3547  0.6946 -0.0265
10897TIP3    H154106   4.898   3.590  14.938 -0.1104  2.3338 -0.1040
10897TIP3    H254107   4.975   3.577  15.068  0.3860 -1.1139 -0.6478
10898TIP3   OH254108   2.661   1.729  14.206 -0.2164 -0.3690 -0.5439
10898TIP3    H154109   2.724   1.717  14.134 -0.3111 -3.9877 -0.2528
10898TIP3    H254110   2.669   1.648  14.257 -1.5181  1.2635  2.4777
10899TIP3   OH254111   1.225   5.335   0.073 -0.1695 -0.4650  0.3719
10899TIP3    H154112   1.190   5.271   0.010  1.1547 -1.8600  1.0225
10899TIP3    H254113   1.299   5.375   0.028 -1.1126  0.8312 -0.1119
10900TIP3   OH254114   0.183   5.101   5.710  1.0610  0.4143  0.0000
10900TIP3    H154115   0.262   5.047   5.703  0.8794  0.1146  0.2151
10900TIP3    H254116   0.114   5.047   5.671  0.8325  0.3904  0.4267
10901TIP3   OH254117   4.088   1.581  14.169  0.1397 -0.1689 -0.0719
10901TIP3    H154118   4.037   1.501  14.154 -1.8431  0.9482  0.3405
10901TIP3    H254119   4.177   1.557  14.147 -0.6239 -2.1079 -1.3011
10902TIP3   OH254120   3.966   2.872   0.356  0.1309 -0.0113  0.1311
10902TIP3    H154121   4.052   2.831   0.356 -0.4299 -1.4723 -2.7974
10902TIP3    H254122   3.980   2.958   0.397  2.6088 -0.7728  1.0671
10903TIP3   OH254123   0.212   1.528   2.640 -0.2818 -0.1143  0.4570
10903TIP3    H154124   0.252   1.568   2.563  1.3398 -0.1099  1.2632
10903TIP3    H254125   0.195   1.601   2.700  2.2596 -0.4428  1.7402
10904TIP3   OH254126   4.097   2.854   4.725 -0.3195 -0.5021  0.1415
10904TIP3    H154127   4.167   2.789   4.721 -1.9331 -2.3430  0.2109
10904TIP3    H254128   4.082   2.865   4.819 -0.2393 -0.2493  0.1234
10905TIP3   OH254129   4.456   5.883   4.871  0.1624  0.0895  0.5539
10905TIP3    H154130   4.418   5.970   4.881  0.8363  0.3130  1.2056
10905TIP3    H254131   4.381   5.826   4.854 -0.4279  0.5704  1.5042
10906TIP3   OH254132   6.754   4.952   1.131 -0.0453 -0.2539 -0.4736
10906TIP3    H154133   6.814   4.899   1.183  0.4354 -0.3144 -1.0794
10906TIP3    H254134   6.731   4.896   1.057 -1.6894 -0.6336  0.2737
10907TIP3   OH254135   0.132   2.253   2.492 -0.3069  0.1109 -0.0142
10907TIP3    H154136   0.148   2.347   2.491 -1.8299  0.3907 -0.9130
10907TIP3    H254137   0.176   2.220   2.414 -0.2116  0.1545  0.0208
10908TIP3   OH254138   0.323   0.191   4.578  0.0044 -0.8158 -0.3847
10908TIP3    H154139   0.305   0.140   4.656 -1.2156 -0.6132 -0.5260
10908TIP3    H254140   0.410   0.228   4.593 -0.4444 -0.3233  1.1093
10909TIP3   OH254141   0.807   3.183   1.430 -0.3009 -0.4052  0.5930
10909TIP3    H154142   0.817   3.236   1.509  0.0324  0.0712  0.2381
10909TIP3    H254143   0.849   3.235   1.362  0.8699 -1.5582  0.4121
10910TIP3   OH254144   2.008   1.733   2.439 -0.7397 -0.2561 -0.1959
10910TIP3    H154145   1.923   1.769   2.416 -1.0836 -0.7178  0.3107
10910TIP3    H254146   2.034   1.780   2.518 -1.1726 -1.0576  0.4447
10911TIP3   OH254147   3.994   2.824  16.636 -0.1446  0.3926  0.0192
10911TIP3    H154148   3.983   2.846  16.543 -1.2329  0.8811  0.2428
10911TIP3    H254149   3.938   2.747  16.649 -0.2717  0.5390  0.3471
10912TIP3   OH254150   3.312   5.455   4.913  0.7835 -0.3763 -0.0951
10912TIP3    H154151   3.400   5.494   4.908  1.1899 -1.1522  0.6158
10912TIP3    H254152   3.308   5.418   5.001  0.4575 -2.0025 -0.7572
10913TIP3   OH254153   0.285   6.596   2.231 -0.6997  0.0115 -0.4042
10913TIP3    H154154   0.212   6.535   2.220 -0.7705  0.0801 -0.3117
10913TIP3    H254155   0.309   6.589   2.323 -2.2273  1.8272  0.2126
10914TIP3   OH254156   3.491   4.041   4.104  0.0265 -0.1392  0.2323
10914TIP3    H154157   3.436   4.012   4.032 -0.7288  0.4453  0.5629
10914TIP3    H254158   3.549   4.106   4.065  0.1345 -0.3776 -0.0085
10915TIP3   OH254159   3.159   5.621   5.690  0.1197  0.6292  0.4646
10915TIP3    H154160   3.208   5.633   5.771  0.4404 -1.2118  0.5917
10915TIP3    H254161   3.116   5.536   5.700 -2.0260  1.5795 -0.2065
10916TIP3   OH254162   4.615   6.220   5.052  0.1533 -0.6507  0.1187
10916TIP3    H154163   4.654   6.203   5.138  0.5328  0.4591  0.1764
10916TIP3    H254164   4.556   6.293   5.066  1.9554  1.1329 -0.9845
10917TIP3   OH254165   1.672   0.928   1.187 -0.1382  0.2618 -0.6859
10917TIP3    H154166   1.643   0.888   1.104 -2.3574 -2.0456  1.0415
10917TIP3    H254167   1.725   0.860   1.228  0.7322  1.2865 -0.0842
10918TIP3   OH254168   4.878   5.537   3.139  0.2951  0.0471  0.0500
10918TIP3    H154169   4.834   5.514   3.057 -3.3768 -0.2939  1.8735
10918TIP3    H254170   4.868   5.631   3.146  0.3157  0.0338  0.2557
10919TIP3   OH254171   4.582   4.942  14.368  0.2599  0.1889 -0.0328
10919TIP3    H154172   4.588   4.992  14.450  0.2182 -0.3820  0.3205
10919TIP3    H254173   4.578   4.851  14.395 -0.3118  0.0187 -0.6505
10920TIP3   OH254174   3.379   1.684   3.618  0.0671  0.7453 -0.0441
10920TIP3    H154175   3.362   1.659   3.528 -0.4477 -0.0483  0.2647
10920TIP3    H254176   3.470   1.714   3.618 -0.4536  2.4175 -1.1623
10921TIP3   OH254177   5.647   1.939  17.129  0.2795 -0.5068 -0.0602
10921TIP3    H154178   5.610   1.909  17.212  0.5186 -0.5634  0.0267
10921TIP3    H254179   5.737   1.905  17.130 -0.3115 -2.2233 -1.2343
10922TIP3   OH254180   2.095   3.499   1.693  0.0969 -0.1600 -0.6169
10922TIP3    H154181   2.151   3.422   1.708  0.1063 -0.2032 -0.8618
10922TIP3    H254182   2.062   3.522   1.779  0.7456  0.0574 -0.4239
10923TIP3   OH254183   2.296   2.415  11.916 -0.2595  0.2885  0.2376
10923TIP3    H154184   2.296   2.510  11.931 -0.5264  0.1894  0.8801
10923TIP3    H254185   2.204   2.391  11.912 -0.1954 -0.0709  0.9032
10924TIP3   OH254186   0.143   3.139   0.370  0.7107 -0.2212 -0.1814
10924TIP3    H154187   0.132   3.050   0.405 -0.3736 -0.4763 -1.1067
10924TIP3    H254188   0.129   3.196   0.446  0.6559 -0.8166  0.2724
10925TIP3   OH254189   2.536   0.274  13.769 -0.8444  0.0093 -0.0789
10925TIP3    H154190   2.488   0.300  13.691  1.1536 -0.7417 -1.6534
10925TIP3    H254191   2.574   0.189  13.746 -0.1463 -0.1950  1.7006
10926TIP3   OH254192   6.401   2.285  16.426 -0.0118 -0.0164  0.3141
10926TIP3    H154193   6.385   2.378  16.410 -0.0748  0.1385  1.2177
10926TIP3    H254194   6.484   2.282  16.473 -0.3038 -0.3691  0.8142
10927TIP3   OH254195   0.748   4.698   5.961 -0.4946 -0.1936 -0.4147
10927TIP3    H154196   0.707   4.736   6.039 -1.9519  0.0992 -1.2904
10927TIP3    H254197   0.831   4.663   5.993 -1.7487 -1.5409  1.6519
10928TIP3   OH254198   0.692   6.641  10.299  1.1077 -0.1043  0.8275
10928TIP3    H154199   0.765   6.699  10.318  1.2043  1.0043 -2.4141
10928TIP3    H254200   0.623   6.699  10.266  0.0392 -1.5220  0.4684
10929TIP3   OH254201   6.072   4.727  12.502 -0.6760  0.0180  0.6746
10929TIP3    H154202   5.982   4.701  12.488 -0.3596 -0.4946 -0.4700
10929TIP3    H254203   6.084   4.721  12.597 -2.2037  1.3635  1.0068
10930TIP3   OH254204   4.427   5.258  12.704  0.1699 -0.4858  0.6520
10930TIP3    H154205   4.504   5.279  12.757  2.0248  0.3709 -2.1665
10930TIP3    H254206   4.446   5.172  12.667  0.3909  0.2640 -1.0403
10931TIP3   OH254207   5.570   5.469  12.424  0.1480  0.1415  0.3158
10931TIP3    H154208   5.606   5.402  12.366 -1.1173  0.9681 -1.5204
10931TIP3    H254209   5.635   5.539  12.423  2.0156 -1.3423  3.1138
10932TIP3   OH254210   5.921   6.473   0.465  0.3205 -0.1406 -0.2591
10932TIP3    H154211   5.862   6.549   0.459 -0.5513 -0.6796  0.9780
10932TIP3    H254212   5.862   6.398   0.461  1.1753 -0.7806 -1.4772
10933TIP3   OH254213   5.647   0.001   4.461  0.3592 -0.7025  0.1841
10933TIP3    H154214   5.643   0.032   4.370  0.3587  0.6056  0.6018
10933TIP3    H254215   5.740  -0.016   4.476  0.0443 -4.2537 -1.0621
10934TIP3   OH254216   0.281   1.493  10.586 -0.1080 -0.3724 -0.0027
10934TIP3    H154217   0.191   1.508  10.614  0.5287  0.1621  1.9442
10934TIP3    H254218   0.310   1.577  10.550 -0.0634 -0.2020  0.4162
10935TIP3   OH254219   1.150   5.407   4.117  0.2448  0.6521  0.1569
10935TIP3    H154220   1.201   5.485   4.137  0.2350  0.1056  2.6662
10935TIP3    H254221   1.207   5.334   4.142 -1.1102  0.0025  1.5243
10936TIP3   OH254222   2.170   5.593  10.781 -0.5333 -0.3127 -0.2200
10936TIP3    H154223   2.101   5.656  10.759  0.3201  1.5290  1.8979
10936TIP3    H254224   2.245   5.648  10.805  1.7128 -2.2261 -2.3208
10937TIP3   OH254225   2.979   4.242  12.118 -0.0808 -0.0491 -0.7247
10937TIP3    H154226   2.992   4.334  12.140 -0.4925  0.1451 -1.2715
10937TIP3    H254227   3.066   4.204  12.123  0.3819  0.7336 -2.0733
10938TIP3   OH254228   2.845   5.873   1.477  0.7897  0.1899 -0.8433
10938TIP3    H154229   2.780   5.885   1.546  0.9650  2.1190 -0.9668
10938TIP3    H254230   2.889   5.791   1.500 -0.6019 -0.3173  0.1262
10939TIP3   OH254231   3.378   6.302  16.308 -0.2919  0.2369 -0.1125
10939TIP3    H154232   3.395   6.357  16.232 -1.4662 -0.0417 -0.6047
10939TIP3    H254233   3.416   6.350  16.382  0.7388  0.5744 -0.8469
10940TIP3   OH254234   4.966   0.368   2.150 -0.3472  0.2483 -0.6505
10940TIP3    H154235   4.940   0.401   2.064  1.5944  2.4554 -0.4998
10940TIP3    H254236   4.920   0.425   2.212  0.3953  0.4766 -0.3001
10941TIP3   OH254237   3.846   2.760   5.750  0.0414 -0.0320  0.7468
10941TIP3    H154238   3.777   2.785   5.812  0.1073 -1.1592  1.3039
10941TIP3    H254239   3.839   2.824   5.679 -1.4444 -0.0004  0.8891
10942TIP3   OH254240   5.504   2.303   5.618 -0.2451 -0.1528  0.4456
10942TIP3    H154241   5.456   2.369   5.567 -0.8285 -0.1529  0.9799
10942TIP3    H254242   5.440   2.234   5.632  0.2248 -0.6212  0.3000
10943TIP3   OH254243   0.302   6.045   2.499 -0.4459  0.6155  0.0094
10943TIP3    H154244   0.277   6.124   2.547 -1.0129  1.4688 -1.5994
10943TIP3    H254245   0.345   5.990   2.564 -1.3182  1.6277  1.5175
10944TIP3   OH254246   2.795   2.947  11.419 -0.6712 -0.4071 -0.4253
10944TIP3    H154247   2.886   2.963  11.445 -0.5254  1.3176 -1.8468
10944TIP3    H254248   2.799   2.867  11.367 -0.0301 -0.4950 -0.2478
10945TIP3   OH254249   5.964   3.112  12.001  0.1820  0.0730 -0.3490
10945TIP3    H154250   5.909   3.061  12.061 -0.1788 -0.4251 -1.0884
10945TIP3    H254251   5.985   3.192  12.050  0.9737 -0.8818  0.9364
10946TIP3   OH254252   4.072   3.642  11.896  0.8111  0.5448  0.0665
10946TIP3    H154253   4.029   3.728  11.896  0.9561  0.6197  0.5967
10946TIP3    H254254   4.001   3.580  11.886  0.6347  0.6993  0.3339
10947TIP3   OH254255   3.707   5.159   1.605 -0.4332 -0.0576 -0.2214
10947TIP3    H154256   3.642   5.099   1.643 -0.5404  0.7965  0.9733
10947TIP3    H254257   3.657   5.210   1.541 -1.2154  1.3253  1.4413
10948TIP3   OH254258   4.478   6.326  16.732  0.4099 -0.0500 -0.0897
10948TIP3    H154259   4.385   6.316  16.747  0.1358 -0.3414 -1.7340
10948TIP3    H254260   4.489   6.420  16.715  0.3971 -0.0329 -0.0031
10949TIP3   OH254261   4.407   0.927  14.324  0.6549  0.5709  0.3641
10949TIP3    H154262   4.496   0.944  14.356  0.9612 -0.6552  0.2141
10949TIP3    H254263   4.366   1.014  14.320  1.6384  1.0867  1.0236
10950TIP3   OH254264   3.279   1.249  16.644 -0.0170 -0.2355 -0.3367
10950TIP3    H154265   3.196   1.277  16.605 -0.2462  0.2035  0.4572
10950TIP3    H254266   3.299   1.316  16.709 -0.8157 -2.1148  1.9634
10951TIP3   OH254267   5.566   3.926  15.382  0.0563 -0.0066  0.0958
10951TIP3    H154268   5.538   3.991  15.318 -0.5910 -0.4854 -0.1234
10951TIP3    H254269   5.605   3.856  15.329 -2.5741 -1.5006 -0.0575
10952TIP3   OH254270   1.884   5.824  15.936 -0.4009  0.0141 -0.0375
10952TIP3    H154271   1.874   5.765  16.011 -0.1330 -1.8076 -1.3691
10952TIP3    H254272   1.837   5.781  15.865  0.8709  0.7715 -1.3995
10953TIP3   OH254273   5.319   6.782  15.127 -0.7250  0.0642  0.4752
10953TIP3    H154274   5.344   6.718  15.194  0.4786  1.3251  1.2858
10953TIP3    H254275   5.230   6.809  15.152 -0.1614  0.7824  1.8102
10954TIP3   OH254276   0.636   0.432   3.623  0.3842 -0.1686 -0.4248
10954TIP3    H154277   0.692   0.365   3.663  0.4805 -0.4891 -1.0703
10954TIP3    H254278   0.580   0.462   3.694 -1.3804 -2.7098 -0.6145
10955TIP3   OH254279   0.457   1.344   5.110 -0.3807 -0.0402 -0.1667
10955TIP3    H154280   0.550   1.364   5.097 -0.7418  0.7159 -1.7665
10955TIP3    H254281   0.419   1.349   5.022 -1.9510 -0.2521  0.4793
10956TIP3   OH254282   5.516   1.970   4.207 -0.0885  0.5284  0.5170
10956TIP3    H154283   5.557   2.013   4.132 -1.2026 -0.1982 -0.5478
10956TIP3    H254284   5.472   2.041   4.254  0.5457  0.9746  0.4536
10957TIP3   OH254285   0.865   2.008  17.022  0.1315  0.1966  0.0921
10957TIP3    H154286   0.927   1.949  16.977 -0.5867 -0.9603  0.5728
10957TIP3    H254287   0.847   2.076  16.957  2.6433  1.1488  0.2710
10958TIP3   OH254288   2.883   5.272  15.943 -0.1190 -1.1886  0.6040
10958TIP3    H154289   2.935   5.272  16.024 -0.8817 -0.6712  1.1166
10958TIP3    H254290   2.909   5.193  15.897 -0.0088 -1.7396  1.5874
10959TIP3   OH254291   0.460   1.357   2.366  0.3012 -0.2789 -0.8092
10959TIP3    H154292   0.439   1.425   2.303  0.2016 -0.1330 -0.6203
10959TIP3    H254293   0.554   1.341   2.356  0.3563  0.0015 -0.7401
10960TIP3   OH254294   3.237   1.199  15.238 -0.4611  0.4847  0.0876
10960TIP3    H154295   3.160   1.182  15.293 -0.1148  2.2049  1.1684
10960TIP3    H254296   3.202   1.224  15.153 -1.0097 -2.1823 -0.5624
10961TIP3   OH254297   1.838   5.029   3.912 -0.0760  1.0661 -0.0758
10961TIP3    H154298   1.746   5.022   3.889  0.0177  0.9921 -0.4309
10961TIP3    H254299   1.866   5.113   3.875  0.2715  0.5836 -0.9266
10962TIP3   OH254300   6.681   1.740  14.928  0.6634 -0.2654  0.2217
10962TIP3    H154301   6.594   1.760  14.892  0.1973  1.5601  2.1795
10962TIP3    H254302   6.702   1.654  14.892 -1.5194 -0.3313 -1.0871
10963TIP3   OH254303   4.242   6.100   2.890 -0.6666 -0.3148 -0.7788
10963TIP3    H154304   4.195   6.183   2.895 -0.1837 -0.0462 -0.6051
10963TIP3    H254305   4.250   6.071   2.981  1.0741  0.5513 -0.6177
10964TIP3   OH254306   5.382   3.982  12.310 -0.2501  0.2118 -0.4376
10964TIP3    H154307   5.344   4.063  12.345  0.9211  1.2198 -1.4095
10964TIP3    H254308   5.332   3.965  12.230 -1.5863 -0.9741  0.6047
10965TIP3   OH254309   1.655   6.052  14.477  0.2734  0.0390  0.2351
10965TIP3    H154310   1.643   6.000  14.557  0.7919  0.1242  0.3700
10965TIP3    H254311   1.583   6.023  14.419  0.1571 -0.3419  0.5622
10966TIP3   OH254312   5.123   0.348  13.750  0.3657  0.3993  0.4896
10966TIP3    H154313   5.126   0.434  13.707 -0.0416 -0.1888 -0.7655
10966TIP3    H254314   5.204   0.343  13.800  1.6761  0.4489 -1.5413
10967TIP3   OH254315   1.971   0.396   4.226 -0.1362 -0.3549  0.6957
10967TIP3    H154316   2.034   0.371   4.293  0.1615  1.8119  1.2743
10967TIP3    H254317   1.893   0.421   4.274 -1.0048 -1.6964  0.0455
10968TIP3   OH254318   5.861   3.966   3.176 -0.3374 -0.2469  0.6015
10968TIP3    H154319   5.806   3.891   3.151 -1.3426  0.0388  1.8768
10968TIP3    H254320   5.935   3.963   3.114 -1.5825 -0.8632 -0.9312
10969TIP3   OH254321   4.967   6.336  11.291 -0.2382 -0.0962  0.2102
10969TIP3    H154322   5.021   6.366  11.364 -1.9243  0.7794  1.1838
10969TIP3    H254323   4.998   6.385  11.216  0.7899 -0.1676  0.5803
10970TIP3   OH254324   3.186   3.731  15.643  0.1198  0.0791  0.2495
10970TIP3    H154325   3.270   3.715  15.687 -0.0416 -1.6146  0.0244
10970TIP3    H254326   3.153   3.812  15.683  1.9693  0.9332  0.1489
10971TIP3   OH254327   5.814   2.526  12.987  0.1408  0.1290  0.3506
10971TIP3    H154328   5.760   2.591  12.943 -1.6251 -1.3352  0.2595
10971TIP3    H254329   5.866   2.487  12.917  0.1158  0.3924  0.1817
10972TIP3   OH254330   2.759   0.714  11.416 -0.2966 -0.2352  0.4191
10972TIP3    H154331   2.795   0.695  11.329 -0.6055 -0.9804  0.4443
10972TIP3    H254332   2.669   0.682  11.411 -0.8875  1.3292  0.4444
10973TIP3   OH254333   5.389   2.091   0.482 -0.3332  0.4981  0.4638
10973TIP3    H154334   5.453   2.155   0.514 -0.2993  0.0538  1.3142
10973TIP3    H254335   5.433   2.006   0.492 -0.6505  0.2813  0.0280
10974TIP3   OH254336   6.310   2.264   2.249 -0.3887 -0.0963  0.1091
10974TIP3    H154337   6.367   2.256   2.173  0.6737  0.4695  0.8064
10974TIP3    H254338   6.222   2.259   2.214  0.0805 -0.0997 -1.1256
10975TIP3   OH254339   1.071   4.749  16.334  0.6097  0.4110 -0.2788
10975TIP3    H154340   0.995   4.754  16.275 -0.6218 -1.2406  1.0608
10975TIP3    H254341   1.113   4.666  16.310  0.2157 -0.1716  0.9775
10976TIP3   OH254342   3.165   6.619   5.309  0.6298 -0.7119  0.2881
10976TIP3    H154343   3.176   6.654   5.221 -1.5495 -3.3739 -1.1901
10976TIP3    H254344   3.229   6.549   5.316 -0.1575 -1.4466  0.2509
10977TIP3   OH254345   2.950   0.262  12.364 -0.4850 -0.0694  0.0695
10977TIP3    H154346   3.043   0.284  12.362 -0.4834 -0.1194 -2.1844
10977TIP3    H254347   2.948   0.169  12.386  0.0510 -0.3002 -0.8379
10978TIP3   OH254348   3.702   2.072   1.355 -0.1443  0.3852  0.5442
10978TIP3    H154349   3.632   2.037   1.300  0.9843 -0.0434 -0.6760
10978TIP3    H254350   3.755   1.996   1.379  0.4341  0.8158  0.6722
10979TIP3   OH254351   1.228   0.770  11.566  0.1611 -0.6746  0.3610
10979TIP3    H154352   1.274   0.804  11.488  0.0068  1.0315  0.9764
10979TIP3    H254353   1.254   0.829  11.636 -2.7583  0.2219  0.8000
10980TIP3   OH254354   3.714   4.796   2.561 -0.1328  0.3464 -0.3538
10980TIP3    H154355   3.802   4.832   2.571  0.0360 -0.3413  0.9289
10980TIP3    H254356   3.694   4.806   2.468  0.6849  1.8934 -0.3975
10981TIP3   OH254357   6.688   0.895  11.181 -0.3483 -0.2004  0.4921
10981TIP3    H154358   6.751   0.961  11.155 -0.6540 -0.2138 -0.3143
10981TIP3    H254359   6.701   0.823  11.119  0.5942 -1.2955  1.8950
10982TIP3   OH254360   1.346   0.458  15.694 -0.7513  0.3582  0.1790
10982TIP3    H154361   1.312   0.485  15.609 -1.2773  1.2095  0.6412
10982TIP3    H254362   1.419   0.400  15.674 -1.4550 -0.1975 -0.8449
10983TIP3   OH254363   1.597   0.294  13.452  0.0561 -0.2560  0.3533
10983TIP3    H154364   1.675   0.241  13.467  0.4909  0.7033  1.6752
10983TIP3    H254365   1.556   0.300  13.538 -0.3181  1.0100  0.0994
10984TIP3   OH254366   0.807   1.488  14.148  0.4599 -0.0237  0.0632
10984TIP3    H154367   0.733   1.461  14.204  2.2303 -0.9308  2.1225
10984TIP3    H254368   0.795   1.582  14.137 -0.2937  0.0883  1.5242
10985TIP3   OH254369   0.099   2.599  14.428  0.0091 -0.0436  0.2934
10985TIP3    H154370   0.163   2.600  14.357 -0.3024  0.0984  0.0112
10985TIP3    H254371   0.127   2.668  14.487  1.2317 -1.2524  1.1794
10986TIP3   OH254372   5.921   4.367  12.617 -0.0632 -0.4255 -0.4904
10986TIP3    H154373   5.983   4.380  12.688  2.0053 -0.9051 -2.1028
10986TIP3    H254374   5.896   4.275  12.622 -0.4965 -0.2790  0.0463
10987TIP3   OH254375   5.975   0.142   3.493  0.3381 -0.1809 -0.7794
10987TIP3    H154376   6.028   0.088   3.434 -0.9127 -1.8775 -0.4403
10987TIP3    H254377   5.887   0.138   3.457  0.0429  0.9249 -0.2228
10988TIP3   OH254378   1.222   3.045  14.057  0.3927 -0.1323 -0.5219
10988TIP3    H154379   1.238   3.027  13.964 -1.4791 -0.3236 -0.8592
10988TIP3    H254380   1.143   3.098  14.057 -0.1738 -0.9184  1.0052
10989TIP3   OH254381   3.874   0.508  16.001  0.3366 -0.4770 -0.0572
10989TIP3    H154382   3.784   0.482  16.023 -0.1081  0.9164 -0.1037
10989TIP3    H254383   3.926   0.479  16.076 -0.8303  2.3136  2.0040
10990TIP3   OH254384   5.435   4.439   0.124  0.5355 -0.0532  0.0599
10990TIP3    H154385   5.417   4.459   0.216  1.3662  1.1176 -0.0129
10990TIP3    H254386   5.355   4.396   0.094 -0.8920  2.0302  0.6124
10991TIP3   OH254387   4.386   4.411  14.920  0.0091  0.5489  0.4825
10991TIP3    H154388   4.385   4.316  14.933 -0.5021  0.2693 -1.3204
10991TIP3    H254389   4.474   4.430  14.887  0.4865  0.8898  1.8969
10992TIP3   OH254390   1.131   6.723   3.619  0.5552  0.1088 -0.1178
10992TIP3    H154391   1.204   6.661   3.619  1.6386  1.3151 -0.7514
10992TIP3    H254392   1.169   6.804   3.652 -0.3921  0.8794 -0.8531
10993TIP3   OH254393   2.835   6.457  11.370  0.4454  0.2801  0.3136
10993TIP3    H154394   2.887   6.530  11.335 -2.2980  2.5527  0.6147
10993TIP3    H254395   2.746   6.491  11.374 -1.3365 -3.6843 -1.0166
10994TIP3   OH254396   2.182   0.805   4.161  0.1307 -0.1164 -0.0830
10994TIP3    H154397   2.260   0.840   4.117 -0.4446  0.9147 -0.2998
10994TIP3    H254398   2.157   0.730   4.107 -0.5684  1.1344 -1.5688
10995TIP3   OH254399   3.900   5.337  13.337 -0.7300 -0.4095  0.3429
10995TIP3    H154400   3.913   5.397  13.264  0.6580 -1.2604 -0.1431
10995TIP3    H254401   3.973   5.354  13.397 -1.7584  0.1648  1.5015
10996TIP3   OH254402   1.679   6.072  15.482  0.2887 -0.0623 -0.4986
10996TIP3    H154403   1.759   6.122  15.465 -0.4594  0.5781 -2.3577
10996TIP3    H254404   1.652   6.099  15.570  2.0171 -0.2011  0.1207
10997TIP3   OH254405   5.436   2.104  12.638 -0.2177  0.9678 -0.4731
10997TIP3    H154406   5.385   2.081  12.560  2.8411 -3.9900 -1.4493
10997TIP3    H254407   5.520   2.134  12.603  0.6956  0.0851  0.8776
10998TIP3   OH254408   5.025   4.252   1.348  0.5332  0.0857  0.2740
10998TIP3    H154409   4.942   4.288   1.317  0.0977 -0.0322  1.2570
10998TIP3    H254410   5.059   4.202   1.273 -0.5164 -0.2623  0.0121
10999TIP3   OH254411   5.546   0.425  14.047 -0.4955  0.4900  0.2745
10999TIP3    H154412   5.546   0.469  14.132  2.7666  0.8447  0.2346
10999TIP3    H254413   5.556   0.332  14.068  1.1314  0.6447  0.3748
11000TIP3   OH254414   0.033   2.123  12.724  0.1202 -0.2322 -0.4234
11000TIP3    H154415   0.116   2.141  12.681 -0.6719  0.6351 -1.6568
11000TIP3    H254416  -0.034   2.147  12.659 -1.0937 -2.0179  0.0922
11001TIP3   OH254417   3.124   0.934   2.603  0.2645  0.2146  0.1056
11001TIP3    H154418   3.182   0.983   2.663  1.1228  0.3335 -0.7910
11001TIP3    H254419   3.042   0.925   2.651  0.3694  1.7893  0.6383
11002TIP3   OH254420   5.429   2.663  15.001  0.3675  0.3358  0.1786
11002TIP3    H154421   5.358   2.706  15.047 -0.2778  1.2192 -1.5341
11002TIP3    H254422   5.453   2.589  15.057 -0.6458  1.0828  1.6658
11003TIP3   OH254423   0.825   3.810  15.482  0.5734  0.1714  0.2003
11003TIP3    H154424   0.818   3.722  15.520  0.3365 -0.1563 -0.5756
11003TIP3    H254425   0.756   3.812  15.416  0.7202  0.8701  0.0656
11004TIP3   OH254426   4.100   5.104  13.510 -0.0917  0.3074 -0.6007
11004TIP3    H154427   4.110   5.163  13.585 -0.5350 -0.0843 -0.2236
11004TIP3    H254428   4.161   5.137  13.445  1.1701 -0.0118  0.3632
11005TIP3   OH254429   3.167   2.429  11.541 -0.2306  0.5477 -0.1757
11005TIP3    H154430   3.131   2.517  11.537 -1.6416  0.0008 -0.0745
11005TIP3    H254431   3.092   2.373  11.562  0.5936 -0.7061 -0.4521
11006TIP3   OH254432   0.716   5.908  17.180 -0.0062  0.6414  0.3431
11006TIP3    H154433   0.730   5.814  17.181 -1.1296  0.4485 -0.7742
11006TIP3    H254434   0.708   5.932  17.273  0.8678 -0.2375  0.6661
11007TIP3   OH254435   5.198   4.802   0.125 -0.0448  0.2709  0.6453
11007TIP3    H154436   5.259   4.807   0.199 -1.1885  0.2918  1.6395
11007TIP3    H254437   5.248   4.764   0.054  0.8485 -0.6654  1.7351
11008TIP3   OH254438   1.178   1.538  13.566  0.1058 -0.4963 -0.1996
11008TIP3    H154439   1.096   1.560  13.611  0.5115 -0.6435  0.6460
11008TIP3    H254440   1.245   1.549  13.634  0.8956  0.5091 -1.1176
11009TIP3   OH254441   1.811   5.273  14.342 -0.5648 -0.2052 -0.1720
11009TIP3    H154442   1.893   5.304  14.303 -0.9903 -0.8444 -1.6395
11009TIP3    H254443   1.780   5.347  14.393  0.3145  0.4788 -0.5936
11010TIP3   OH254444   0.926   0.905   5.743  0.0173  0.4483 -0.5587
11010TIP3    H154445   0.951   0.813   5.739 -1.2980  0.0836 -0.8947
11010TIP3    H254446   0.861   0.909   5.814  2.2870  1.7125  1.6213
11011TIP3   OH254447   4.384   3.796  16.083 -0.4279 -0.4710  0.6683
11011TIP3    H154448   4.466   3.816  16.037  0.9806 -1.1518  2.7436
11011TIP3    H254449   4.343   3.881  16.097  1.0820  0.1461  1.5873
11012TIP3   OH254450   0.756   5.328  12.742  0.4151 -0.3347  0.4979
11012TIP3    H154451   0.730   5.418  12.723 -1.3377 -0.8155  0.4161
11012TIP3    H254452   0.694   5.274  12.693  1.6828 -1.6056  0.2237
11013TIP3   OH254453   2.908   3.470  15.106 -0.3646  0.5662  0.2634
11013TIP3    H154454   2.884   3.509  15.190 -2.2593 -2.1064  1.1312
11013TIP3    H254455   2.898   3.376  15.120  2.4633 -0.2312 -2.0660
11014TIP3   OH254456   3.221   1.066   2.384  0.1673  0.1978 -0.1049
11014TIP3    H154457   3.259   1.003   2.324  1.9931  0.4183  0.7397
11014TIP3    H254458   3.174   1.013   2.449  1.2440 -0.3037  0.2992
11015TIP3   OH254459   0.380   2.039   0.985  0.2390  0.0412  0.0069
11015TIP3    H154460   0.443   2.110   0.992  0.6034 -0.0705 -1.6954
11015TIP3    H254461   0.411   1.986   0.911 -1.7684 -0.0876 -0.8047
11016TIP3   OH254462   0.160   1.609  14.018  0.2862 -0.5416  0.0049
11016TIP3    H154463   0.164   1.519  13.984 -2.2841 -0.3120 -1.2114
11016TIP3    H254464   0.067   1.623  14.036  0.5942  1.9398 -0.0108
11017TIP3   OH254465   3.398   5.888   1.146 -0.2465 -0.0644 -0.2093
11017TIP3    H154466   3.320   5.859   1.195 -0.4001  0.1506 -0.3244
11017TIP3    H254467   3.367   5.961   1.093  0.2901  0.7635  0.5919
11018TIP3   OH254468   4.953   1.198   0.692  0.1425  0.1415 -0.0213
11018TIP3    H154469   4.859   1.219   0.691  0.3741  1.2607 -0.7667
11018TIP3    H254470   4.956   1.103   0.689 -0.9875  0.1041 -1.9012
11019TIP3   OH254471   2.271   3.219   2.548  0.2686 -0.0839 -0.3189
11019TIP3    H154472   2.258   3.305   2.588  1.3300 -0.1750  0.2599
11019TIP3    H254473   2.184   3.193   2.517  0.0451  1.5133 -1.1575
11020TIP3   OH254474   6.224   1.939  15.370  0.2675 -0.3605  0.3528
11020TIP3    H154475   6.174   1.904  15.297 -0.1403  0.0057  0.4524
11020TIP3    H254476   6.316   1.933  15.342  0.2256 -1.5833  0.4039
11021TIP3   OH254477   0.770   5.986  10.553 -0.3266  0.5905  0.1489
11021TIP3    H154478   0.851   5.985  10.604  0.9202 -0.2961 -1.7290
11021TIP3    H254479   0.758   6.077  10.528  1.2870  0.4585 -1.2799
11022TIP3   OH254480   2.986   4.522  12.197 -0.0734  0.0099  0.5654
11022TIP3    H154481   3.040   4.565  12.131  0.6486 -2.4472 -0.5184
11022TIP3    H254482   2.940   4.595  12.240  3.2436  2.1436  0.8595
11023TIP3   OH254483   0.839   6.095  12.320 -0.4640  0.1216 -0.0394
11023TIP3    H154484   0.898   6.019  12.311  0.2535  0.4171  1.7344
11023TIP3    H254485   0.751   6.058  12.315 -0.1230 -0.8914  1.1501
11024TIP3   OH254486   0.345   6.577   0.748 -0.6941 -0.3110  0.0692
11024TIP3    H154487   0.314   6.499   0.794  0.8679 -1.1553 -0.2601
11024TIP3    H254488   0.419   6.547   0.696 -0.8944  1.1259 -1.1284
11025TIP3   OH254489   5.652   0.974  14.872 -0.1711  0.5410  0.3779
11025TIP3    H154490   5.718   1.008  14.933 -0.3226  0.8437  0.3769
11025TIP3    H254491   5.676   1.012  14.787  1.5859 -1.9185 -0.3293
11026TIP3   OH254492   5.980   4.054   1.065 -0.2216  0.3074  0.4901
11026TIP3    H154493   5.949   4.095   0.984  0.9009 -2.2656 -1.4002
11026TIP3    H254494   5.929   3.974   1.072  2.0529 -1.2498  0.3357
11027TIP3   OH254495   1.108   0.180  12.006  0.3008 -0.2130  0.1781
11027TIP3    H154496   1.082   0.265  11.970 -1.6480 -1.0332 -0.4546
11027TIP3    H254497   1.053   0.117  11.961  2.9522 -2.0730 -0.7054
11028TIP3   OH254498   2.668   2.813  11.059 -0.2472 -0.3097 -0.2023
11028TIP3    H154499   2.611   2.789  11.132  0.7835 -1.6068  0.2293
11028TIP3    H254500   2.608   2.826  10.985 -1.0996 -2.4358  0.0268
11029TIP3   OH254501   6.403   1.006  11.260  0.0292  0.6016  0.6496
11029TIP3    H154502   6.490   0.994  11.222 -0.0996  2.4998 -0.3166
11029TIP3    H254503   6.342   0.993  11.187 -0.6625 -2.1232  1.5887
11030TIP3   OH254504   5.245   3.049   2.912 -0.0118  0.2757  0.1789
11030TIP3    H154505   5.175   3.111   2.889 -2.0273 -1.8596  0.1534
11030TIP3    H254506   5.268   3.007   2.829  0.1592 -0.1333  0.4291
11031TIP3   OH254507   6.725   0.843   4.259 -0.0106  0.0101 -0.1908
11031TIP3    H154508   6.814   0.876   4.274 -0.3895  0.7091  0.5934
11031TIP3    H254509   6.674   0.922   4.240 -0.8108 -0.1649  1.1243
11032TIP3   OH254510   1.128   3.686  14.905  0.3654  0.0916 -0.0573
11032TIP3    H154511   1.211   3.685  14.954  0.0551 -1.9636  0.5176
11032TIP3    H254512   1.124   3.600  14.864 -2.9688 -1.2509  2.5777
11033TIP3   OH254513   1.088   6.274  10.816 -0.2518 -0.5249  0.2078
11033TIP3    H154514   0.993   6.289  10.817  0.0259  1.4416  1.2305
11033TIP3    H254515   1.106   6.240  10.729 -1.6053  1.1984 -0.8000
11034TIP3   OH254516   5.926   2.988   1.056  0.1026  0.2849 -0.3077
11034TIP3    H154517   5.869   2.944   1.119  0.1070  2.1053  1.0550
11034TIP3    H254518   6.014   2.955   1.075 -0.1335 -0.5304 -0.6092
11035TIP3   OH254519   5.769   4.697  13.853  0.4165  0.1582  0.0487
11035TIP3    H154520   5.831   4.764  13.824 -1.9865  2.4116 -0.3866
11035TIP3    H254521   5.777   4.626  13.789  0.7844  1.5245 -1.4962
11036TIP3   OH254522   2.090   0.405   2.377  0.2735  0.1210 -0.3523
11036TIP3    H154523   2.035   0.460   2.322  1.5891  1.4158 -0.4300
11036TIP3    H254524   2.130   0.342   2.316 -0.0447  0.0757 -0.5132
11037TIP3   OH254525   0.700   6.685   0.947 -0.4568  0.3912  0.0745
11037TIP3    H154526   0.766   6.752   0.963  2.6989 -2.2551 -0.6092
11037TIP3    H254527   0.652   6.678   1.030 -0.6922  3.1723  0.2500
11038TIP3   OH254528   3.827   1.279   5.589  0.5415 -0.8929  0.2450
11038TIP3    H154529   3.880   1.292   5.669 -1.0530 -2.7149  1.6985
11038TIP3    H254530   3.818   1.184   5.582 -0.4135 -0.7099 -1.4370
11039TIP3   OH254531   2.270   1.142   0.740  0.0048 -0.0570 -0.2040
11039TIP3    H154532   2.220   1.068   0.704  0.0296 -0.8278  1.2689
11039TIP3    H254533   2.242   1.217   0.688 -2.3075 -0.5444  0.2104
11040TIP3   OH254534   2.466   0.468  10.626 -0.1792  0.0731  0.0966
11040TIP3    H154535   2.388   0.414  10.614 -1.7911  2.0394  1.1909
11040TIP3    H254536   2.448   0.549  10.579  1.2467  0.5506  0.3144
11041TIP3   OH254537   3.224   4.087  12.877 -0.1734 -0.2603  0.0576
11041TIP3    H154538   3.263   4.047  12.800 -0.6356  0.1136 -0.3763
11041TIP3    H254539   3.165   4.154  12.843 -1.0263 -0.6606  0.7006
11042TIP3   OH254540   3.955   4.487  14.966  0.8824 -0.3851 -0.0566
11042TIP3    H154541   3.966   4.470  15.060  2.1159 -1.9919 -0.4406
11042TIP3    H254542   3.871   4.447  14.944  0.4620  0.2281  0.4027
11043TIP3   OH254543   4.563   2.263  16.820 -0.1027  0.2034 -0.3827
11043TIP3    H154544   4.610   2.291  16.899 -1.8878 -0.2967  0.9072
11043TIP3    H254545   4.624   2.284  16.749  2.7136 -1.7230  1.2474
11044TIP3   OH254546   2.868   1.500  16.030  0.0149 -0.1249 -0.0579
11044TIP3    H154547   2.900   1.466  16.113  1.0278  0.4808 -0.1842
11044TIP3    H254548   2.932   1.470  15.965 -0.6062 -0.3415 -0.5834
11045TIP3   OH254549   5.831   5.495  15.905  0.2113 -0.1621  0.1807
11045TIP3    H154550   5.756   5.477  15.962  1.8536 -2.1134  1.8722
11045TIP3    H254551   5.901   5.521  15.966  1.0947  1.0604 -1.2964
11046TIP3   OH254552   6.408   1.148   4.776  0.9357 -0.6141  0.0112
11046TIP3    H154553   6.334   1.141   4.715  2.4619 -0.8593 -1.8947
11046TIP3    H254554   6.426   1.057   4.801  0.2001 -0.5008  1.0259
11047TIP3   OH254555   5.624   4.266  13.970 -0.1295 -0.1071  0.2058
11047TIP3    H154556   5.668   4.274  14.055  0.6678 -0.6752 -0.1391
11047TIP3    H254557   5.693   4.235  13.911 -1.0461 -1.1886 -0.3187
11048TIP3   OH254558   5.146   5.381  13.869 -0.7432 -0.2102  0.2100
11048TIP3    H154559   5.116   5.300  13.828  0.4661 -0.5556 -0.0136
11048TIP3    H254560   5.069   5.413  13.918 -1.8412 -0.4146 -1.3266
11049TIP3   OH254561   3.476   5.150  16.839 -0.6071 -0.3642 -0.3839
11049TIP3    H154562   3.388   5.119  16.862  0.1230 -1.4015  1.1963
11049TIP3    H254563   3.506   5.197  16.917 -0.1994  1.0649 -1.3577
11050TIP3   OH254564   6.018   1.901  14.818 -0.2631 -0.1257 -0.6054
11050TIP3    H154565   6.013   1.992  14.792  0.5588  0.6355  1.6247
11050TIP3    H254566   6.105   1.891  14.857 -0.8255 -1.4702  0.4202
11051TIP3   OH254567   2.491   2.488  11.402  0.5360  0.3402  0.1372
11051TIP3    H154568   2.436   2.415  11.372  1.4262  0.2740 -1.4067
11051TIP3    H254569   2.441   2.527  11.474 -0.2068 -1.4575  0.6600
11052TIP3   OH254570   6.016   4.747   3.861 -0.3707  0.1268 -0.2896
11052TIP3    H154571   6.078   4.804   3.815 -0.9759 -0.1407 -1.4569
11052TIP3    H254572   6.033   4.659   3.826 -1.3835  0.0455 -0.6014
11053TIP3   OH254573   5.230   1.234   4.381 -0.2501  0.1674  0.2086
11053TIP3    H154574   5.174   1.195   4.314  0.2568  0.4134 -0.3705
11053TIP3    H254575   5.317   1.237   4.341 -0.3735  2.3777  0.0122
11054TIP3   OH254576   3.327   6.661  15.511  0.6190 -0.0286  0.2998
11054TIP3    H154577   3.253   6.693  15.459  0.2242  0.5632  1.2021
11054TIP3    H254578   3.388   6.625  15.446  0.6905  1.7536 -0.7002
11055TIP3   OH254579   2.902   1.551  10.473 -0.0238 -0.1592 -0.2064
11055TIP3    H154580   2.971   1.601  10.517  0.7933 -1.2166 -0.2382
11055TIP3    H254581   2.837   1.616  10.449  1.0276  0.8925 -0.2905
11056TIP3   OH254582   2.254   2.754   4.395  0.5996  0.5144 -0.0265
11056TIP3    H154583   2.341   2.728   4.425  0.5915  0.5933  0.0679
11056TIP3    H254584   2.246   2.715   4.308  0.9758  1.0115 -0.2951
11057TIP3   OH254585   0.989   3.316   5.736  0.4076 -0.2130 -0.6075
11057TIP3    H154586   1.051   3.387   5.756  0.7404 -0.0966 -1.9387
11057TIP3    H254587   0.928   3.316   5.810  1.4460  0.2849  0.2805
11058TIP3   OH254588   6.543   4.806  16.584 -0.0313  0.2079 -0.7205
11058TIP3    H154589   6.589   4.796  16.667 -1.7165 -0.2202  0.1986
11058TIP3    H254590   6.547   4.900  16.566 -1.2425  0.6035  0.8374
11059TIP3   OH254591   0.918   2.500   6.662  0.4682 -0.0286  0.1601
11059TIP3    H154592   0.864   2.517   6.739  0.0599 -0.3136 -0.0550
11059TIP3    H254593   1.003   2.539   6.682 -0.7305  3.3647 -0.7947
11060TIP3   OH254594   3.750   1.263  15.073 -0.0154 -0.2454  0.1263
11060TIP3    H154595   3.734   1.313  15.153 -0.5793  0.8821 -0.6763
11060TIP3    H254596   3.662   1.241  15.041  0.2048 -0.4016 -0.3713
11061TIP3   OH254597   0.431   6.238   2.648  0.1525  0.2167 -0.5259
11061TIP3    H154598   0.506   6.261   2.593  0.2577 -1.6924 -1.2547
11061TIP3    H254599   0.405   6.320   2.688  4.2202  0.6785  1.8003
11062TIP3   OH254600   1.230   1.212  15.738 -0.3385  0.2312 -0.2257
11062TIP3    H154601   1.221   1.192  15.644 -1.2142 -0.1594 -0.0710
11062TIP3    H254602   1.265   1.132  15.776  1.8790  1.0298 -0.4891
11063TIP3   OH254603   0.221   1.197   4.887  0.3968  0.4957 -0.0131
11063TIP3    H154604   0.275   1.149   4.951  0.4761  1.3576  0.5760
11063TIP3    H254605   0.209   1.283   4.926 -0.3565  0.7225 -0.7357
11064TIP3   OH254606   6.207   2.261  15.930  0.2381  0.5842 -0.0938
11064TIP3    H154607   6.117   2.278  15.957 -0.4695 -0.1518 -1.8564
11064TIP3    H254608   6.253   2.243  16.012 -1.3699  0.2672  0.7894
11065TIP3   OH254609   4.592   5.633  11.960  0.3956 -0.2375 -0.0620
11065TIP3    H154610   4.630   5.711  11.921  0.4394 -0.6107 -0.7823
11065TIP3    H254611   4.606   5.644  12.054  0.9450  0.3314 -0.2047
11066TIP3   OH254612   6.273   6.313   2.625  0.8335 -0.5278 -0.1472
11066TIP3    H154613   6.295   6.357   2.543  0.8041 -0.4701 -0.1246
11066TIP3    H254614   6.185   6.278   2.611  1.5620 -2.2019 -0.8389
11067TIP3   OH254615   4.674   6.291  13.153  0.1827 -0.1155  0.1819
11067TIP3    H154616   4.667   6.378  13.115  1.9146 -0.1304 -0.2417
11067TIP3    H254617   4.589   6.249  13.134  0.2447  0.5957 -1.8327
11068TIP3   OH254618   3.025   1.905   5.674 -0.0234  0.5475  0.5564
11068TIP3    H154619   3.002   1.908   5.581  2.5939 -3.3309 -0.4633
11068TIP3    H254620   2.962   1.844   5.713  0.4231  0.1731  0.7092
11069TIP3   OH254621   2.005   2.522   2.932  0.3334 -0.0729 -0.4351
11069TIP3    H154622   2.057   2.531   2.853 -0.5466 -0.5943 -1.0909
11069TIP3    H254623   2.068   2.498   3.000  0.8242 -1.8719 -1.4503
11070TIP3   OH254624   0.798   2.938   5.158  0.4740  0.0942  0.0044
11070TIP3    H154625   0.869   2.996   5.185  2.5638 -1.9334 -0.8606
11070TIP3    H254626   0.839   2.873   5.102 -2.6392  0.7229 -3.3945
11071TIP3   OH254627   4.594   5.380   3.547 -0.3996  0.2277  0.2450
11071TIP3    H154628   4.658   5.333   3.601 -1.5647 -0.1808  1.3380
11071TIP3    H254629   4.647   5.434   3.488  0.9465 -0.9447  0.3264
11072TIP3   OH254630   0.927   6.095   1.652 -0.7498 -0.7161  0.0066
11072TIP3    H154631   0.963   6.178   1.684 -0.7362 -1.0166  0.8115
11072TIP3    H254632   0.872   6.064   1.725  0.8750 -2.4257  0.5867
11073TIP3   OH254633   0.670   1.467  13.503  0.1116  0.1053 -0.2885
11073TIP3    H154634   0.621   1.507  13.432  0.5591  0.1736 -0.5633
11073TIP3    H254635   0.669   1.532  13.574 -1.1473 -0.3360  0.1377
11074TIP3   OH254636   3.148   4.000  16.076 -0.0649 -0.8097 -0.3869
11074TIP3    H154637   3.091   3.924  16.066  1.5537 -2.1952  0.4028
11074TIP3    H254638   3.235   3.963  16.094  0.3472  1.1776  2.4748
11075TIP3   OH254639   4.716   6.270   5.814  0.8556  0.3517 -0.3378
11075TIP3    H154640   4.764   6.352   5.824 -1.0968  1.4916  0.2692
11075TIP3    H254641   4.675   6.277   5.728  1.5045 -0.4760 -0.7247
11076TIP3   OH254642   6.505   3.165   1.365 -0.1710 -0.2905  0.0909
11076TIP3    H154643   6.599   3.145   1.359 -0.1762 -0.3515  0.2172
11076TIP3    H254644   6.500   3.236   1.429 -0.1159  0.3764 -0.6263
11077TIP3   OH254645   0.825   3.203  16.539 -0.0045  0.4465  0.3929
11077TIP3    H154646   0.849   3.295  16.534  0.7891  0.2257  0.0537
11077TIP3    H254647   0.908   3.155  16.530 -0.5568 -0.3267 -0.9541
11078TIP3   OH254648   0.665   5.731   1.305  0.0768 -0.4534  0.4383
11078TIP3    H154649   0.719   5.746   1.228  0.4934  2.1009  1.1311
11078TIP3    H254650   0.725   5.691   1.369  0.7104  0.6631  0.5785
11079TIP3   OH254651   5.767   3.443   1.153 -0.7187 -0.0312 -0.5451
11079TIP3    H154652   5.794   3.388   1.227 -2.7735 -0.2404  0.1265
11079TIP3    H254653   5.743   3.381   1.084  0.2407  0.1379 -1.0408
11080TIP3   OH254654   0.654   0.377  15.283  0.7952 -0.2932 -0.0385
11080TIP3    H154655   0.675   0.462  15.245  3.1843 -0.3721  0.9505
11080TIP3    H254656   0.566   0.389  15.320  1.5053  2.1529  1.0932
11081TIP3   OH254657   1.370   6.049  13.064  0.1359  0.4216 -0.7826
11081TIP3    H154658   1.436   6.066  12.996  1.1725 -0.4711 -0.0330
11081TIP3    H254659   1.368   5.953  13.071 -1.1556  0.4437 -0.6921
11082TIP3   OH254660   6.258   6.152   4.328 -0.0569  0.4407 -0.1851
11082TIP3    H154661   6.212   6.188   4.251  0.5777  0.5689 -0.5089
11082TIP3    H254662   6.189   6.140   4.393 -0.3730  1.7591 -0.2534
11083TIP3   OH254663   2.367   4.357  10.397  0.2722  0.1220  0.1122
11083TIP3    H154664   2.326   4.434  10.358  0.1899  0.0283  0.0138
11083TIP3    H254665   2.457   4.384  10.415  0.0398  0.4781  0.7638
11084TIP3   OH254666   1.843   4.082  15.636 -0.1165 -0.0377 -0.0956
11084TIP3    H154667   1.909   4.150  15.648 -1.1289  1.1580 -1.0952
11084TIP3    H254668   1.821   4.055  15.725 -1.0067  2.2666  0.4524
11085TIP3   OH254669   3.654   2.503  12.745 -0.5964 -0.0778  0.0603
11085TIP3    H154670   3.605   2.450  12.808 -0.5669 -1.1941 -0.8352
11085TIP3    H254671   3.615   2.483  12.660 -0.1218  0.8075 -0.3858
11086TIP3   OH254672   3.813   2.608  13.048 -0.2626  0.1909 -0.1165
11086TIP3    H154673   3.812   2.589  13.142  0.1335 -1.2619 -0.3744
11086TIP3    H254674   3.729   2.651  13.031 -0.8196 -0.5210  0.7260
11087TIP3   OH254675   6.721   5.419  15.490  0.1862 -0.1694 -0.1151
11087TIP3    H154676   6.682   5.451  15.408 -0.3745  1.4650  0.7513
11087TIP3    H254677   6.750   5.330  15.469 -1.6816 -0.5176 -1.5487
11088TIP3   OH254678   5.187   2.665  16.344  0.5702  0.0683 -0.6358
11088TIP3    H154679   5.146   2.751  16.348  0.4464 -0.0318  0.6706
11088TIP3    H254680   5.275   2.678  16.380  2.0246  0.4114 -3.9760
11089TIP3   OH254681   5.202   3.744   6.209 -0.2344  0.4672  1.0981
11089TIP3    H154682   5.224   3.684   6.280  0.9765 -1.4619 -0.7668
11089TIP3    H254683   5.266   3.815   6.217  0.7184 -0.3786  1.2161
11090TIP3   OH254684   2.560   3.093   1.027 -0.0588 -0.4158 -0.2151
11090TIP3    H154685   2.626   3.126   0.966  0.2221 -1.9016 -0.7695
11090TIP3    H254686   2.588   3.125   1.112  1.0061 -0.4324 -0.5361
11091TIP3   OH254687   5.656   6.002  15.250  0.2856 -0.3154  0.0801
11091TIP3    H154688   5.634   6.015  15.342  1.6192  0.7604  0.2843
11091TIP3    H254689   5.654   6.090  15.212  1.8031 -0.4662 -0.4142
11092TIP3   OH254690   5.109   5.549   6.396  0.6223  0.2096  0.1171
11092TIP3    H154691   5.197   5.516   6.379  1.2008  1.2244  0.9804
11092TIP3    H254692   5.090   5.606   6.323 -0.5985 -2.2878 -1.6684
11093TIP3   OH254693   2.216   4.209   2.843 -0.1997 -1.1373  0.7742
11093TIP3    H154694   2.232   4.241   2.754  0.1425 -3.6874 -0.1632
11093TIP3    H254695   2.146   4.265   2.877  0.0711  0.2653 -0.8681
11094TIP3   OH254696   0.531   5.096  14.996 -0.1002 -0.0081  0.2065
11094TIP3    H154697   0.606   5.086  15.054  0.1577  3.0671  0.5443
11094TIP3    H254698   0.569   5.099  14.908  0.1361  0.8731  0.3282
11095TIP3   OH254699   4.152   5.378   5.819  0.7456 -0.1438 -0.0641
11095TIP3    H154700   4.099   5.440   5.868 -2.1274 -1.1052 -1.7234
11095TIP3    H254701   4.179   5.313   5.884  0.4878  0.7351  0.9477
11096TIP3   OH254702   5.799   6.288  15.748 -0.1662 -0.3121 -0.3592
11096TIP3    H154703   5.835   6.200  15.736  0.4931 -0.1510  0.3624
11096TIP3    H254704   5.792   6.298  15.842 -1.3427 -0.0190 -0.4669
11097TIP3   OH254705   0.397   2.192   2.617  0.0190 -0.0563 -0.0110
11097TIP3    H154706   0.385   2.251   2.691 -0.1520 -0.8204  0.5901
11097TIP3    H254707   0.309   2.180   2.581 -0.1857 -1.1076  0.7999
11098TIP3   OH254708   1.411   6.655  14.400  0.1196 -0.7529 -0.0900
11098TIP3    H154709   1.392   6.633  14.309 -1.9018  1.5564 -0.3166
11098TIP3    H254710   1.346   6.607  14.451  0.8719 -1.5674  0.1410
11099TIP3   OH254711   1.798   1.016  12.542  0.7960  0.1629 -0.1960
11099TIP3    H154712   1.792   1.075  12.617  0.1929  0.3511 -0.3807
11099TIP3    H254713   1.838   1.069  12.473 -2.1389  1.2796 -1.2032
11100TIP3   OH254714   2.706   1.627   2.846 -0.4088  0.4750  0.0197
11100TIP3    H154715   2.771   1.568   2.808  0.0450 -0.0258  1.4832
11100TIP3    H254716   2.743   1.651   2.932 -1.0859  2.0445 -0.0938
11101TIP3   OH254717   0.136   3.288  15.909  0.7404 -0.3245 -0.2985
11101TIP3    H154718   0.104   3.199  15.898  0.4827 -0.2528 -0.1150
11101TIP3    H254719   0.162   3.294  16.001 -0.0291  0.0440 -0.0920
11102TIP3   OH254720   5.983   3.687   0.869  0.2513 -0.1519 -0.2263
11102TIP3    H154721   6.002   3.624   0.938  1.8368 -0.1695 -0.6530
11102TIP3    H254722   5.961   3.634   0.792 -1.6698 -0.1326  0.2518
11103TIP3   OH254723   3.498   6.005   4.033  0.4825  0.2360 -0.3356
11103TIP3    H154724   3.483   6.057   3.954 -0.8337  2.7529  1.4161
11103TIP3    H254725   3.541   5.926   4.002  0.8044  1.4847 -3.4433
11104TIP3   OH254726   1.678   0.321  14.000  0.0531  0.6808 -0.5815
11104TIP3    H154727   1.671   0.256  14.070  0.9842  0.4867 -0.6588
11104TIP3    H254728   1.772   0.331  13.986 -0.1092 -0.4367 -2.8992
11105TIP3   OH254729   0.496   4.121  11.080 -0.5585 -0.3901 -0.4494
11105TIP3    H154730   0.477   4.209  11.046 -1.8201  0.5339  2.3465
11105TIP3    H254731   0.452   4.062  11.020 -0.9089  0.9832 -1.5862
11106TIP3   OH254732   1.730   1.354  12.716 -0.1875  0.5805 -0.4906
11106TIP3    H154733   1.714   1.337  12.809 -1.8306 -0.3228 -0.8945
11106TIP3    H254734   1.777   1.437  12.714  0.6146  0.1973  1.1775
11107TIP3   OH254735   3.387   3.464   0.886  0.4050 -0.9506  0.7113
11107TIP3    H154736   3.318   3.443   0.822  1.0165 -0.7381 -0.0365
11107TIP3    H254737   3.353   3.433   0.969 -0.1340 -1.8306  0.1747
11108TIP3   OH254738   0.400   5.408  16.769  0.0574  0.4059 -0.3466
11108TIP3    H154739   0.351   5.441  16.694  0.0428 -0.7310 -0.8457
11108TIP3    H254740   0.486   5.386  16.733  0.6895  1.6254  0.3579
11109TIP3   OH254741   2.586   3.642  16.562  0.2399 -0.0942  0.2437
11109TIP3    H154742   2.596   3.677  16.473 -0.0943  0.5963  0.4685
11109TIP3    H254743   2.492   3.636  16.575  0.1534 -3.9005 -0.8328
11110TIP3   OH254744   3.316   3.682   3.481 -0.8328 -0.4181  0.0154
11110TIP3    H154745   3.351   3.738   3.411 -1.6809  0.4043  0.2223
11110TIP3    H254746   3.368   3.706   3.559 -0.3102 -0.8854 -0.1795
11111TIP3   OH254747   5.896   1.307   4.104 -0.2039 -0.0450  0.1363
11111TIP3    H154748   5.845   1.350   4.036 -0.7207 -1.5659 -0.4890
11111TIP3    H254749   5.872   1.215   4.097  2.6681 -0.8818 -0.2252
11112TIP3   OH254750   1.006   6.217  11.919  0.0217  0.4421  0.0794
11112TIP3    H154751   0.956   6.137  11.934  1.5762 -0.5325  0.2586
11112TIP3    H254752   1.001   6.265  12.001 -0.2642  0.1460  0.2323
11113TIP3   OH254753   0.960   1.870   2.160  0.2309 -0.4182 -0.6951
11113TIP3    H154754   0.983   1.894   2.071  1.7059  0.4914 -0.0980
11113TIP3    H254755   0.874   1.910   2.174 -0.8621 -2.0756 -2.2538
11114TIP3   OH254756   2.625   4.368   3.269 -0.9973 -0.2973 -0.4973
11114TIP3    H154757   2.614   4.462   3.285 -0.1695 -0.4294  1.1404
11114TIP3    H254758   2.541   4.340   3.232 -1.8181  0.8231  0.4136
11115TIP3   OH254759   1.715   1.193  15.292  0.2785  0.1991 -0.5987
11115TIP3    H154760   1.638   1.156  15.333  1.1749 -2.9434 -1.4867
11115TIP3    H254761   1.753   1.251  15.358 -1.9319  0.5954  0.3957
11116TIP3   OH254762   2.722   0.559  16.988  1.0287  0.1861 -0.5111
11116TIP3    H154763   2.680   0.540  16.905  0.0599  0.4601 -0.1034
11116TIP3    H254764   2.706   0.652  17.002 -0.2587 -0.1640  0.7223
11117TIP3   OH254765   3.915   4.150   5.526  0.2221  0.4000 -0.0032
11117TIP3    H154766   3.915   4.216   5.457 -0.7626  0.1835 -0.2352
11117TIP3    H254767   3.932   4.068   5.481  1.1322  0.4406  0.2428
11118TIP3   OH254768   1.458   0.734  12.867 -0.0255  0.2555 -0.5182
11118TIP3    H154769   1.549   0.745  12.840  0.8239 -2.1175  1.0398
11118TIP3    H254770   1.406   0.759  12.790  1.9124  1.3836 -1.5253
11119TIP3   OH254771   6.320   0.146   6.267 -0.6407  0.3590 -0.3163
11119TIP3    H154772   6.245   0.155   6.208  0.2561  1.0844 -1.3859
11119TIP3    H254773   6.281   0.122   6.352 -2.1401  1.4742 -0.6491
11120TIP3   OH254774   5.510   4.216  12.122  0.0483  0.4934  0.1631
11120TIP3    H154775   5.437   4.225  12.184  0.6395 -0.2159  0.9843
11120TIP3    H254776   5.468   4.185  12.042 -0.6804  1.0176  0.3263
11121TIP3   OH254777   2.919   2.457   5.431 -0.1795 -0.1215  0.0327
11121TIP3    H154778   2.950   2.367   5.445 -2.2258 -0.7646  0.7192
11121TIP3    H254779   2.901   2.461   5.337  0.6701 -0.1448 -0.1448
11122TIP3   OH254780   2.394   5.770   6.296  0.1214 -0.5118 -0.2972
11122TIP3    H154781   2.343   5.690   6.300 -1.9319  0.7720  1.2566
11122TIP3    H254782   2.472   5.751   6.349 -0.2570 -1.5421 -0.0932
11123TIP3   OH254783   2.978   3.144  13.283  0.3359  0.2227 -0.1956
11123TIP3    H154784   3.055   3.183  13.242  0.0002  0.0595 -0.9838
11123TIP3    H254785   2.913   3.139  13.213 -0.2865  0.0592  0.3855
11124TIP3   OH254786   3.401   5.280   4.221  0.5765  0.0542  0.4127
11124TIP3    H154787   3.371   5.343   4.287  1.9522  0.7648  0.3969
11124TIP3    H254788   3.412   5.331   4.141 -1.6152 -0.9075 -0.5888
11125TIP3   OH254789   1.261   4.029   0.971  0.0161  0.2303 -0.2691
11125TIP3    H154790   1.207   4.099   1.008 -0.5195  0.0027 -0.6083
11125TIP3    H254791   1.339   4.026   1.027 -0.1849  0.7654  0.0414
11126TIP3   OH254792   6.402   3.682   0.092 -0.1278 -0.1231  0.4825
11126TIP3    H154793   6.378   3.737   0.166  0.9587  0.2588  0.5640
11126TIP3    H254794   6.498   3.687   0.088  0.0925 -2.6783  1.0186
11127TIP3   OH254795   0.520   2.061  12.997 -0.2586  0.6712 -0.1811
11127TIP3    H154796   0.429   2.088  12.989 -0.5003 -0.1223 -0.2079
11127TIP3    H254797   0.562   2.130  13.048 -1.2107  0.3116  1.1236
11128TIP3   OH254798   3.988   3.554  12.170 -0.0887  0.1577  0.3050
11128TIP3    H154799   4.044   3.513  12.235 -0.1285 -0.7417 -0.2211
11128TIP3    H254800   4.041   3.558  12.090 -0.7182 -0.6092 -0.1699
11129TIP3   OH254801   0.727   4.211  13.611 -0.5202  0.0549  0.7668
11129TIP3    H154802   0.732   4.306  13.599 -0.4718 -0.2634 -3.0985
11129TIP3    H254803   0.817   4.180  13.600 -0.4403 -0.4754  2.5489
11130TIP3   OH254804   6.479   3.029   5.996 -0.8002 -0.1476  0.3780
11130TIP3    H154805   6.544   3.099   5.989 -0.9322 -0.0430  0.1880
11130TIP3    H254806   6.523   2.961   6.046 -1.1333  0.6149  1.7634
11131TIP3   OH254807   0.951   5.606  14.986  0.5720  0.2186 -0.7743
11131TIP3    H154808   0.868   5.649  15.008  1.3366  1.0304  0.5967
11131TIP3    H254809   0.924   5.525  14.942 -0.9548  0.3167 -0.0879
11132TIP3   OH254810   1.967   0.561  12.119  0.4824 -0.2417  0.4085
11132TIP3    H154811   1.969   0.466  12.118 -1.4694 -0.3141 -0.2033
11132TIP3    H254812   2.053   0.587  12.087  1.0130 -1.7903  0.5122
11133TIP3   OH254813   3.746   4.935   3.429 -0.1114 -0.1891  0.2093
11133TIP3    H154814   3.811   4.973   3.487 -0.6047 -0.3439  0.8794
11133TIP3    H254815   3.791   4.862   3.386  0.2318 -0.1353  0.4733
11134TIP3   OH254816   1.749   2.448   0.636 -0.7987  0.4288 -0.3958
11134TIP3    H154817   1.733   2.500   0.715 -1.1331  0.5829 -0.5632
11134TIP3    H254818   1.664   2.446   0.591 -0.3037  1.4811 -1.4307
11135TIP3   OH254819   4.206   1.621  13.405 -0.0647  0.2612  0.3897
11135TIP3    H154820   4.245   1.549  13.356 -0.3507  0.8936 -0.8011
11135TIP3    H254821   4.121   1.635  13.364 -0.4453  0.6280  1.2602
11136TIP3   OH254822   4.575   1.267   0.952 -0.2165  0.2107  0.4556
11136TIP3    H154823   4.515   1.316   1.008  1.5998  1.0554  1.7416
11136TIP3    H254824   4.583   1.320   0.873 -2.0681 -0.5354 -0.3101
11137TIP3   OH254825   5.197   2.166  16.359 -0.5095  0.5264  0.2949
11137TIP3    H154826   5.140   2.156  16.435 -1.4013 -1.0196 -0.5259
11137TIP3    H254827   5.148   2.222  16.300 -1.5925 -1.4158 -0.7311
11138TIP3   OH254828   6.134   4.856  14.751  0.4841 -0.4942 -0.0131
11138TIP3    H154829   6.086   4.888  14.675  0.9852  1.8296  0.5871
11138TIP3    H254830   6.078   4.876  14.826  1.3791  0.1965  0.4953
11139TIP3   OH254831   0.905   5.948  12.618 -0.0551 -0.2601 -0.1310
11139TIP3    H154832   0.890   6.005  12.693 -1.5882 -1.5797  0.6250
11139TIP3    H254833   0.987   5.902  12.638  0.6364  0.8800 -0.2641
11140TIP3   OH254834   3.429   1.169  11.608 -0.3569  0.0065 -0.4019
11140TIP3    H154835   3.414   1.164  11.514  0.1028  1.0601 -0.5421
11140TIP3    H254836   3.525   1.173  11.617 -0.4408  1.4550  0.0137
11141TIP3   OH254837   1.300   0.811  14.218 -0.4136 -0.6723  0.0297
11141TIP3    H154838   1.313   0.737  14.158 -0.1393 -1.3332  0.8857
11141TIP3    H254839   1.215   0.796  14.258 -1.5184  0.8150 -1.6010
11142TIP3   OH254840   6.759   5.547   1.641 -0.2414  0.2166 -0.1140
11142TIP3    H154841   6.759   5.465   1.691  2.2331  0.8943  1.1134
11142TIP3    H254842   6.841   5.546   1.593 -0.5353  1.6566 -0.6872
11143TIP3   OH254843   3.852   5.000   1.769 -0.5051 -0.0612 -0.5160
11143TIP3    H154844   3.792   5.046   1.711 -0.1693 -0.4151 -1.1607
11143TIP3    H254845   3.822   5.021   1.857 -0.2901  1.4636 -0.7869
11144TIP3   OH254846   5.053   0.322   5.904 -0.0877 -0.1317  0.1684
11144TIP3    H154847   4.998   0.391   5.866 -1.2390 -1.0875  0.0451
11144TIP3    H254848   5.016   0.307   5.991  0.5065 -0.2134  0.4087
11145TIP3   OH254849   4.295   6.496   0.004 -0.0622 -0.2147 -0.1701
11145TIP3    H154850   4.266   6.408   0.027 -0.5622 -0.1266 -0.4437
11145TIP3    H254851   4.224   6.553   0.035  0.6126  0.1596  0.7063
11146TIP3   OH254852   1.602   0.154  14.216  0.5053 -0.0834 -0.7034
11146TIP3    H154853   1.539   0.096  14.172  1.7120 -0.8015 -1.5294
11146TIP3    H254854   1.554   0.188  14.291 -0.1040 -2.5824  0.1317
11147TIP3   OH254855   2.330   2.213   1.680  0.5775 -0.0763  0.0934
11147TIP3    H154856   2.403   2.212   1.618  0.3137 -1.5055 -0.2196
11147TIP3    H254857   2.263   2.266   1.638  0.1800 -1.5022 -1.1362
11148TIP3   OH254858   6.400   1.106  16.236  0.0197 -0.3369 -0.7455
11148TIP3    H154859   6.440   1.093  16.322  0.0952  1.6080 -0.4569
11148TIP3    H254860   6.471   1.094  16.174  0.6089  0.9530 -0.3535
11149TIP3   OH254861   3.500   2.089   2.437  0.0059 -0.1456 -0.0267
11149TIP3    H154862   3.425   2.147   2.428 -0.0132  0.0857  1.4511
11149TIP3    H254863   3.472   2.007   2.397 -0.7552  0.1703 -0.1501
11150TIP3   OH254864   1.743   4.191   2.588  0.1163 -0.1913  0.1160
11150TIP3    H154865   1.801   4.218   2.517  0.5433  0.0231  0.5365
11150TIP3    H254866   1.752   4.096   2.592 -0.2919 -0.2586 -0.4354
11151TIP3   OH254867   0.857   2.159  15.050  0.6124  0.0999  0.0068
11151TIP3    H154868   0.941   2.166  15.005 -0.5199  1.7157 -2.0534
11151TIP3    H254869   0.792   2.176  14.982 -1.4693 -2.0389  1.3057
11152TIP3   OH254870   1.335   1.236  17.028 -0.1723  0.4928  0.4874
11152TIP3    H154871   1.349   1.324  16.995 -1.2841  0.5123  0.0223
11152TIP3    H254872   1.317   1.248  17.122 -2.9364  1.0812 -0.0321
11153TIP3   OH254873   0.925   2.386   6.359  0.8480 -0.0980 -0.3222
11153TIP3    H154874   0.830   2.386   6.355  0.8154 -1.4250  0.0478
11153TIP3    H254875   0.950   2.476   6.336 -0.5441  0.7310  1.2202
11154TIP3   OH254876   5.824   3.826  15.596 -0.0515 -0.0212 -1.0144
11154TIP3    H154877   5.853   3.906  15.640 -1.0629  0.6185 -1.4539
11154TIP3    H254878   5.854   3.755  15.652 -0.2263  0.7250  0.0528
11155TIP3   OH254879   1.788   2.337   2.918 -0.6458 -0.4990 -0.1718
11155TIP3    H154880   1.863   2.397   2.918 -1.2359  0.2569 -0.0212
11155TIP3    H254881   1.823   2.255   2.952  0.1563 -0.2144 -0.2799
11156TIP3   OH254882   3.667   1.172   0.660 -0.3000 -0.0603 -0.6416
11156TIP3    H154883   3.576   1.145   0.674  0.0415 -1.2248 -0.5616
11156TIP3    H254884   3.716   1.090   0.658  0.8293  0.5817 -0.1487
11157TIP3   OH254885   0.643   6.690   5.421  0.2007  0.2349  0.6412
11157TIP3    H154886   0.560   6.670   5.463  0.1906  0.0591  0.5378
11157TIP3    H254887   0.709   6.680   5.490  0.2927 -0.9788  0.3926
11158TIP3   OH254888   0.752   2.905   3.194 -0.1486  0.5714 -0.4121
11158TIP3    H154889   0.835   2.875   3.158  0.9257  2.2472  0.5166
11158TIP3    H254890   0.707   2.947   3.121 -0.7996 -1.4025 -1.2288
11159TIP3   OH254891   4.606   6.454  12.723 -0.1185 -0.0355  0.3375
11159TIP3    H154892   4.689   6.476  12.679 -1.1743 -1.1069 -2.4205
11159TIP3    H254893   4.613   6.360  12.741 -0.9367 -0.2530 -0.4401
11160TIP3   OH254894   2.840   1.333  15.067  0.3762 -0.2455 -0.1521
11160TIP3    H154895   2.811   1.424  15.062 -0.1709 -0.4070 -0.0334
11160TIP3    H254896   2.780   1.293  15.129 -2.3345 -1.7467 -3.3888
11161TIP3   OH254897   3.913   3.019   3.309 -0.2532 -0.3941  0.7195
11161TIP3    H154898   3.851   3.092   3.304 -1.8121 -1.5103  2.5252
11161TIP3    H254899   3.918   2.998   3.402  0.8326 -2.0368  0.3281
11162TIP3   OH254900   1.916   2.303   3.866 -0.1096  0.6493  0.2112
11162TIP3    H154901   1.921   2.215   3.829 -2.7701 -0.0122  1.1722
11162TIP3    H254902   1.859   2.351   3.806  1.3407  1.7901 -0.3202
11163TIP3   OH254903   1.424   2.582   2.057  0.6108 -0.0904  0.0656
11163TIP3    H154904   1.433   2.521   1.984  1.9091  1.0993 -0.8240
11163TIP3    H254905   1.340   2.625   2.042  0.9370  0.2486 -0.8281
11164TIP3   OH254906   0.418   6.760   4.429 -0.2562 -0.3668  0.2387
11164TIP3    H154907   0.453   6.707   4.501  1.7313  1.4050  0.6993
11164TIP3    H254908   0.421   6.850   4.462  1.4807  0.6167 -2.2889
11165TIP3   OH254909   0.314   1.372   5.601 -0.0837 -0.5011 -0.6525
11165TIP3    H154910   0.256   1.310   5.646 -0.3113 -1.2731 -1.9652
11165TIP3    H254911   0.297   1.358   5.508  2.6380 -1.2136 -1.1296
11166TIP3   OH254912   3.705   3.076  15.913 -0.8004 -0.3063  0.7038
11166TIP3    H154913   3.717   2.981  15.915 -0.5459 -0.2620  1.6778
11166TIP3    H254914   3.775   3.108  15.856 -1.8975 -0.8298 -0.9941
11167TIP3   OH254915   5.049   3.235  15.092 -0.3650 -0.7140  0.3045
11167TIP3    H154916   5.093   3.157  15.129 -1.8255 -2.2568 -1.0657
11167TIP3    H254917   5.118   3.279  15.041  0.5486 -0.9417  1.2955
11168TIP3   OH254918   4.189   3.597  14.946  0.5508  0.0262 -0.3584
11168TIP3    H154919   4.125   3.621  15.013  1.3766 -2.6873  1.6004
11168TIP3    H254920   4.140   3.598  14.864 -0.8491  2.1316  0.4125
11169TIP3   OH254921   2.994   0.179  11.316  0.1084  0.0636 -0.1123
11169TIP3    H154922   2.996   0.127  11.235  0.3856 -0.6087  0.3172
11169TIP3    H254923   2.947   0.124  11.379  2.4824 -0.7327  1.0521
11170TIP3   OH254924   6.639   5.934   3.677  0.0586  0.3724 -0.1381
11170TIP3    H154925   6.719   5.980   3.650 -0.0407 -1.1964 -3.7415
11170TIP3    H254926   6.569   5.997   3.663  0.3601  0.6577 -0.3663
11171TIP3   OH254927   1.790   4.944  10.971  0.1450 -0.6870 -0.5387
11171TIP3    H154928   1.737   4.963  11.048 -0.5539 -0.8608 -0.9681
11171TIP3    H254929   1.820   5.029  10.940  1.4622 -0.6905  0.6268
11172TIP3   OH254930   3.117   1.701   0.749  0.0608 -0.0717 -0.1994
11172TIP3    H154931   3.091   1.783   0.790 -1.1425 -0.1834 -0.6826
11172TIP3    H254932   3.072   1.701   0.665 -0.7681 -1.6523  0.1939
11173TIP3   OH254933   2.546   1.125  15.756  0.3419  0.5927  0.0269
11173TIP3    H154934   2.588   1.043  15.782  0.1080  0.3524 -0.3502
11173TIP3    H254935   2.570   1.187  15.825  0.1244  0.0844  0.5696
11174TIP3   OH254936   4.872   6.556  15.587  0.1486  0.2495  0.9871
11174TIP3    H154937   4.888   6.484  15.648 -0.8027 -0.8597 -0.0060
11174TIP3    H254938   4.777   6.558  15.577  0.2506  0.7386 -0.0360
11175TIP3   OH254939   5.347   5.803  14.832 -0.3254  0.0524  0.6129
11175TIP3    H154940   5.384   5.775  14.748  0.9844 -0.0628  1.2069
11175TIP3    H254941   5.394   5.883  14.854  1.4185 -1.4196  2.5883
11176TIP3   OH254942   5.066   3.934   1.994 -0.0037  0.2806  0.5929
11176TIP3    H154943   4.995   3.872   2.013  0.9780 -0.1581  3.3695
11176TIP3    H254944   5.145   3.880   1.991  0.5138  1.0427 -0.1509
11177TIP3   OH254945   3.289   0.712   2.506 -0.4193  0.5766 -0.1506
11177TIP3    H154946   3.271   0.684   2.417 -1.0971  2.0064 -0.4865
11177TIP3    H254947   3.210   0.758   2.534 -1.0473 -1.5440  1.9542
11178TIP3   OH254948   2.144   3.412   4.317 -0.0817 -0.1364 -0.2960
11178TIP3    H154949   2.168   3.364   4.238  0.8401  0.2907 -0.2895
11178TIP3    H254950   2.183   3.362   4.388  0.2049  0.1836 -0.2245
11179TIP3   OH254951   6.003   6.498  12.431 -0.3433 -0.0394 -0.0789
11179TIP3    H154952   6.037   6.580  12.393 -0.2009 -0.1473 -0.1835
11179TIP3    H254953   6.064   6.431  12.401 -2.2013 -0.7122 -2.6949
11180TIP3   OH254954   3.896   1.845  16.078 -0.3889 -0.3514  0.0442
11180TIP3    H154955   3.873   1.788  16.005 -1.8738 -0.0729  0.2646
11180TIP3    H254956   3.960   1.906  16.043  0.5398 -1.5570 -0.4398
11181TIP3   OH254957   1.827   5.834   0.872 -0.0572 -0.1473 -0.2047
11181TIP3    H154958   1.906   5.798   0.833 -0.6750  0.0102 -1.6575
11181TIP3    H254959   1.787   5.885   0.802 -1.3319 -0.0457  0.5714
11182TIP3   OH254960   5.165   1.293  14.658 -0.7860  0.4902 -0.6850
11182TIP3    H154961   5.091   1.235  14.679 -0.3831  0.2349  0.0726
11182TIP3    H254962   5.174   1.350  14.735  0.3221 -0.0378 -0.3979
11183TIP3   OH254963   4.896   6.134   3.270 -0.3480  0.8074  0.1031
11183TIP3    H154964   4.805   6.162   3.262 -0.6439  0.6660  2.4414
11183TIP3    H254965   4.935   6.194   3.333  1.1184  0.6561 -0.6141
11184TIP3   OH254966   5.180   4.186   5.561 -0.2704  0.1557  0.2861
11184TIP3    H154967   5.274   4.204   5.570 -0.0806 -0.5920 -0.1591
11184TIP3    H254968   5.138   4.260   5.604  0.5256  0.4478  0.5842
11185TIP3   OH254969   6.655   3.914  14.174 -0.8473  0.8414 -0.0262
11185TIP3    H154970   6.582   3.904  14.112  0.2377  0.3812 -1.2764
11185TIP3    H254971   6.715   3.975  14.130 -1.0241  2.2279  1.5413
11186TIP3   OH254972   0.036   4.835  14.644 -0.1105 -0.1942 -0.0479
11186TIP3    H154973  -0.032   4.784  14.689 -0.2295  0.4610  0.5344
11186TIP3    H254974   0.116   4.817  14.693 -0.4094  1.2326  1.0351
11187TIP3   OH254975   1.253   0.318  12.696 -0.3542 -0.4849  0.6462
11187TIP3    H154976   1.239   0.335  12.603  0.4393 -1.3325  0.3658
11187TIP3    H254977   1.165   0.326  12.735 -0.7496 -0.4730 -0.2225
11188TIP3   OH254978   0.704   3.090  12.183  0.4210  0.9717  0.5728
11188TIP3    H154979   0.617   3.122  12.208 -0.9947 -1.1596 -1.1539
11188TIP3    H254980   0.691   3.055  12.095  2.6412 -0.9419  0.9242
11189TIP3   OH254981   4.027   3.459  10.504 -0.1392 -0.1933 -0.0614
11189TIP3    H154982   4.030   3.492  10.414 -0.7885 -0.9200 -0.3699
11189TIP3    H254983   4.076   3.523  10.555 -0.8788  0.9222 -0.7151
11190TIP3   OH254984   0.849   1.294  14.772  0.0347 -0.0338  0.0837
11190TIP3    H154985   0.944   1.281  14.778 -0.0148 -0.0318  0.9178
11190TIP3    H254986   0.824   1.330  14.856 -0.6029  0.7106 -0.4089
11191TIP3   OH254987   1.213   1.786   5.668 -0.0431  0.6973 -0.2603
11191TIP3    H154988   1.149   1.811   5.734 -1.8934  0.6699 -1.9486
11191TIP3    H254989   1.234   1.868   5.622  0.6664  0.5992 -0.1276
11192TIP3   OH254990   5.319   5.222  15.258  0.3671 -0.2511 -0.9289
11192TIP3    H154991   5.287   5.178  15.337 -1.7514 -0.1821 -1.6718
11192TIP3    H254992   5.349   5.307  15.289 -1.8983  0.4077 -0.3190
11193TIP3   OH254993   1.829   2.109   0.326 -0.5120  0.1193  0.2443
11193TIP3    H154994   1.894   2.087   0.259 -0.6565 -0.2032  0.2083
11193TIP3    H254995   1.762   2.158   0.278 -0.4936  0.1026  0.2008
11194TIP3   OH254996   2.979   0.161   4.910 -0.1082 -0.0398 -0.3696
11194TIP3    H154997   2.926   0.160   4.831 -2.4009  0.0442  1.0949
11194TIP3    H254998   3.025   0.245   4.907 -2.0415  1.0528 -0.4505
11195TIP3   OH254999   4.992   5.450   0.598 -0.0723  0.3960 -0.5600
11195TIP3    H155000   4.977   5.440   0.504 -0.3843  1.6742 -0.6588
11195TIP3    H255001   5.064   5.513   0.605  1.7026 -1.5726  0.0319
11196TIP3   OH255002   1.526   0.529  14.447 -0.1692 -0.1627 -0.1179
11196TIP3    H155003   1.551   0.556  14.359 -2.4815 -0.6978 -1.0106
11196TIP3    H255004   1.460   0.593  14.473 -0.0699 -0.4663  0.9247
11197TIP3   OH255005   4.579   1.981  14.811  0.2786  0.2326  0.1046
11197TIP3    H155006   4.609   2.014  14.896  0.1213 -2.6746  1.4058
11197TIP3    H255007   4.485   1.998  14.810  0.6770  2.9367 -0.8893
11198TIP3   OH255008   6.794   5.032  16.026  0.0855  0.3113  0.3026
11198TIP3    H155009   6.736   5.105  16.003 -0.0277  0.5857  1.3940
11198TIP3    H255010   6.735   4.965  16.059  0.3359  0.3544  0.8394
11199TIP3   OH255011   1.606   4.856  13.996 -0.1015 -0.3665 -0.0634
11199TIP3    H155012   1.589   4.913  14.070  2.2610  0.8323 -0.3674
11199TIP3    H255013   1.582   4.768  14.028 -2.8585  0.5691  0.7247
11200TIP3   OH255014   2.305   3.737   2.153  0.1051  0.3132  0.3632
11200TIP3    H155015   2.345   3.715   2.070  2.6897  0.9149  1.3707
11200TIP3    H255016   2.276   3.653   2.189  1.2669 -0.2796 -0.0443
11201TIP3   OH255017   1.818   6.461  11.555 -0.4252 -0.1443  0.0117
11201TIP3    H155018   1.843   6.550  11.530 -2.9946  0.2916 -1.2672
11201TIP3    H255019   1.787   6.470  11.645 -1.6964  0.5050 -0.4710
11202TIP3   OH255020   1.122   1.049   6.182 -0.2116 -0.1002 -0.3257
11202TIP3    H155021   1.042   1.033   6.233  1.2313 -1.1176  1.7785
11202TIP3    H255022   1.114   1.140   6.153 -0.6327  0.9699  2.7869
11203TIP3   OH255023   2.620   5.576   0.870  0.4741 -0.2123  0.2144
11203TIP3    H155024   2.532   5.539   0.879  0.2303  0.5109  1.0154
11203TIP3    H255025   2.678   5.500   0.872 -0.1018 -0.6608  0.2386
11204TIP3   OH255026   4.724   0.173   1.141  0.2317  0.0489  0.4073
11204TIP3    H155027   4.690   0.084   1.148 -1.7903  0.7305  0.0055
11204TIP3    H255028   4.760   0.179   1.053 -0.1693 -0.2097  0.2235
11205TIP3   OH255029   6.795   5.532  11.145 -0.0613 -0.5183  0.1486
11205TIP3    H155030   6.718   5.538  11.089  0.6208  1.4953 -0.6897
11205TIP3    H255031   6.865   5.504  11.086  0.2770 -0.2366  0.4105
11206TIP3   OH255032   5.861   6.607   2.143  0.0510  0.0318  0.5655
11206TIP3    H155033   5.838   6.518   2.167 -1.2472  0.0967 -0.3480
11206TIP3    H255034   5.786   6.660   2.172 -0.2718  0.4860 -0.9957
11207TIP3   OH255035   1.927   5.065   1.264  1.1030 -0.3853  0.5053
11207TIP3    H155036   1.885   5.149   1.278  1.4570 -0.0925 -0.1524
11207TIP3    H255037   1.855   5.006   1.241  0.8689 -0.2377  0.8562
11208TIP3   OH255038   4.768   0.395   6.048  0.0107  0.4933 -0.3840
11208TIP3    H155039   4.837   0.338   6.082 -1.4346 -1.0276  0.1002
11208TIP3    H255040   4.789   0.406   5.956 -1.8539 -4.4133 -1.6824
11209TIP3   OH255041   4.198   3.408   2.577  0.0968  0.6037  0.3614
11209TIP3    H155042   4.142   3.337   2.609  0.5264 -0.5010 -1.2248
11209TIP3    H255043   4.233   3.448   2.657 -3.4049  1.8360  1.5007
11210TIP3   OH255044   0.057   1.106  12.514 -0.0158 -0.4378 -0.0648
11210TIP3    H155045   0.121   1.148  12.572  0.0541  0.9963 -1.1146
11210TIP3    H255046  -0.016   1.083  12.571 -0.3590  1.7868  0.4813
11211TIP3   OH255047   0.402   5.583  14.088  0.5466  0.4226 -0.6398
11211TIP3    H155048   0.397   5.489  14.102 -0.1504  0.6629  1.0854
11211TIP3    H255049   0.486   5.609  14.126  0.4732  0.5662 -0.5718
11212TIP3   OH255050   3.802   0.711  15.082 -0.7250  0.5610 -0.9934
11212TIP3    H155051   3.818   0.802  15.110  0.3967  0.4094 -1.0922
11212TIP3    H255052   3.849   0.658  15.146 -2.8701 -0.0656  0.1391
11213TIP3   OH255053   2.197   0.325  16.385  0.0988  0.5161  0.2919
11213TIP3    H155054   2.121   0.380  16.405 -0.6317 -0.4805  0.3190
11213TIP3    H255055   2.272   0.383  16.397 -0.6698  1.6231 -0.1090
11214TIP3   OH255056   0.820   0.129   1.044  0.1288 -0.1702  0.3372
11214TIP3    H155057   0.900   0.138   1.096  0.0642  0.9388  0.2691
11214TIP3    H255058   0.836   0.185   0.968 -0.1735 -1.0086 -0.3509
11215TIP3   OH255059   3.709   4.076   4.665  0.1684 -0.6575 -0.1975
11215TIP3    H155060   3.619   4.096   4.639  0.6559  0.0405 -1.4093
11215TIP3    H255061   3.703   4.059   4.759 -0.7853  2.2718  0.3760
11216TIP3   OH255062   4.628   1.820  10.996 -0.2191  0.3394 -0.4293
11216TIP3    H155063   4.722   1.807  10.986 -0.0335  1.5276 -0.4317
11216TIP3    H255064   4.604   1.880  10.925 -0.6465  1.3513  0.5261
11217TIP3   OH255065   5.132   4.139   1.098  0.1082 -0.4302  0.2784
11217TIP3    H155066   5.226   4.136   1.118  0.4527  1.0145 -0.9438
11217TIP3    H255067   5.099   4.053   1.124  1.4083 -0.3664  2.3870
11218TIP3   OH255068   2.919   0.828  15.468 -0.9741 -0.0621  0.0632
11218TIP3    H155069   2.967   0.859  15.391 -0.2333  1.1654  0.9743
11218TIP3    H255070   2.864   0.758  15.435  0.8873 -1.0265 -1.1902
11219TIP3   OH255071   5.184   4.569  14.161 -0.0472 -0.0264 -0.3939
11219TIP3    H155072   5.154   4.523  14.082 -0.5136 -2.5981  1.1580
11219TIP3    H255073   5.117   4.636  14.176 -0.3840 -0.0401 -1.7028
11220TIP3   OH255074   0.970   1.881  14.024 -0.1339  0.1675 -0.4714
11220TIP3    H155075   0.937   1.879  13.934  2.5765 -0.5403 -1.5437
11220TIP3    H255076   1.053   1.834  14.020 -0.1424 -0.2770  2.5381
11221TIP3   OH255077   2.113   6.533  14.159 -0.3929 -0.5158 -0.0886
11221TIP3    H155078   2.036   6.496  14.202 -0.3797 -0.1111  0.2964
11221TIP3    H255079   2.093   6.626  14.149 -0.7437 -0.7486 -1.7512
11222TIP3   OH255080   0.886   2.767   2.179 -0.0473  0.5438 -0.2366
11222TIP3    H155081   0.885   2.856   2.144  2.5059  0.6857 -0.1270
11222TIP3    H255082   0.940   2.718   2.117 -0.7525 -0.7668  0.1449
11223TIP3   OH255083   3.645   2.837   5.916 -0.4394 -0.1134 -0.0860
11223TIP3    H155084   3.631   2.795   6.001 -1.5542  0.2098 -0.0867
11223TIP3    H255085   3.576   2.801   5.861 -1.0666  1.2728 -0.2426
11224TIP3   OH255086   3.325   3.442   5.002 -0.3401  0.2174 -0.0695
11224TIP3    H155087   3.357   3.490   5.078  0.0526 -1.2819  0.7469
11224TIP3    H255088   3.402   3.428   4.948  0.2648 -2.2901  1.2892
11225TIP3   OH255089   5.688   2.250   4.722 -0.2515 -0.7556  0.0567
11225TIP3    H155090   5.776   2.222   4.697 -0.6220 -1.3811 -0.5656
11225TIP3    H255091   5.684   2.236   4.816  0.9292  0.9796  0.4172
11226TIP3   OH255092   6.623   4.783  13.879  0.4497  0.2139  0.7502
11226TIP3    H155093   6.705   4.833  13.875  0.4942  0.1920  1.2875
11226TIP3    H255094   6.599   4.770  13.787  0.5398  1.0487  0.5963
11227TIP3   OH255095   3.837   1.072   3.624 -0.1471 -0.1773  0.0192
11227TIP3    H155096   3.751   1.102   3.597  0.1493  0.6383 -0.0274
11227TIP3    H255097   3.894   1.148   3.614  0.8149 -0.9852 -1.0028
11228TIP3   OH255098   5.543   2.501   1.065 -0.5483  0.3376  0.6296
11228TIP3    H155099   5.541   2.489   1.160 -0.8235 -1.4731  0.4315
11228TIP3    H255100   5.637   2.507   1.045 -0.4293 -0.3514  0.9210
11229TIP3   OH255101   5.359   1.844   1.801  0.9954  0.0850  0.0387
11229TIP3    H155102   5.407   1.820   1.880 -2.0891 -3.9761  1.0099
11229TIP3    H255103   5.386   1.780   1.735  0.8996  1.2060 -1.1436
11230TIP3   OH255104   2.806   2.311  12.325  0.1368 -0.1231  0.2878
11230TIP3    H155105   2.738   2.243  12.328 -0.1103  0.0598  4.5960
11230TIP3    H255106   2.887   2.263  12.309 -0.5834 -0.6105 -2.4805
11231TIP3   OH255107   0.506   1.311  10.687 -0.1553  0.1528  0.0797
11231TIP3    H155108   0.429   1.364  10.667  0.6879  1.0734 -0.8146
11231TIP3    H255109   0.561   1.369  10.740  0.1689 -0.3209  0.2668
11232TIP3   OH255110   3.477   5.291  15.545  0.2058  0.0073 -0.7660
11232TIP3    H155111   3.535   5.239  15.489 -0.4227  0.4570 -1.8600
11232TIP3    H255112   3.534   5.357  15.583  0.3913  0.6339 -2.0662
11233TIP3   OH255113   1.335   6.564  16.817  0.1232 -0.0552  0.6346
11233TIP3    H155114   1.392   6.640  16.825 -0.2223  0.2652  0.0766
11233TIP3    H255115   1.313   6.559  16.724 -1.4836  0.3746  0.9556
11234TIP3   OH255116   3.300   1.709   5.368 -0.6858  0.8295 -0.1476
11234TIP3    H155117   3.262   1.716   5.281 -2.3263  2.2026  0.6057
11234TIP3    H255118   3.235   1.660   5.419  1.4536 -2.4572 -0.2581
11235TIP3   OH255119   3.969   5.073  13.215 -0.3181 -0.6668  0.1435
11235TIP3    H155120   3.911   5.016  13.265 -1.1236 -1.7867 -1.9584
11235TIP3    H255121   3.934   5.161  13.228 -1.3310 -1.1093  0.4357
11236TIP3   OH255122   2.724   0.390  12.419  0.4090  0.1784 -0.7452
11236TIP3    H155123   2.681   0.406  12.335  0.9606 -0.3603 -1.1423
11236TIP3    H255124   2.799   0.335  12.397  0.0347 -0.7545  0.2275
11237TIP3   OH255125   2.145   2.443   6.014  0.0649 -0.0673  0.6999
11237TIP3    H155126   2.214   2.383   6.043 -1.0184 -2.7216 -1.6995
11237TIP3    H255127   2.182   2.486   5.938 -0.0470  0.4277  0.9254
11238TIP3   OH255128   4.769   4.879   2.288 -0.3226 -0.2887  0.0973
11238TIP3    H155129   4.786   4.895   2.196  0.3177 -0.8586  0.1115
11238TIP3    H255130   4.831   4.811   2.313 -0.4880 -0.1425  0.9475
11239TIP3   OH255131   3.960   0.126   6.177 -0.8627  0.0526 -0.2694
11239TIP3    H155132   4.055   0.134   6.180 -0.7789 -0.9180  0.0834
11239TIP3    H255133   3.927   0.192   6.238 -0.4028  0.1087 -0.0839
11240TIP3   OH255134   2.043   1.331   0.461  0.0571 -0.2337  0.1036
11240TIP3    H155135   1.993   1.385   0.522  0.6146 -0.3533  0.6723
11240TIP3    H255136   2.013   1.358   0.375 -0.8416 -0.1548  0.4282
11241TIP3   OH255137   3.035   4.180  14.980  0.2447 -0.2522  0.3239
11241TIP3    H155138   3.005   4.197  15.069  0.6585 -0.3662  0.4855
11241TIP3    H255139   3.009   4.089  14.963 -0.9946  0.1679 -0.1483
11242TIP3   OH255140   4.127   2.115   4.872  0.0577  0.2264  0.7033
11242TIP3    H155141   4.054   2.165   4.835 -0.1943 -1.2398 -0.8931
11242TIP3    H255142   4.085   2.048   4.925  0.3557  0.8258  1.7326
11243TIP3   OH255143   0.252   2.590   1.329 -0.2423  0.2728 -0.3310
11243TIP3    H155144   0.296   2.675   1.339 -0.3641  0.3356 -0.3305
11243TIP3    H255145   0.268   2.546   1.413 -0.0637  0.2408 -0.3815
11244TIP3   OH255146   0.437   3.246  12.510  0.2168  0.5917 -0.8854
11244TIP3    H155147   0.463   3.168  12.460 -0.0881  0.9348 -1.5871
11244TIP3    H255148   0.509   3.307  12.498  0.6979  0.2360  0.0970
11245TIP3   OH255149   2.402   2.763   5.516 -0.1532 -0.2436  0.1554
11245TIP3    H155150   2.436   2.674   5.523  1.5706  0.3337 -0.5865
11245TIP3    H255151   2.427   2.805   5.598  0.3641 -0.0091 -0.1200
11246TIP3   OH255152   4.947   4.865  10.431 -0.1513  0.3471  0.7518
11246TIP3    H155153   5.002   4.921  10.376  0.4759 -0.1408  0.8657
11246TIP3    H255154   4.927   4.790  10.376 -1.4982  0.9484  0.3898
11247TIP3   OH255155   3.960   6.174   0.534  0.0464 -0.2224 -0.1189
11247TIP3    H155156   3.940   6.154   0.625  1.9657 -1.6147  0.0578
11247TIP3    H255157   4.043   6.129   0.517  0.5698  1.3352 -2.0890
11248TIP3   OH255158   1.967   1.723   6.111 -0.0570 -0.1105  0.0906
11248TIP3    H155159   1.897   1.683   6.059 -0.8263  0.5850  0.5750
11248TIP3    H255160   2.025   1.649   6.133 -1.1013 -0.8501  0.4165
11249TIP3   OH255161   5.819   5.902   0.158  0.2216  0.2045 -0.3562
11249TIP3    H155162   5.829   5.892   0.252  0.6444 -1.9323 -0.5774
11249TIP3    H255163   5.906   5.883   0.122 -0.6713 -2.6115 -1.3333
11250TIP3   OH255164   4.699   5.153   1.551 -0.1911  0.1446  0.5724
11250TIP3    H155165   4.646   5.079   1.581  0.1106 -0.4747 -0.3846
11250TIP3    H255166   4.738   5.188   1.631 -1.3527  0.0810  1.1852
11251TIP3   OH255167   0.383   4.674   2.881 -0.0603 -0.0381 -0.2059
11251TIP3    H155168   0.368   4.652   2.789  1.9719  0.9003 -0.8132
11251TIP3    H255169   0.462   4.626   2.904  0.9697  1.7760  0.2201
11252TIP3   OH255170   1.040   4.972   4.011 -0.4479 -0.0924  0.2354
11252TIP3    H155171   1.045   5.040   3.944  1.1371  0.8352  1.2255
11252TIP3    H255172   1.099   4.903   3.981 -0.1992  0.0584  0.3696
11253TIP3   OH255173   1.029   4.773  12.391  0.3385  0.2844  0.2966
11253TIP3    H155174   0.939   4.776  12.423  0.7735  0.1372  1.5753
11253TIP3    H255175   1.063   4.689  12.420  0.4934 -0.2738 -1.3689
11254TIP3   OH255176   0.896   2.262  15.412 -0.3242 -0.2090 -0.7194
11254TIP3    H155177   0.831   2.210  15.366 -0.0978 -0.0574 -1.2107
11254TIP3    H255178   0.872   2.254  15.505 -1.2989  0.2068 -0.9281
11255TIP3   OH255179   4.787   0.131  14.693 -0.1120 -0.9426 -0.5146
11255TIP3    H155180   4.743   0.057  14.651 -1.7181 -0.2524 -0.1427
11255TIP3    H255181   4.831   0.092  14.769 -3.0554 -1.2637  1.1894
11256TIP3   OH255182   6.674   3.886  16.289  0.6194  0.1695 -1.1832
11256TIP3    H155183   6.606   3.952  16.272  0.3603 -0.1246 -1.2909
11256TIP3    H255184   6.743   3.907  16.225  0.8290  0.7455 -0.7720
11257TIP3   OH255185   1.390   3.424  17.063 -0.2646 -0.2302 -0.0164
11257TIP3    H155186   1.367   3.464  17.147  2.4985  0.1198  0.6934
11257TIP3    H255187   1.396   3.497  17.002  0.8113 -0.0517  0.2869
11258TIP3   OH255188   2.363   3.784  11.120  0.5673 -0.5035 -0.0681
11258TIP3    H155189   2.453   3.780  11.088  0.2364  0.7419 -1.2260
11258TIP3    H255190   2.309   3.780  11.041 -0.3652 -0.1874  0.5336
11259TIP3   OH255191   0.928   1.426   2.640 -0.3303 -0.0715  0.2707
11259TIP3    H155192   0.984   1.450   2.566 -2.0798 -1.6172 -1.7053
11259TIP3    H255193   0.932   1.330   2.643  0.2574 -0.0398  2.7245
11260TIP3   OH255194   1.193   2.358   1.728  0.5729 -0.7000  0.3303
11260TIP3    H155195   1.149   2.362   1.813 -0.9416 -1.0799 -0.3992
11260TIP3    H255196   1.198   2.264   1.708 -0.8384 -0.5655 -0.8359
11261TIP3   OH255197   6.324   0.585  14.238  0.4116 -0.3626  0.3237
11261TIP3    H155198   6.331   0.534  14.157 -0.2470 -2.0791  1.3116
11261TIP3    H255199   6.415   0.610  14.258  0.5168  0.7875 -1.3265
11262TIP3   OH255200   6.034   0.757   5.289 -0.1022  0.1391  0.1329
11262TIP3    H155201   6.011   0.698   5.360  2.7627  0.8772  1.8558
11262TIP3    H255202   6.054   0.698   5.215  0.4017 -0.9200  1.0777
11263TIP3   OH255203   5.797   1.144   4.396 -0.2829  0.1415  0.2291
11263TIP3    H155204   5.753   1.111   4.474 -0.6292  0.1239  0.0269
11263TIP3    H255205   5.728   1.185   4.344 -0.3860 -1.3612 -0.8778
11264TIP3   OH255206   2.053   5.163   2.564 -0.4204 -0.0008  0.0759
11264TIP3    H155207   2.045   5.139   2.656  0.8519 -0.2883  0.1230
11264TIP3    H255208   2.047   5.079   2.517 -1.9826  0.2285 -0.1908
11265TIP3   OH255209   6.286   5.897   6.130 -0.1913 -0.0580  0.4549
11265TIP3    H155210   6.350   5.920   6.197  0.8872 -0.1789 -0.5102
11265TIP3    H255211   6.208   5.873   6.180  0.7610 -0.7209  1.6997
11266TIP3   OH255212   4.995   4.502  12.746  0.4573  0.1565 -0.4911
11266TIP3    H155213   5.076   4.535  12.784  0.8535  0.8588 -1.8881
11266TIP3    H255214   4.979   4.559  12.670 -0.0380 -1.4813 -1.6582
11267TIP3   OH255215   2.861   3.724   0.941  0.1419 -0.1964 -0.4015
11267TIP3    H155216   2.928   3.656   0.948 -0.6323 -0.8558  0.8489
11267TIP3    H255217   2.862   3.768   1.026 -0.1012  0.6760 -0.8352
11268TIP3   OH255218   0.344   2.865  15.491  0.5211 -0.3905  0.0384
11268TIP3    H155219   0.412   2.932  15.492  0.7980 -0.6754  0.2073
11268TIP3    H255220   0.337   2.840  15.399 -1.9982  2.3160 -0.6489
11269TIP3   OH255221   2.121   2.921  12.894 -0.0471  0.4473 -0.0189
11269TIP3    H155222   2.044   2.928  12.950 -0.1814  0.8197 -0.2483
11269TIP3    H255223   2.173   2.850  12.933 -0.4367  0.2890  0.2154
11270TIP3   OH255224   3.304   6.246  12.355  0.2765  0.3852 -0.3155
11270TIP3    H155225   3.339   6.161  12.332  0.3688  0.2563  0.2841
11270TIP3    H255226   3.220   6.251  12.310 -1.0434 -1.1770  1.8104
11271TIP3   OH255227   5.534   6.673  15.322  0.1200 -0.6753  0.3517
11271TIP3    H155228   5.628   6.689  15.330  0.4173 -2.2984  0.5085
11271TIP3    H255229   5.528   6.579  15.304 -1.3626 -0.1770 -2.2230
11272TIP3   OH255230   1.414   1.181  15.164  0.5250  0.3796 -0.3609
11272TIP3    H155231   1.366   1.248  15.213  1.1888  0.4610  0.1812
11272TIP3    H255232   1.385   1.194  15.073 -1.0442 -0.0684  0.0442
11273TIP3   OH255233   2.727   6.661   2.136 -0.1929  1.0484 -0.2459
11273TIP3    H155234   2.784   6.734   2.159 -0.2392  0.4518  1.9495
11273TIP3    H255235   2.672   6.648   2.213 -1.1772 -0.3922 -1.1400
11274TIP3   OH255236   0.126   0.003   3.070 -0.5101 -0.3166 -0.0916
11274TIP3    H155237   0.113  -0.029   3.159  0.3821  0.2841  0.2663
11274TIP3    H255238   0.043   0.047   3.048 -0.8624 -0.7716  0.2986
11275TIP3   OH255239   6.759   3.032   5.838 -0.3823  0.6283 -0.1358
11275TIP3    H155240   6.845   3.056   5.802  0.0802 -0.4276  0.2059
11275TIP3    H255241   6.719   3.115   5.862  1.0204  1.1013  0.7501
11276TIP3   OH255242   0.579   0.239   3.859  0.0285 -0.0279 -0.0300
11276TIP3    H155243   0.615   0.151   3.848  0.2762 -0.3757  2.8041
11276TIP3    H255244   0.484   0.228   3.851  0.0738 -0.5037  0.1101
11277TIP3   OH255245   5.248   5.606   0.867  0.5242 -0.0551 -0.0010
11277TIP3    H155246   5.210   5.599   0.780 -0.2695  1.0249  0.2342
11277TIP3    H255247   5.237   5.698   0.891  1.7852 -0.0819  0.7722
11278TIP3   OH255248   0.896   4.184  16.265 -0.1169 -0.4637 -0.7415
11278TIP3    H155249   0.961   4.161  16.330  0.8778  1.9062 -0.7953
11278TIP3    H255250   0.846   4.255  16.305 -0.3904  0.0957 -2.0131
11279TIP3   OH255251   5.862   1.688   1.932 -0.5454  0.7481 -0.2147
11279TIP3    H155252   5.853   1.697   2.027  0.9303 -0.2670  0.0634
11279TIP3    H255253   5.816   1.606   1.912 -1.9081  1.5726 -0.5934
11280TIP3   OH255254   2.615   1.489  14.342 -0.7309 -0.2339  0.4568
11280TIP3    H155255   2.654   1.489  14.429 -0.4833 -0.8460  0.3520
11280TIP3    H255256   2.537   1.543  14.350 -1.4320 -1.3373  1.3806
11281TIP3   OH255257   1.623   6.668   0.010 -0.3087  0.0529  0.2702
11281TIP3    H155258   1.713   6.637   0.012 -0.4779 -0.4559  0.2245
11281TIP3    H255259   1.629   6.761   0.030  0.1737 -0.1014  0.8691
11282TIP3   OH255260   2.597   2.522   1.542  0.1451  0.4000 -0.0339
11282TIP3    H155261   2.625   2.433   1.522 -0.7522  0.0777  0.0662
11282TIP3    H255262   2.661   2.555   1.604  0.4837 -0.1764 -0.0718
11283TIP3   OH255263   6.581   5.173  13.356 -0.8381  0.4949 -0.4263
11283TIP3    H155264   6.633   5.232  13.302 -1.5130  1.9704  0.4581
11283TIP3    H255265   6.517   5.230  13.399 -0.5154 -0.6402  1.6893
11284TIP3   OH255266   0.331   4.198  11.699 -0.4537 -0.4753  0.0939
11284TIP3    H155267   0.294   4.275  11.658 -0.2020 -0.8201 -0.7925
11284TIP3    H255268   0.426   4.208  11.690 -0.4413 -1.4834 -1.1725
11285TIP3   OH255269   5.536   5.337   0.636 -0.1053  0.0956 -0.4141
11285TIP3    H155270   5.462   5.285   0.669 -1.7280  1.6967 -1.3384
11285TIP3    H255271   5.523   5.339   0.541  2.6111 -1.6816 -0.9096
11286TIP3   OH255272   0.115   2.305   4.168 -0.6321 -0.2191 -0.2482
11286TIP3    H155273   0.059   2.288   4.244 -0.8627 -0.3611 -0.4469
11286TIP3    H255274   0.128   2.219   4.128 -0.0556 -0.2234 -0.0590
11287TIP3   OH255275   3.717   6.002   0.880 -0.4860  0.2288  0.0975
11287TIP3    H155276   3.788   5.944   0.907 -2.6033 -2.5398  0.2465
11287TIP3    H255277   3.704   6.061   0.954  2.1087  1.3805 -0.2750
11288TIP3   OH255278   4.377   2.518   5.131  0.3456  0.1281 -0.3750
11288TIP3    H155279   4.432   2.519   5.209  0.7506  0.5227 -0.6577
11288TIP3    H255280   4.288   2.532   5.163  0.7245  2.3794 -0.1258
11289TIP3   OH255281   3.745   5.746  10.322 -0.7351  0.6879 -0.2338
11289TIP3    H155282   3.651   5.735  10.338 -0.7840 -0.0042 -0.9596
11289TIP3    H255283   3.784   5.664  10.352 -0.5144  0.4720 -1.0816
11290TIP3   OH255284   5.544   3.543  16.634 -0.5068  0.0540 -0.6142
11290TIP3    H155285   5.564   3.552  16.727 -0.4548  0.5215 -0.6633
11290TIP3    H255286   5.453   3.570  16.626 -0.1953  1.0859 -0.8491
11291TIP3   OH255287   3.318   0.070   4.655 -0.2981 -0.0685 -0.7673
11291TIP3    H155288   3.277  -0.005   4.699  1.1855 -0.1910  0.5381
11291TIP3    H255289   3.362   0.118   4.726 -0.0993  1.2873 -1.7712
11292TIP3   OH255290   5.645   6.146   5.005 -0.1495 -0.4804 -0.0465
11292TIP3    H155291   5.567   6.174   4.957 -0.6333 -0.9480  0.4574
11292TIP3    H255292   5.624   6.059   5.038  0.6083 -0.6358  0.0529
11293TIP3   OH255293   0.096   1.977   0.916  0.3809  0.3817 -0.4142
11293TIP3    H155294   0.124   2.025   0.838  0.1055 -1.5738 -1.7858
11293TIP3    H255295   0.177   1.961   0.964  0.7624  0.2902 -1.0757
11294TIP3   OH255296   1.423   2.386   1.129  0.3230  0.3584 -0.0935
11294TIP3    H155297   1.347   2.423   1.174  0.6097  0.2488  0.4889
11294TIP3    H255298   1.474   2.344   1.198  1.4758  1.3601 -0.2942
11295TIP3   OH255299   6.737   0.494   1.203 -0.0166  0.4613 -0.2713
11295TIP3    H155300   6.687   0.566   1.165  1.1637  0.5103 -1.8258
11295TIP3    H255301   6.828   0.521   1.195  0.3798 -0.6154  0.4141
11296TIP3   OH255302   6.195   1.735  12.349 -0.2585 -0.0380 -0.0688
11296TIP3    H155303   6.261   1.672  12.375 -1.8551 -2.5792 -1.7401
11296TIP3    H255304   6.158   1.767  12.431 -0.3784 -2.4351  0.8853
11297TIP3   OH255305   3.142   2.425   0.053 -0.2279  0.2172 -0.0303
11297TIP3    H155306   3.084   2.456   0.122  1.9287 -1.6966  2.8691
11297TIP3    H255307   3.182   2.504   0.017 -0.7245  1.2327  1.5673
11298TIP3   OH255308   6.551   2.958  10.562  0.1010  0.0588 -0.0052
11298TIP3    H155309   6.505   2.880  10.532 -0.3792  0.2463  0.2429
11298TIP3    H255310   6.504   3.032  10.523  0.6117  0.2249 -0.3207
11299TIP3   OH255311   3.046   1.013  16.422 -0.3283 -0.3451 -0.2142
11299TIP3    H155312   3.085   0.960  16.492  0.0955  1.3610  0.8920
11299TIP3    H255313   3.114   1.019  16.355  0.3073  0.2945  0.4694
11300TIP3   OH255314   2.921   4.410   2.553  0.6713  0.3873  0.2367
11300TIP3    H155315   2.891   4.320   2.569  1.2850  0.2661  0.7998
11300TIP3    H255316   2.919   4.451   2.640  0.8008  0.7855  0.0513
11301TIP3   OH255317   3.312   6.403   2.929 -0.4263  0.1758 -0.1036
11301TIP3    H155318   3.236   6.404   2.872  0.2338  0.8864 -0.9910
11301TIP3    H255319   3.386   6.384   2.871 -0.0063 -1.4611  0.8742
11302TIP3   OH255320   0.539   4.685  11.622  0.3526 -0.4453 -0.3557
11302TIP3    H155321   0.565   4.771  11.589 -0.1406 -0.6140 -1.2304
11302TIP3    H255322   0.585   4.676  11.705 -3.0747  2.6077  2.1951
11303TIP3   OH255323   6.389   6.613  12.060 -0.8394  0.1965  0.3980
11303TIP3    H155324   6.448   6.542  12.085 -1.2456  0.3583  1.9219
11303TIP3    H255325   6.446   6.678  12.019 -0.4253 -0.8802 -0.8220
11304TIP3   OH255326   5.160   1.967   6.512  0.3369 -0.3773  0.1482
11304TIP3    H155327   5.212   2.016   6.449  0.1336  0.0465  0.3056
11304TIP3    H255328   5.167   2.017   6.593  2.8589 -2.3269  1.2777
11305TIP3   OH255329   2.896   6.469   0.559 -0.1422 -0.8826 -0.4534
11305TIP3    H155330   2.893   6.399   0.494  0.4143 -0.5430 -0.8465
11305TIP3    H255331   2.990   6.484   0.575 -0.2579 -0.3482 -0.2376
11306TIP3   OH255332   2.310   5.896   2.102  0.3979  0.0475 -0.5860
11306TIP3    H155333   2.397   5.884   2.140 -0.4441 -2.1765  0.8584
11306TIP3    H255334   2.278   5.978   2.140  1.2158  0.0148  0.2128
11307TIP3   OH255335   6.403   0.692   4.265  0.4060 -0.4399 -0.4594
11307TIP3    H155336   6.336   0.761   4.273  1.7439  0.9785 -0.8444
11307TIP3    H255337   6.368   0.619   4.315 -0.5583  0.9318  0.9987
11308TIP3   OH255338   2.745   1.709  17.031  0.2107 -0.0306 -0.2744
11308TIP3    H155339   2.675   1.773  17.018  0.8777  0.5735 -1.0463
11308TIP3    H255340   2.789   1.705  16.946  1.0034 -0.5305  0.1462
11309TIP3   OH255341   4.093   4.676  11.307 -0.0271 -0.0351 -0.0809
11309TIP3    H155342   4.064   4.713  11.391 -1.0075 -0.4515 -0.2252
11309TIP3    H255343   4.088   4.581  11.320 -1.6737 -0.1261 -1.0793
11310TIP3   OH255344   1.338   4.783  15.494  0.7127 -0.1323 -0.1362
11310TIP3    H155345   1.343   4.696  15.453 -0.9220  0.0937 -0.8721
11310TIP3    H255346   1.265   4.776  15.556  1.7432  0.2033  1.1700
11311TIP3   OH255347   3.358   6.013   5.128  0.1907  0.5828 -0.0152
11311TIP3    H155348   3.264   6.025   5.116  0.3212 -0.4657 -2.9473
11311TIP3    H255349   3.365   5.960   5.207 -1.5945  1.4321  0.7786
11312TIP3   OH255350   2.823   5.291  14.273  0.1165  0.0847  0.7443
11312TIP3    H155351   2.727   5.290  14.279 -0.0853 -4.7112  1.2347
11312TIP3    H255352   2.850   5.349  14.344 -2.4739  0.3962  1.6100
11313TIP3   OH255353   1.001   0.865   4.931 -0.6364 -0.3030  0.1749
11313TIP3    H155354   1.095   0.848   4.942 -0.6698  0.1202  1.1568
11313TIP3    H255355   0.994   0.960   4.933 -1.1203 -0.3434  0.3348
11314TIP3   OH255356   6.691   3.023   0.101 -0.5946 -0.2803  0.7135
11314TIP3    H155357   6.778   3.057   0.080 -0.6586 -0.1226  0.6997
11314TIP3    H255358   6.641   3.101   0.127 -0.8042 -0.3340  0.4709
11315TIP3   OH255359   5.295   2.904   2.684  0.3299  0.1194  0.2528
11315TIP3    H155360   5.305   2.809   2.684  4.5623  0.3802 -0.7331
11315TIP3    H255361   5.273   2.925   2.593 -0.0762  0.1697  0.3579
11316TIP3   OH255362   3.024   5.216  16.749 -0.4019 -0.0332  0.1969
11316TIP3    H155363   3.053   5.285  16.808 -0.8735  0.1989  0.1627
11316TIP3    H255364   2.956   5.170  16.799  0.7384 -1.2450  0.6987
11317TIP3   OH255365   3.579   6.548  17.134 -0.6059  0.1121  0.2819
11317TIP3    H155366   3.500   6.592  17.101 -1.0662  0.5406  1.8811
11317TIP3    H255367   3.559   6.528  17.225  0.7077 -0.8480  0.3814
11318TIP3   OH255368   3.836   3.094  10.392  0.1581  0.4729 -0.3297
11318TIP3    H155369   3.743   3.073  10.392  0.3406 -0.3700  0.4021
11318TIP3    H255370   3.880   3.011  10.378  0.8651  0.4268  1.7580
11319TIP3   OH255371   4.053   2.491  11.282  0.5164 -1.0415  0.1063
11319TIP3    H155372   4.139   2.532  11.275 -0.7028  1.7421  0.1051
11319TIP3    H255373   3.999   2.557  11.326 -2.3541 -1.4315 -2.5395
11320TIP3   OH255374   6.340   5.844   4.825 -0.3875  0.0238 -0.6347
11320TIP3    H155375   6.280   5.776   4.855 -0.6458  0.0651 -1.0567
11320TIP3    H255376   6.364   5.817   4.737  1.1771 -0.6483 -0.0424
11321TIP3   OH255377   6.564   1.176   3.568 -0.5317  0.1119 -0.3324
11321TIP3    H155378   6.481   1.219   3.549 -0.7004  0.2289  0.6424
11321TIP3    H255379   6.545   1.083   3.558 -0.9162  0.1097  0.3689
11322TIP3   OH255380   6.426   4.502   5.122  0.6246 -0.7567  0.2759
11322TIP3    H155381   6.407   4.415   5.157 -1.9279 -0.0191  1.0174
11322TIP3    H255382   6.379   4.505   5.038  1.7200 -0.4927 -0.3442
11323TIP3   OH255383   1.038   5.170  16.176 -0.0968 -0.2955 -0.4397
11323TIP3    H155384   1.078   5.114  16.109 -2.1077 -0.8952 -1.2082
11323TIP3    H255385   1.006   5.246  16.127 -1.5593 -0.7270 -0.1896
11324TIP3   OH255386   2.422   4.141  14.650 -0.0583 -0.1245 -0.2851
11324TIP3    H155387   2.374   4.148  14.568 -2.4184  0.8594  1.0833
11324TIP3    H255388   2.498   4.199  14.638 -0.6337  0.4020 -1.5849
11325TIP3   OH255389   1.900   1.647  14.170  0.0861  0.2847  0.2446
11325TIP3    H155390   1.888   1.611  14.082  2.9246  0.6334 -0.3690
11325TIP3    H255391   1.887   1.741  14.160 -1.6831  0.1347  0.7013
11326TIP3   OH255392   3.314   3.409   1.282 -0.2589  0.7486 -0.5268
11326TIP3    H155393   3.296   3.453   1.365 -2.0808 -0.1139 -0.4152
11326TIP3    H255394   3.244   3.343   1.274  2.0619 -1.8311 -0.9083
11327TIP3   OH255395   5.601   1.935  12.796 -0.0343  0.6143  0.5266
11327TIP3    H155396   5.526   1.943  12.738  0.2429  0.5375  0.1529
11327TIP3    H255397   5.571   1.879  12.867  0.1146 -0.6419 -0.3742
11328TIP3   OH255398   0.888   6.712   3.257 -0.1250 -0.1084  0.4343
11328TIP3    H155399   0.861   6.804   3.264  1.2742  0.3495  0.1206
11328TIP3    H255400   0.983   6.716   3.245 -0.3046 -1.4941 -2.0387
11329TIP3   OH255401   5.196   6.128   4.321  0.3699  0.0749  0.4327
11329TIP3    H155402   5.204   6.217   4.286  0.3498 -0.3158 -0.6026
11329TIP3    H255403   5.101   6.115   4.331  0.3273 -0.1060 -0.1723
11330TIP3   OH255404   0.313   1.329  15.994  0.3739 -0.2740  0.0210
11330TIP3    H155405   0.348   1.335  16.083 -0.0901  0.2913  0.1692
11330TIP3    H255406   0.353   1.403  15.948 -1.1378  0.8043  0.3793
11331TIP3   OH255407   5.757   4.876  12.130 -0.3207 -0.2061  0.5352
11331TIP3    H155408   5.841   4.839  12.101 -1.1837 -2.7915  1.0855
11331TIP3    H255409   5.701   4.874  12.053 -0.4303 -0.1983  0.6144
11332TIP3   OH255410   2.427   2.709   2.462 -0.2314  0.1731 -0.7741
11332TIP3    H155411   2.479   2.630   2.449  0.5451  0.2570  1.4174
11332TIP3    H255412   2.370   2.688   2.537  0.0840  1.7171 -0.0747
11333TIP3   OH255413   6.373   3.385  13.743 -0.6524 -0.0323  0.0982
11333TIP3    H155414   6.332   3.439  13.811 -0.0725  1.1378 -0.4341
11333TIP3    H255415   6.361   3.295  13.772  1.0970  0.4454  2.6562
11334TIP3   OH255416   6.505   2.487   5.011 -0.1942 -0.4307 -0.0973
11334TIP3    H155417   6.591   2.457   4.982  0.8861  1.8402  0.5771
11334TIP3    H255418   6.509   2.485   5.106  0.5846  3.2532  0.0750
11335TIP3   OH255419   1.927   2.714  15.166  0.0001 -0.2955 -0.1929
11335TIP3    H155420   1.906   2.729  15.258  1.5013  3.0346 -0.2570
11335TIP3    H255421   1.859   2.654  15.135 -1.6709 -0.0087  2.5940
11336TIP3   OH255422   2.918   5.050   3.715 -0.1916 -0.1129 -0.1532
11336TIP3    H155423   2.869   5.033   3.634 -2.2363 -1.2163  1.2261
11336TIP3    H255424   3.007   5.021   3.696 -0.4223  0.4152 -2.2445
11337TIP3   OH255425   6.444   4.211   6.018 -0.1238 -0.1225  0.7717
11337TIP3    H155426   6.444   4.259   6.101  0.7446  0.8428  0.2339
11337TIP3    H255427   6.535   4.184   6.005 -0.0930  0.4370 -0.2585
11338TIP3   OH255428   0.207   0.756   0.421 -0.0252  0.3590  0.4905
11338TIP3    H155429   0.171   0.686   0.475 -0.6432  1.7313  1.9282
11338TIP3    H255430   0.281   0.715   0.376 -0.7630 -1.3763  0.7835
11339TIP3   OH255431   0.466   4.965   1.979  0.0952 -0.4147  0.3263
11339TIP3    H155432   0.518   4.924   1.910  0.0819 -0.4203  0.3196
11339TIP3    H255433   0.377   4.936   1.963  0.2163 -1.0963  0.8454
11340TIP3   OH255434   1.143   3.479   4.837 -0.2809 -0.3953  0.2719
11340TIP3    H155435   1.222   3.425   4.835  0.6124  0.8994 -1.1816
11340TIP3    H255436   1.165   3.557   4.786 -2.1218  0.5404  0.8065
11341TIP3   OH255437   1.868   6.063  14.790  0.1478 -0.1526 -0.0365
11341TIP3    H155438   1.921   6.108  14.856  1.3310 -0.4532 -0.7473
11341TIP3    H255439   1.889   5.970  14.802 -2.9027 -0.7341  1.9866
11342TIP3   OH255440   2.973   3.717  10.881 -0.1246 -0.9070  0.0223
11342TIP3    H155441   2.987   3.811  10.869 -0.1307 -0.9700 -0.5351
11342TIP3    H255442   2.944   3.708  10.971  1.4986 -0.5664  0.6114
11343TIP3   OH255443   6.436   2.993  14.459  0.0095  0.1202 -0.4187
11343TIP3    H155444   6.442   3.089  14.463  1.9731 -0.0020  0.4478
11343TIP3    H255445   6.470   2.970  14.373 -0.0597  0.1713 -0.4606
11344TIP3   OH255446   0.501   0.743   1.981  0.4741  0.3472 -0.3347
11344TIP3    H155447   0.463   0.698   2.056 -0.1756 -1.2190 -1.5330
11344TIP3    H255448   0.458   0.828   1.979  0.2679  0.2873  0.8596
11345TIP3   OH255449   2.083   3.873  12.601 -0.2317  0.2193  0.0610
11345TIP3    H155450   2.155   3.909  12.550 -0.7562  1.8991  0.4298
11345TIP3    H255451   2.044   3.950  12.644 -1.4199 -0.8147  0.8927
11346TIP3   OH255452   2.041   3.807  16.009  0.0016 -0.0032  0.2207
11346TIP3    H155453   2.001   3.723  15.984 -0.9637  0.1040  1.3066
11346TIP3    H255454   2.061   3.797  16.102  0.3644  0.7832  0.2342
11347TIP3   OH255455   6.167   1.353  13.367  0.0898  0.2513 -0.5869
11347TIP3    H155456   6.199   1.322  13.282 -2.7730  0.3714 -1.8225
11347TIP3    H255457   6.161   1.273  13.420 -0.0962 -0.1553 -1.2099
11348TIP3   OH255458   1.073   3.380   5.111 -0.2057  0.3078 -0.3188
11348TIP3    H155459   1.080   3.469   5.148 -1.8941  0.4523 -0.2594
11348TIP3    H255460   1.123   3.384   5.030  2.1678  0.4704  1.0621
11349TIP3   OH255461   1.254   5.886  14.983 -0.1842  0.2152  0.2186
11349TIP3    H155462   1.166   5.925  14.976 -1.4283 -2.2863  0.7893
11349TIP3    H255463   1.309   5.958  15.014 -2.1923  1.6598  0.6833
11350TIP3   OH255464   2.620   4.454  14.718 -0.3389  0.1050  0.0275
11350TIP3    H155465   2.712   4.430  14.722 -0.7582 -1.5847  0.1790
11350TIP3    H255466   2.588   4.440  14.807 -0.7499  0.6876 -0.0217
11351TIP3   OH255467   0.530   5.988   5.551  0.6884  0.7052 -0.3131
11351TIP3    H155468   0.486   6.029   5.626  0.1403 -0.0295 -0.2201
11351TIP3    H255469   0.609   6.040   5.538 -0.0801  1.9134 -0.3224
11352TIP3   OH255470   6.153   1.019  14.937 -0.0647 -0.2119 -0.1127
11352TIP3    H155471   6.228   0.963  14.913  0.1150  0.2132 -0.5746
11352TIP3    H255472   6.138   1.072  14.859 -0.4596  0.1385  0.2009
11353TIP3   OH255473   2.414   2.327  16.067 -0.0564  0.5260 -0.2100
11353TIP3    H155474   2.335   2.301  16.019 -0.2389  2.5940 -1.1262
11353TIP3    H255475   2.485   2.309  16.005  0.0680 -0.0949  0.1092
11354TIP3   OH255476   4.298   2.156  11.113  0.0505  0.5704 -0.0132
11354TIP3    H155477   4.360   2.214  11.069 -1.3996  1.2544 -1.2443
11354TIP3    H255478   4.230   2.139  11.048 -1.4264  0.4249  1.4915
11355TIP3   OH255479   0.890   3.742  14.243  0.5931 -0.1245 -0.7571
11355TIP3    H155480   0.803   3.762  14.209 -0.8743  0.0713  2.7052
11355TIP3    H255481   0.945   3.814  14.212 -0.6300  0.1875 -2.3138
11356TIP3   OH255482   6.003   2.326  12.715  0.3370  0.3980  0.3913
11356TIP3    H155483   6.050   2.391  12.663  0.9399 -0.6253 -0.3929
11356TIP3    H255484   5.923   2.370  12.744 -0.0651  0.9732 -1.4897
11357TIP3   OH255485   3.469   0.761   2.089  0.3580 -0.6149  0.0159
11357TIP3    H155486   3.408   0.748   2.161  0.7765 -1.7342  0.1923
11357TIP3    H255487   3.417   0.746   2.010  0.1238 -0.3653  0.1233
11358TIP3   OH255488   3.793   2.824  13.347  0.0547  0.1329 -0.3471
11358TIP3    H155489   3.728   2.854  13.283 -0.8628  3.3889  1.8587
11358TIP3    H255490   3.858   2.895  13.349  1.4276 -1.1092  0.5330
11359TIP3   OH255491   0.935   4.334  14.100  0.1699 -0.4956  0.1751
11359TIP3    H155492   0.942   4.425  14.070 -1.4742 -0.0850  0.9188
11359TIP3    H255493   0.881   4.291  14.035  0.4214 -0.7918  0.1570
11360TIP3   OH255494   1.017   1.694  14.321  0.2528 -0.0442 -0.2368
11360TIP3    H155495   1.089   1.749  14.349 -0.1269 -1.0576  3.2171
11360TIP3    H255496   0.939   1.747  14.334  0.0107 -0.7774  1.5920
11361TIP3   OH255497   4.895   2.400   4.472  0.0118  0.9034  0.0937
11361TIP3    H155498   4.850   2.316   4.463 -0.1856  1.1114 -0.9674
11361TIP3    H255499   4.898   2.435   4.383  4.4502 -0.2092 -0.4650
11362TIP3   OH255500   5.979   5.835   2.270  0.4957  0.2901  0.4721
11362TIP3    H155501   5.941   5.812   2.355  1.2994  0.0706  0.7776
11362TIP3    H255502   5.905   5.869   2.220 -0.0453  0.1619  1.1606
11363TIP3   OH255503   1.129   2.174  14.872 -0.3607 -0.5061  0.4334
11363TIP3    H155504   1.183   2.187  14.950  0.4090  1.8207 -0.4124
11363TIP3    H255505   1.190   2.141  14.806 -0.3447  0.3719 -0.0035
11364TIP3   OH255506   6.075   1.828  15.686  0.0604 -0.9985  0.7453
11364TIP3    H155507   6.164   1.811  15.654 -0.6191 -1.5546 -0.9511
11364TIP3    H255508   6.031   1.872  15.614 -1.3057 -1.5364  1.2154
11365TIP3   OH255509   5.045   2.346   5.244 -0.4213 -0.4607 -0.1214
11365TIP3    H155510   5.119   2.295   5.210  0.2431 -0.4431  1.2626
11365TIP3    H255511   5.014   2.396   5.168  3.2497  2.2858 -0.0688
11366TIP3   OH255512   2.663   5.843  14.217  0.9889  1.0143  0.0199
11366TIP3    H155513   2.608   5.893  14.157  0.7980  0.3350 -0.3876
11366TIP3    H255514   2.633   5.752  14.207 -0.1802  1.0744  2.3844
11367TIP3   OH255515   3.361   4.368   2.813  0.0394  0.0613 -0.4265
11367TIP3    H155516   3.331   4.458   2.802 -0.3678  0.0472  0.4974
11367TIP3    H255517   3.280   4.317   2.826  0.1103 -0.7342 -2.7105
11368TIP3   OH255518   6.193   4.204  14.020 -0.5808  0.0253 -0.3746
11368TIP3    H155519   6.122   4.268  14.028 -0.3236  0.2153  0.6025
11368TIP3    H255520   6.224   4.212  13.930  1.3347  3.3136  0.4135
11369TIP3   OH255521   3.498   1.302  14.974 -0.5689  0.1231 -0.2155
11369TIP3    H155522   3.525   1.382  14.929 -1.0716  0.3827 -0.0711
11369TIP3    H255523   3.413   1.280  14.934 -0.6058 -0.1317 -0.0000
11370TIP3   OH255524   1.036   4.538  13.655  0.0871 -0.1345 -0.8102
11370TIP3    H155525   1.093   4.467  13.626 -0.1663 -0.5703 -0.2521
11370TIP3    H255526   1.053   4.546  13.749 -0.2798  0.1842 -0.7688
11371TIP3   OH255527   1.463   1.920  15.900 -0.6145  0.1517  0.2109
11371TIP3    H155528   1.520   1.908  15.976  0.3407  2.6378 -0.0266
11371TIP3    H255529   1.439   1.831  15.873  2.3917 -0.9769  0.9056
11372TIP3   OH255530   1.648   3.383  15.561 -0.5914  0.2254  0.0728
11372TIP3    H155531   1.582   3.428  15.614 -1.3651 -0.1195 -0.5890
11372TIP3    H255532   1.678   3.312  15.617  0.0699  1.0762  0.8226
11373TIP3   OH255533   1.954   3.104  13.186  0.5274 -0.8412 -0.2590
11373TIP3    H155534   1.974   3.190  13.148 -0.4436 -0.0888  0.8619
11373TIP3    H255535   2.010   3.100  13.264  0.4210 -1.1428 -0.1996
11374TIP3   OH255536   5.145   4.022  16.835 -0.2054  0.1076 -0.0106
11374TIP3    H155537   5.126   4.096  16.777  0.2731  0.6664  0.5309
11374TIP3    H255538   5.113   3.945  16.788 -0.4142  0.6255 -0.7239
11375TIP3   OH255539   5.184   3.604  15.043  0.3347  0.1532  0.3110
11375TIP3    H155540   5.219   3.515  15.033 -0.8582 -0.3528  0.5420
11375TIP3    H255541   5.260   3.655  15.072  0.9900 -0.8337  0.4147
11376TIP3   OH255542   0.844   3.743   4.661  0.5294 -0.2790 -0.5631
11376TIP3    H155543   0.865   3.649   4.658 -0.7020 -0.5823 -0.7239
11376TIP3    H255544   0.786   3.756   4.585  1.4643  0.8357 -1.1154
11377TIP3   OH255545   4.664   6.547   4.151  0.0877 -0.4068 -0.1590
11377TIP3    H155546   4.698   6.488   4.084 -0.2311 -0.2622 -0.4510
11377TIP3    H255547   4.742   6.588   4.189  0.2276  0.1884 -1.0668
11378TIP3   OH255548   2.184   0.010  11.635 -0.0566 -0.0249 -0.5018
11378TIP3    H155549   2.131  -0.064  11.664  1.2947 -0.4095  1.1163
11378TIP3    H255550   2.235   0.035  11.712 -0.0259  2.2207 -1.1667
11379TIP3   OH255551   2.223   3.183  10.415 -0.1018 -0.3422 -0.3528
11379TIP3    H155552   2.254   3.273  10.409 -0.7480 -0.2011 -2.3528
11379TIP3    H255553   2.135   3.190  10.451 -0.1841 -0.1570 -0.5878
11380TIP3   OH255554   4.581   0.988  15.891  0.0022 -0.1109 -0.3805
11380TIP3    H155555   4.632   1.051  15.942  0.2700 -0.1784 -0.5580
11380TIP3    H255556   4.580   0.909  15.946 -0.6693  0.1642  0.0183
11381TIP3   OH255557   3.234   3.506   1.555 -0.0585  0.1426 -0.6579
11381TIP3    H155558   3.297   3.496   1.626 -1.2138 -0.0117  0.3922
11381TIP3    H255559   3.176   3.577   1.584 -0.3842  0.2720 -1.5779
11382TIP3   OH255560   4.742   5.976  12.378 -0.1885  0.3446  0.0732
11382TIP3    H155561   4.653   5.972  12.414 -0.7675  0.4550 -1.2750
11382TIP3    H255562   4.799   5.987  12.454 -1.3570  0.5810  0.9315
11383TIP3   OH255563   1.208   0.212   0.835  0.3648 -0.1167 -0.0635
11383TIP3    H155564   1.204   0.141   0.771  1.7700 -1.0277  0.8220
11383TIP3    H255565   1.301   0.232   0.843  0.0302  1.6665 -0.0803
11384TIP3   OH255566   0.533   4.452  12.995 -0.1336  0.1197 -0.0346
11384TIP3    H155567   0.447   4.491  13.004  0.4174  1.4503 -0.3061
11384TIP3    H255568   0.547   4.445  12.900 -0.0029 -0.2151  0.0076
11385TIP3   OH255569   1.039   3.747  12.184 -0.8864 -0.2922  0.8624
11385TIP3    H155570   1.029   3.652  12.192  1.0547 -0.5103  1.1128
11385TIP3    H255571   1.052   3.778  12.274  0.5298 -0.0818  0.6095
11386TIP3   OH255572   2.632   4.758   1.378  0.1045  0.6947 -0.3911
11386TIP3    H155573   2.719   4.721   1.368 -0.2556 -0.3457  0.1124
11386TIP3    H255574   2.634   4.805   1.461  0.3535  1.1828 -0.6720
11387TIP3   OH255575   2.362   5.992  15.695  0.7864  0.9209  0.2263
11387TIP3    H155576   2.273   5.978  15.728  1.2160 -1.2107  0.6935
11387TIP3    H255577   2.354   5.978  15.601  0.7642 -0.4432  0.3967
11388TIP3   OH255578   5.416   0.604  15.495  0.1043 -0.3858  0.5068
11388TIP3    H155579   5.409   0.562  15.409 -1.1983  0.5092  0.1511
11388TIP3    H255580   5.345   0.566  15.546 -0.8296  1.0141  0.3100
11389TIP3   OH255581   2.622   3.088   5.658  0.1792  0.2484 -0.2930
11389TIP3    H155582   2.705   3.039   5.649  1.1930  1.7101  0.7063
11389TIP3    H255583   2.568   3.032   5.714  0.3828 -0.8272 -1.1302
11390TIP3   OH255584   3.260   5.201   4.798  0.1341  0.2704 -0.2536
11390TIP3    H155585   3.350   5.229   4.786 -0.1569  0.5487 -2.0606
11390TIP3    H255586   3.219   5.271   4.849  0.6974  0.5956 -0.2460
11391TIP3   OH255587   4.444   1.135  15.232  0.1027  0.0383  0.1113
11391TIP3    H155588   4.405   1.119  15.146 -1.6460  2.8851  0.2698
11391TIP3    H255589   4.449   1.048  15.272 -0.6646 -1.1462 -2.1667
11392TIP3   OH255590   1.579   5.430   3.726  0.9690 -0.0860 -0.0051
11392TIP3    H155591   1.584   5.498   3.793 -0.3969  0.6844 -0.6427
11392TIP3    H255592   1.648   5.453   3.663  1.2158  0.0945  0.3310
11393TIP3   OH255593   3.289   2.556  14.454 -0.6018 -0.2368  1.0344
11393TIP3    H155594   3.269   2.509  14.535 -4.6427  1.0516  0.9915
11393TIP3    H255595   3.292   2.648  14.480  0.5877  0.0193  0.0625
11394TIP3   OH255596   2.041   0.859   4.630 -0.5215  0.5034  0.1743
11394TIP3    H155597   2.076   0.915   4.562  0.3199 -0.8356 -0.5345
11394TIP3    H255598   1.994   0.790   4.583 -0.8912  0.1815  0.9937
11395TIP3   OH255599   4.267   4.039   5.272 -0.3211 -0.2282  0.6791
11395TIP3    H155600   4.295   4.086   5.350 -0.6117  0.5053  0.3492
11395TIP3    H255601   4.327   3.964   5.267  1.2177  0.9651  0.3318
11396TIP3   OH255602   1.841   0.910   2.310  0.2752 -0.2060  0.0992
11396TIP3    H155603   1.856   1.004   2.304 -0.7398 -0.0346  0.1755
11396TIP3    H255604   1.838   0.893   2.404  2.3019 -0.6401  0.1424
11397TIP3   OH255605   0.108   3.881  16.146 -0.1744 -0.4329 -0.3316
11397TIP3    H155606   0.139   3.972  16.146 -0.0334 -0.4330  1.7214
11397TIP3    H255607   0.186   3.829  16.125  0.4653 -0.2183  1.3447
11398TIP3   OH255608   4.088   4.827   6.623  0.2857  0.0962  0.7176
11398TIP3    H155609   4.027   4.897   6.601 -2.1359 -1.8213  0.8869
11398TIP3    H255610   4.159   4.837   6.560 -0.9713  1.4902 -0.5718
11399TIP3   OH255611   4.422   3.900   3.241  0.4877  0.0562 -1.2412
11399TIP3    H155612   4.437   3.994   3.237  0.7318 -0.0187 -2.8905
11399TIP3    H255613   4.503   3.861   3.209  0.1408 -0.6784 -1.2563
11400TIP3   OH255614   0.612   3.072   1.274 -0.6610 -0.7053  0.4004
11400TIP3    H155615   0.542   3.123   1.232 -0.4605 -0.0364  0.8649
11400TIP3    H255616   0.660   3.136   1.326  1.9050 -0.5696 -1.8897
11401TIP3   OH255617   0.808   2.191  16.844  0.3454  0.1987 -0.3229
11401TIP3    H155618   0.879   2.238  16.799 -0.0122 -0.5649 -1.7603
11401TIP3    H255619   0.736   2.253  16.847 -0.7788 -0.6626 -3.8913
11402TIP3   OH255620   0.248   6.693  15.744  0.1242  0.0564  0.1148
11402TIP3    H155621   0.197   6.643  15.680  1.2650 -1.3088  0.2246
11402TIP3    H255622   0.299   6.627  15.791  2.0658  1.3464 -0.0548
11403TIP3   OH255623   6.373   3.741  12.931 -0.1975 -0.1560  0.6971
11403TIP3    H155624   6.378   3.827  12.972 -1.4414  1.4313 -2.1463
11403TIP3    H255625   6.288   3.741  12.887  1.1272 -1.4845 -2.0917
11404TIP3   OH255626   5.736   1.786   1.706  0.5608 -0.1216 -0.0824
11404TIP3    H155627   5.713   1.699   1.674 -0.9293  0.6477 -1.2563
11404TIP3    H255628   5.765   1.772   1.796  0.3059 -1.8187 -0.2364
11405TIP3   OH255629   0.148   0.202  15.456 -0.2173 -0.3426  0.2398
11405TIP3    H155630   0.091   0.247  15.518  0.3940  0.2548  0.3736
11405TIP3    H255631   0.105   0.117  15.441 -1.8113  0.5813 -0.6574
11406TIP3   OH255632   2.986   2.033  16.379 -0.3588 -0.0412  0.7612
11406TIP3    H155633   3.047   1.967  16.347 -0.6123 -0.3183  0.8429
11406TIP3    H255634   3.027   2.116  16.358  2.0070 -0.0938  4.3195
11407TIP3   OH255635   2.201   1.944  17.073 -0.2119 -0.4077 -0.2235
11407TIP3    H155636   2.261   1.871  17.060 -1.8447 -2.1687  1.5004
11407TIP3    H255637   2.158   1.926  17.157 -0.2048  2.9178  0.6544
11408TIP3   OH255638   3.171   5.420  11.198 -0.1245 -0.4491  0.4493
11408TIP3    H155639   3.110   5.380  11.136 -0.1444 -0.7365  0.6501
11408TIP3    H255640   3.156   5.373  11.280 -0.7219  0.5349  0.9124
11409TIP3   OH255641   5.544   2.136  16.975 -0.1301  0.5810  0.2617
11409TIP3    H155642   5.553   2.107  16.885  1.5789  0.7494  0.3500
11409TIP3    H255643   5.583   2.065  17.027 -1.1117  0.4744  0.8847
11410TIP3   OH255644   4.611   2.652  11.001 -0.3228  0.2106 -0.3327
11410TIP3    H155645   4.677   2.656  10.933  0.4658  1.9046  0.4755
11410TIP3    H255646   4.594   2.559  11.013 -0.2256 -0.1377 -2.5552
11411TIP3   OH255647   2.296   1.586   4.823 -0.5058 -0.1280  0.4920
11411TIP3    H155648   2.200   1.581   4.819 -0.6382  1.8532 -0.1762
11411TIP3    H255649   2.324   1.562   4.734 -0.4174 -0.3192  0.5728
11412TIP3   OH255650   1.100   2.722   3.464 -0.4598 -0.4217 -0.2930
11412TIP3    H155651   1.031   2.781   3.433  0.1107  0.2047 -0.3895
11412TIP3    H255652   1.068   2.690   3.548 -1.1315 -0.5993 -0.6087
11413TIP3   OH255653   5.936   4.355  16.412  0.6226 -0.2623 -0.4379
11413TIP3    H155654   5.956   4.270  16.450  2.8163 -0.1167 -1.1355
11413TIP3    H255655   6.022   4.396  16.397 -0.2698  1.0758 -2.3169
11414TIP3   OH255656   2.888   4.215  15.253  0.4460  0.4928 -0.0537
11414TIP3    H155657   2.943   4.179  15.323  0.5442 -1.9831 -1.2742
11414TIP3    H255658   2.806   4.238  15.296  1.0864  0.5722  1.1518
11415TIP3   OH255659   3.350   1.844   0.925 -0.0298  0.1903 -0.0928
11415TIP3    H155660   3.329   1.782   0.994  0.3399 -1.3650 -1.3182
11415TIP3    H255661   3.265   1.867   0.887 -0.1032 -0.3628 -0.2744
11416TIP3   OH255662   5.707   5.324  14.926 -0.2742 -0.6689  0.2640
11416TIP3    H155663   5.797   5.302  14.950  0.1200  0.6953  0.1170
11416TIP3    H255664   5.670   5.242  14.893  0.4699 -1.5754  1.6011
11417TIP3   OH255665   4.722   4.709  16.535  0.0353 -0.5356 -0.2950
11417TIP3    H155666   4.660   4.778  16.512  0.5736 -0.2922 -1.0644
11417TIP3    H255667   4.722   4.650  16.459 -0.0787 -1.1361  0.1630
11418TIP3   OH255668   6.002   4.283   1.208 -0.5892  0.0055 -0.3340
11418TIP3    H155669   5.918   4.328   1.196  0.4851  2.5157  0.8526
11418TIP3    H255670   5.995   4.205   1.153 -4.0939 -0.4865  0.5425
11419TIP3   OH255671   0.412   3.531  13.698 -0.2336  0.2222 -0.0259
11419TIP3    H155672   0.478   3.524  13.628  0.5803 -1.5234  0.8377
11419TIP3    H255673   0.331   3.551  13.652  0.3759 -0.3804 -1.4330
11420TIP3   OH255674   1.514   4.242   0.950 -0.3918 -0.7135 -0.0842
11420TIP3    H155675   1.532   4.162   0.901  0.9223 -2.5075  3.0752
11420TIP3    H255676   1.459   4.215   1.023 -1.0248  1.5449  0.3665
11421TIP3   OH255677   3.645   2.045  13.515  0.1325 -0.0854  0.5335
11421TIP3    H155678   3.732   2.009  13.500  1.0876  0.4900  3.7225
11421TIP3    H255679   3.650   2.134  13.481 -0.4555 -1.0735 -2.4264
11422TIP3   OH255680   1.246   5.541   5.298  0.9246  0.1376  0.7507
11422TIP3    H155681   1.308   5.579   5.362  0.2593  0.3252  1.2940
11422TIP3    H255682   1.167   5.524   5.349  0.2049  0.7591 -0.1309
11423TIP3   OH255683   0.769   4.634   1.819  0.0783 -0.2479 -0.3363
11423TIP3    H155684   0.844   4.632   1.760  0.1670  0.0715 -0.2351
11423TIP3    H255685   0.800   4.680   1.897 -0.3589  0.3252 -0.4913
11424TIP3   OH255686   2.913   4.243  12.573 -0.2287  0.3823 -0.4138
11424TIP3    H155687   2.980   4.183  12.543  0.6245  1.7419 -1.3238
11424TIP3    H255688   2.851   4.188  12.621  1.9783 -0.7860  1.2925
11425TIP3   OH255689   1.389   0.944  12.196 -0.3478  0.3526 -0.2351
11425TIP3    H155690   1.331   0.868  12.202 -0.1013  0.2631  3.0143
11425TIP3    H255691   1.477   0.908  12.209  0.0720  0.9177 -1.3915
11426TIP3   OH255692   6.183   0.011  15.659 -0.3553  0.4062 -0.0206
11426TIP3    H155693   6.133   0.089  15.638 -1.4861 -0.5614 -1.0372
11426TIP3    H255694   6.207   0.022  15.751 -3.5663  0.3513  0.9390
11427TIP3   OH255695   3.508   1.942   5.024 -0.1456  0.7741  0.6327
11427TIP3    H155696   3.480   2.020   4.976  1.4734  0.8061 -0.3197
11427TIP3    H255697   3.537   1.881   4.957  0.7333  0.2177  1.4855
11428TIP3   OH255698   5.228   4.510   5.972  0.2536  0.2935  0.0569
11428TIP3    H155699   5.194   4.457   5.900  0.0268  0.3306  0.1354
11428TIP3    H255700   5.191   4.597   5.957  1.0612  0.5718 -0.3789
11429TIP3   OH255701   5.683   6.062   0.576 -0.5424 -0.0605 -0.2312
11429TIP3    H155702   5.708   6.002   0.505  0.8335 -0.8705  0.8842
11429TIP3    H255703   5.744   6.042   0.647 -0.2562  2.4339  0.3284
11430TIP3   OH255704   4.544   4.549  16.076  0.6362 -0.5019  0.6685
11430TIP3    H155705   4.454   4.549  16.110  0.3826 -0.7419  0.0261
11430TIP3    H255706   4.594   4.598  16.140 -0.5540  2.4850 -0.4978
11431TIP3   OH255707   4.009   5.550  14.020  0.4133  0.2342 -0.2288
11431TIP3    H155708   4.067   5.583  13.950 -1.1339  1.2846 -1.0738
11431TIP3    H255709   4.021   5.611  14.092 -0.9147  1.5255 -1.0509
11432TIP3   OH255710   4.859   2.757  11.173 -0.2092 -0.0188 -0.3287
11432TIP3    H155711   4.819   2.768  11.086 -0.1347 -1.1357 -0.5220
11432TIP3    H255712   4.937   2.703  11.157  0.5133  0.8263  0.2673
11433TIP3   OH255713   3.381   1.962   2.051  0.1180 -0.2222 -0.0034
11433TIP3    H155714   3.327   1.885   2.033 -0.3566  0.1568 -0.2390
11433TIP3    H255715   3.336   2.007   2.123  0.0091  0.1960 -0.3277
11434TIP3   OH255716   0.656   2.529   1.263 -0.0964 -0.3896 -0.3885
11434TIP3    H155717   0.643   2.568   1.177  0.0315 -0.7547 -0.5731
11434TIP3    H255718   0.750   2.511   1.268 -0.1645 -0.7319 -0.3294
11435TIP3   OH255719   5.151   1.690  13.195  0.2670 -0.5026 -0.4937
11435TIP3    H155720   5.095   1.711  13.271  2.2759 -2.7629  1.7992
11435TIP3    H255721   5.095   1.637  13.138  0.0305 -3.1555  1.9768
11436TIP3   OH255722   1.628   1.371  16.520  0.0503  0.2621 -0.2106
11436TIP3    H155723   1.639   1.461  16.550  1.1076 -0.1455  0.7051
11436TIP3    H255724   1.676   1.319  16.584  0.9807 -0.8047 -1.7236
11437TIP3   OH255725   3.436   0.186  16.771  0.0386 -0.6557  0.7638
11437TIP3    H155726   3.438   0.263  16.714 -0.9786 -0.7820  0.5390
11437TIP3    H255727   3.391   0.215  16.850 -0.6054 -1.0828  0.5622
11438TIP3   OH255728   0.450   4.875  16.238  0.2576  0.1253 -0.0360
11438TIP3    H155729   0.518   4.836  16.183  0.0462 -0.2298 -0.0492
11438TIP3    H255730   0.375   4.816  16.228  0.4625 -0.3770  1.2514
11439TIP3   OH255731   5.555   3.392   5.311 -0.0064 -0.5927 -0.2817
11439TIP3    H155732   5.472   3.414   5.268  0.4391  0.8461 -0.4604
11439TIP3    H255733   5.595   3.326   5.255 -0.7256 -0.8019 -0.5523
11440TIP3   OH255734   5.606   5.692  13.971 -0.4049 -0.3194  0.0416
11440TIP3    H155735   5.684   5.747  13.983 -1.3925  0.8744  1.3780
11440TIP3    H255736   5.553   5.740  13.907 -1.3638  0.4501  1.3675
11441TIP3   OH255737   6.270   6.546  15.310 -0.2999  0.5407 -0.3840
11441TIP3    H155738   6.353   6.500  15.301 -0.0052  1.1487 -0.8212
11441TIP3    H255739   6.292   6.638  15.296 -1.1494  0.6374 -1.1969
11442TIP3   OH255740   1.078   0.933   2.769 -0.2993 -0.1677 -0.4669
11442TIP3    H155741   1.069   1.022   2.804 -1.4945  0.0148 -1.1807
11442TIP3    H255742   1.161   0.933   2.722  1.2858 -0.3681  2.1281
11443TIP3   OH255743   3.945   4.975   2.581 -0.2569  0.0433 -0.5426
11443TIP3    H155744   3.963   4.951   2.490 -1.3108  1.0724 -1.0599
11443TIP3    H255745   3.896   5.057   2.574  0.3408  0.5680  0.9900
11444TIP3   OH255746   0.245   4.271   4.031  0.1697 -0.0141  0.2153
11444TIP3    H155747   0.304   4.332   3.986 -0.4199 -0.1716 -0.7995
11444TIP3    H255748   0.159   4.314   4.028  0.1845  0.1519  1.5649
11445TIP3   OH255749   0.121   3.692  15.185 -0.2005 -0.5601  0.1827
11445TIP3    H155750   0.068   3.626  15.230  1.4013 -1.6353  0.5836
11445TIP3    H255751   0.110   3.771  15.238 -0.6014 -1.0271  0.8124
11446TIP3   OH255752   0.606   3.704   2.131  0.5991 -0.3575  0.4599
11446TIP3    H155753   0.602   3.758   2.052 -0.0458 -0.3615  0.4912
11446TIP3    H255754   0.529   3.728   2.181  1.5824  0.4765  1.6409
11447TIP3   OH255755   5.846   0.509   5.174 -0.6136 -0.2738  0.1652
11447TIP3    H155756   5.861   0.499   5.268  0.5858 -1.8843 -0.1603
11447TIP3    H255757   5.801   0.593   5.166 -0.4792  0.0360  2.1397
11448TIP3   OH255758   0.414   4.848   0.729 -0.2904 -0.6001  0.4530
11448TIP3    H155759   0.331   4.896   0.726 -0.0818  0.2693  3.8273
11448TIP3    H255760   0.472   4.906   0.779  1.5098 -2.3159  0.4569
11449TIP3   OH255761   1.474   3.524   1.964 -0.0557  0.8102 -0.0039
11449TIP3    H155762   1.457   3.602   2.017 -2.5539  0.5743 -0.3537
11449TIP3    H255763   1.469   3.451   2.025 -0.5525  0.7227 -0.1435
11450TIP3   OH255764   4.226   0.781  13.666 -0.1555  0.2766  0.1476
11450TIP3    H155765   4.307   0.748  13.706 -0.1450  1.1802  0.9141
11450TIP3    H255766   4.237   0.766  13.573  1.3452  1.3034  0.1339
11451TIP3   OH255767   5.049   5.345  10.388  0.3389 -0.3318 -0.1735
11451TIP3    H155768   5.014   5.429  10.360 -2.3282 -1.8257 -1.7164
11451TIP3    H255769   5.143   5.360  10.398 -0.0825  2.8590 -0.0500
11452TIP3   OH255770   1.216   2.158  15.982  0.0918 -0.2425  0.0510
11452TIP3    H155771   1.236   2.247  15.952 -0.6081 -0.8928 -2.5860
11452TIP3    H255772   1.287   2.136  16.042  2.1055  0.9362 -1.7655
11453TIP3   OH255773   2.563   0.042  14.410 -0.0863  0.0266  0.2241
11453TIP3    H155774   2.494  -0.023  14.422  1.3921 -1.8259 -0.6755
11453TIP3    H255775   2.517   0.123  14.392 -2.0295 -1.1129 -0.2192
11454TIP3   OH255776   2.276   4.150  11.486 -0.0508 -0.0704 -0.0053
11454TIP3    H155777   2.281   4.097  11.566  0.2783 -1.5403 -0.9522
11454TIP3    H255778   2.352   4.122  11.435 -0.7843  0.1269 -1.2448
11455TIP3   OH255779   0.458   1.730   0.037 -0.2936  0.4307 -0.0999
11455TIP3    H155780   0.477   1.694  -0.049  0.0619  1.2772 -0.3873
11455TIP3    H255781   0.534   1.709   0.091 -0.1879  0.5456 -0.2041
11456TIP3   OH255782   3.172   1.623   6.384 -0.7047 -0.2751 -0.8504
11456TIP3    H155783   3.204   1.544   6.426 -1.2484 -0.0891 -0.0668
11456TIP3    H255784   3.079   1.607   6.369 -0.8838  0.3192 -0.4239
11457TIP3   OH255785   4.466   2.342   4.823 -0.1972  0.4144  0.4416
11457TIP3    H155786   4.378   2.356   4.858 -0.1686 -0.5059  0.9112
11457TIP3    H255787   4.478   2.247   4.826  0.1647  0.3790 -1.2215
11458TIP3   OH255788   4.266   5.601  12.576  0.2382  0.0582  0.4623
11458TIP3    H155789   4.344   5.606  12.632 -1.0833 -0.6647  2.4684
11458TIP3    H255790   4.281   5.523  12.522  1.3766  0.5566  0.0226
11459TIP3   OH255791   2.181   1.104   1.684  0.2265 -0.1135  0.1591
11459TIP3    H155792   2.262   1.142   1.649 -0.3365  0.7460 -0.2452
11459TIP3    H255793   2.113   1.166   1.658 -0.1949  0.9393  3.2649
11460TIP3   OH255794   4.416   0.649  12.746 -0.4314  0.1649 -0.4668
11460TIP3    H155795   4.321   0.642  12.757 -0.4136  0.6580  0.0395
11460TIP3    H255796   4.448   0.687  12.828  0.0321  1.2869 -1.1290
11461TIP3   OH255797   2.158   6.128   5.959 -0.2856  0.2389  0.2161
11461TIP3    H155798   2.096   6.060   5.932 -0.0379 -0.2417  0.8324
11461TIP3    H255799   2.187   6.101   6.046  0.9034  0.3905 -0.1160
11462TIP3   OH255800   3.816   6.746  12.780 -0.3726 -0.3681  0.3859
11462TIP3    H155801   3.806   6.787  12.866 -1.4275  0.3902 -0.0740
11462TIP3    H255802   3.868   6.808  12.729 -1.6972  0.3017 -0.2118
11463TIP3   OH255803   0.071   5.985   3.421 -0.0314  0.4545 -0.5716
11463TIP3    H155804   0.129   5.915   3.391  0.3183  0.8894 -0.9323
11463TIP3    H255805   0.038   6.025   3.341  1.5080  2.1111 -0.4547
11464TIP3   OH255806   1.797   1.191  16.682 -0.1025  0.3349 -0.4334
11464TIP3    H155807   1.710   1.184  16.721 -0.0991  0.1893 -0.4543
11464TIP3    H255808   1.854   1.215  16.755  0.1395 -1.2779 -0.0707
11465TIP3   OH255809   3.300   3.039  13.465 -0.0515  0.3973  0.2020
11465TIP3    H155810   3.357   2.988  13.522  0.8849 -0.6448 -1.5787
11465TIP3    H255811   3.296   2.989  13.383 -0.8631  2.1013 -0.8630
11466TIP3   OH255812   0.385   3.557   0.982  0.1060  0.0108  0.2575
11466TIP3    H155813   0.360   3.650   0.984 -0.8861 -0.2361 -0.3194
11466TIP3    H255814   0.379   3.529   1.074  1.2040  0.7117  0.5602
11467TIP3   OH255815   6.201   3.023  16.399 -0.3871  0.0978 -0.0134
11467TIP3    H155816   6.241   3.001  16.315  1.2919 -1.3027  1.0932
11467TIP3    H255817   6.196   3.119  16.399 -1.4792  0.1035 -2.1334
11468TIP3   OH255818   1.080   4.435  12.236  0.0451  0.3851 -0.3630
11468TIP3    H155819   1.105   4.486  12.312 -1.2340  0.6355 -0.0943
11468TIP3    H255820   1.117   4.348  12.253 -2.0453 -0.1947  1.6121
11469TIP3   OH255821   5.050   3.012  11.799  0.0720 -0.6660 -0.3603
11469TIP3    H155822   4.986   2.983  11.864  0.4603 -1.1932 -0.2061
11469TIP3    H255823   5.093   3.088  11.840  0.9410 -1.5380  0.4013
11470TIP3   OH255824   1.723   2.218   4.671  0.7764  0.4658 -0.3040
11470TIP3    H155825   1.657   2.188   4.734  0.2944  0.9867 -0.5579
11470TIP3    H255826   1.807   2.191   4.710  0.4542  0.3113  0.2986
11471TIP3   OH255827   4.955   1.743  16.219 -0.0218 -0.0724 -0.2500
11471TIP3    H155828   4.950   1.796  16.140  0.4973 -2.1235 -1.7341
11471TIP3    H255829   5.041   1.701  16.215 -0.8919 -2.0087  0.1452
11472TIP3   OH255830   4.645   2.030   2.091 -0.0032  0.0695  0.0073
11472TIP3    H155831   4.723   1.990   2.053  0.4186 -0.9090  1.7974
11472TIP3    H255832   4.595   1.957   2.127  0.7514  0.9885  3.3055
11473TIP3   OH255833   5.347   0.905   0.448  0.4260 -0.8607 -0.3657
11473TIP3    H155834   5.254   0.885   0.449  0.2859 -0.4460  2.0096
11473TIP3    H255835   5.360   0.960   0.526  2.1257  1.7024 -2.3097
11474TIP3   OH255836   4.266   5.887   2.614  0.1217  0.4320 -0.1527
11474TIP3    H155837   4.341   5.943   2.637  1.6721 -2.0008  1.2537
11474TIP3    H255838   4.219   5.875   2.697 -0.2963 -0.1719 -0.4683
11475TIP3   OH255839   4.726   6.234  11.902  0.3231  0.2414  0.6055
11475TIP3    H155840   4.669   6.200  11.972 -0.2297 -1.1053 -0.4501
11475TIP3    H255841   4.671   6.299  11.857  0.0307 -0.2031  0.3145
11476TIP3   OH255842   0.232   3.127   5.357  0.0565  0.3644  0.2337
11476TIP3    H155843   0.223   3.044   5.310 -0.7774 -1.2910  3.0349
11476TIP3    H255844   0.322   3.155   5.340  0.8773 -1.9562  0.4089
11477TIP3   OH255845   0.127   5.684   5.245 -0.6049  0.1751  0.0973
11477TIP3    H155846   0.051   5.667   5.300  0.2359 -0.1550  1.1757
11477TIP3    H255847   0.170   5.759   5.286 -1.5838  1.9332 -1.8313
11478TIP3   OH255848   1.322   0.995   2.644 -0.2629 -0.0145  0.5093
11478TIP3    H155849   1.379   0.919   2.646 -0.8026 -0.5328 -1.4894
11478TIP3    H255850   1.381   1.070   2.645  0.3060 -0.4563  1.4084
11479TIP3   OH255851   4.861   4.345  16.174  0.6303 -0.1862  0.0437
11479TIP3    H155852   4.944   4.304  16.151  0.2074 -0.9124 -0.2574
11479TIP3    H255853   4.825   4.375  16.090 -0.1410 -1.3260 -0.0573
11480TIP3   OH255854   4.128   1.363  12.622 -0.4763 -0.2179  0.0482
11480TIP3    H155855   4.068   1.427  12.583  0.0457  0.2979  0.0814
11480TIP3    H255856   4.081   1.280  12.618 -0.2427 -0.3071 -2.2286
11481TIP3   OH255857   1.321   5.901  17.044  0.7586  0.5605  0.3372
11481TIP3    H155858   1.328   5.827  16.983  0.5640  0.5247  0.3573
11481TIP3    H255859   1.412   5.921  17.068  0.9264  1.4654 -1.0128
11482TIP3   OH255860   2.489   5.826   3.788  0.0017  0.1800  0.0418
11482TIP3    H155861   2.576   5.807   3.754  0.0322 -0.1434  0.2983
11482TIP3    H255862   2.471   5.755   3.850  0.0070  0.8280  0.8034
11483TIP3   OH255863   3.735   3.239  13.154 -0.0495  0.4105  0.2633
11483TIP3    H155864   3.767   3.149  13.145  1.5293  0.9772 -0.1172
11483TIP3    H255865   3.813   3.294  13.140 -0.9545  1.8365  0.6029
11484TIP3   OH255866   3.132   3.622  13.315  0.1362  0.5091  0.2176
11484TIP3    H155867   3.216   3.651  13.351 -0.0820  0.0328  1.1583
11484TIP3    H255868   3.098   3.699  13.268  0.9982  0.7635 -0.0004
11485TIP3   OH255869   0.035   5.776   3.047  0.4691 -0.1345 -0.4843
11485TIP3    H155870  -0.018   5.790   3.125  0.6953  0.0028 -0.3555
11485TIP3    H255871   0.029   5.683   3.029  1.0577 -0.3019  0.1542
11486TIP3   OH255872   4.487   3.409  14.659 -0.7631 -0.5493  0.4318
11486TIP3    H155873   4.447   3.492  14.688 -0.6968 -0.3120 -0.1473
11486TIP3    H255874   4.451   3.395  14.572  0.5565 -0.2398 -0.1769
11487TIP3   OH255875   2.720   5.539   6.600 -0.2957 -0.2664 -0.1102
11487TIP3    H155876   2.715   5.634   6.611 -0.7355 -0.2686 -0.2708
11487TIP3    H255877   2.734   5.527   6.506  1.2261 -0.3168  0.1039
11488TIP3   OH255878   6.540   2.363   4.498 -0.4050 -0.3169  0.1599
11488TIP3    H155879   6.522   2.276   4.533  2.9749 -2.0995 -1.9962
11488TIP3    H255880   6.558   2.417   4.575 -0.9198 -1.9439  1.4638
11489TIP3   OH255881   6.412   1.690  11.568 -0.4411 -0.5286  0.4290
11489TIP3    H155882   6.486   1.700  11.508 -1.1347 -2.1058 -0.7629
11489TIP3    H255883   6.363   1.615  11.534 -2.7621  0.6153  1.0213
11490TIP3   OH255884   2.295   6.576  11.502 -0.2838 -0.0606 -0.0428
11490TIP3    H155885   2.376   6.625  11.508  0.0518 -0.7453  4.5998
11490TIP3    H255886   2.226   6.642  11.511 -0.1626  0.1964 -0.8896
11491TIP3   OH255887   4.269   4.704  15.366 -0.5389 -0.3667  0.0881
11491TIP3    H155888   4.308   4.790  15.348 -0.8340 -0.2148  0.1814
11491TIP3    H255889   4.175   4.720  15.374 -0.4200 -0.3931  1.9864
11492TIP3   OH255890   1.804   2.407  15.537 -0.1760  0.4264  0.0435
11492TIP3    H155891   1.768   2.336  15.591 -1.4931  0.0593 -1.2626
11492TIP3    H255892   1.779   2.384  15.447  0.5048  1.8886 -0.5490
11493TIP3   OH255893   3.464   6.247  16.652  0.2511 -0.2829 -0.4727
11493TIP3    H155894   3.522   6.208  16.587 -0.5009 -1.2495 -0.5725
11493TIP3    H255895   3.407   6.176  16.680 -0.9904  0.6726 -0.4758
11494TIP3   OH255896   0.219   0.666   4.710 -0.4197 -0.3148  0.4769
11494TIP3    H155897   0.275   0.741   4.729  0.4678 -0.8885  0.1529
11494TIP3    H255898   0.261   0.593   4.756 -0.8742 -0.7664  0.1800
11495TIP3   OH255899   4.218   4.162   1.623  0.3983  0.1598  0.5428
11495TIP3    H155900   4.151   4.137   1.559 -0.1560 -1.8112  1.8111
11495TIP3    H255901   4.169   4.204   1.694  0.6916 -0.0346  0.8601
11496TIP3   OH255902   0.192   1.434   3.246  0.4186 -0.4793  0.2215
11496TIP3    H155903   0.158   1.345   3.244 -0.4133 -0.2737  2.5740
11496TIP3    H255904   0.283   1.425   3.275  0.7494 -0.6296 -0.8227
11497TIP3   OH255905   1.980   4.011   6.258  0.4459  0.0776 -0.7626
11497TIP3    H155906   2.065   3.967   6.254  1.4183  1.8136 -0.0570
11497TIP3    H255907   1.993   4.084   6.318 -1.9024 -0.3203  0.3762
11498TIP3   OH255908   2.429   0.472  14.841 -0.1786 -0.5924  0.0961
11498TIP3    H155909   2.495   0.403  14.841  0.8416  0.3431 -1.0176
11498TIP3    H255910   2.424   0.501  14.750  0.8481  2.0945  0.7946
11499TIP3   OH255911   3.990   0.238  14.864  0.2922 -0.1192  0.5481
11499TIP3    H155912   4.036   0.262  14.944  0.7312  1.3164 -0.1069
11499TIP3    H255913   3.904   0.208  14.894  1.0629 -1.2969  1.6643
11500TIP3   OH255914   3.275   4.821  12.457  0.0755  0.4949 -0.0264
11500TIP3    H155915   3.198   4.826  12.514  0.4158 -2.1921  0.8154
11500TIP3    H255916   3.240   4.796  12.371 -0.2114  2.1145 -0.4043
11501TIP3   OH255917   6.209   2.025  16.602  0.7618  0.3745 -0.0361
11501TIP3    H155918   6.240   1.953  16.547 -2.5998 -0.8509 -0.5689
11501TIP3    H255919   6.201   2.099  16.542 -0.7064 -0.3304 -0.7793
11502TIP3   OH255920   1.627   4.303   3.569  0.2660 -0.1598  1.3009
11502TIP3    H155921   1.647   4.231   3.510 -1.0795  0.5943 -0.1449
11502TIP3    H255922   1.538   4.284   3.601  0.0739  0.6212  1.2508
11503TIP3   OH255923   0.987   2.088  11.704 -0.4296  0.4039 -0.5338
11503TIP3    H155924   1.027   2.165  11.663  1.6181 -0.3623 -0.0839
11503TIP3    H255925   0.914   2.066  11.646  0.6220  1.0529 -2.1907
11504TIP3   OH255926   5.540   2.037  16.692  0.1819 -0.1180 -0.6412
11504TIP3    H155927   5.512   2.116  16.647 -1.4110 -0.1439  0.2223
11504TIP3    H255928   5.633   2.029  16.671  0.0208  1.1080 -2.0124
11505TIP3   OH255929   4.716   5.733  11.684 -0.5009  0.2535 -0.1528
11505TIP3    H155930   4.687   5.648  11.650  0.9437 -0.4738  0.3709
11505TIP3    H255931   4.667   5.797  11.632 -1.2551 -0.8811 -0.8972
11506TIP3   OH255932   4.518   4.528  13.573  0.0219 -0.0174  0.4105
11506TIP3    H155933   4.583   4.532  13.503  0.5875  0.8561  0.9547
11506TIP3    H255934   4.434   4.538  13.529  0.2543 -1.0027 -0.2942
11507TIP3   OH255935   1.192   2.904   3.267  0.0009  0.1112  0.5194
11507TIP3    H155936   1.200   2.861   3.352 -0.5131 -2.4268 -0.6043
11507TIP3    H255937   1.274   2.882   3.221 -0.8004 -0.7725 -0.5297
11508TIP3   OH255938   1.896   3.643  12.734 -0.2534  0.0545  0.0443
11508TIP3    H155939   1.839   3.695  12.677 -0.3824 -1.2947 -1.1236
11508TIP3    H255940   1.965   3.611  12.675  0.4494 -0.1705  0.9713
11509TIP3   OH255941   5.022   4.696  16.203 -0.4811 -0.7557 -0.5302
11509TIP3    H155942   5.049   4.728  16.289 -0.2798  0.9514 -1.1719
11509TIP3    H255943   5.086   4.628  16.182  1.3635  0.8621 -0.5479
11510TIP3   OH255944   5.150   4.406  11.056 -0.4003  0.0217  0.1732
11510TIP3    H155945   5.075   4.465  11.048  0.4400  0.8907 -1.9341
11510TIP3    H255946   5.135   4.340  10.987 -0.2592 -1.0282  1.1208
11511TIP3   OH255947   5.618   0.167   6.857 -0.1548 -0.0634 -0.0758
11511TIP3    H155948   5.650   0.212   6.935  1.5979 -1.5862  0.1609
11511TIP3    H255949   5.631   0.230   6.786 -1.1760  1.1032  0.7438
11512TIP3   OH255950   0.957   3.173  12.175 -0.1223  0.3837  0.8514
11512TIP3    H155951   0.870   3.138  12.155  0.1386  0.4534 -0.4566
11512TIP3    H255952   0.988   3.209  12.092  0.8613  1.0133  1.4769
11513TIP3   OH255953   3.191   4.369  15.382 -0.0129  0.0776 -0.0252
11513TIP3    H155954   3.178   4.462  15.363  0.1830  0.5239  1.8403
11513TIP3    H255955   3.119   4.347  15.441  0.5207 -0.6937  0.3516
11514TIP3   OH255956   3.203   0.893   5.716  0.6609  0.2629 -0.0844
11514TIP3    H155957   3.222   0.817   5.661 -1.3715 -1.1566  1.0389
11514TIP3    H255958   3.174   0.960   5.655 -1.6737 -1.3139 -0.8924
11515TIP3   OH255959   0.816   3.447   3.840  0.0969 -0.4548  0.4081
11515TIP3    H155960   0.839   3.524   3.788  0.1510 -0.4947  0.3725
11515TIP3    H255961   0.897   3.422   3.885  0.0670 -0.4608  0.4586
11516TIP3   OH255962   3.013   2.059   3.536 -0.3349  0.2626  0.2163
11516TIP3    H155963   2.969   1.987   3.491 -1.9463  1.2185  0.1806
11516TIP3    H255964   3.028   2.027   3.625  2.2182 -1.3794 -0.7257
11517TIP3   OH255965   5.773   1.614   0.128 -0.1670 -0.3939  0.5858
11517TIP3    H155966   5.708   1.640   0.193 -1.4435  0.2707 -0.8872
11517TIP3    H255967   5.840   1.682   0.132  0.1673 -0.7754  1.7168
11518TIP3   OH255968   3.435   1.877   5.536  0.1698 -0.6869  0.3898
11518TIP3    H155969   3.395   1.814   5.476 -0.6855  0.9545 -0.8584
11518TIP3    H255970   3.384   1.870   5.616 -2.1495  0.6868 -0.8525
11519TIP3   OH255971   2.655   1.440  11.280 -0.0479 -0.1829  0.2341
11519TIP3    H155972   2.716   1.514  11.284  2.0789 -1.8957  1.6345
11519TIP3    H255973   2.710   1.364  11.261 -1.8202 -1.7467  1.0309
11520TIP3   OH255974   2.373   1.617  16.115  0.2855  0.5909 -0.5753
11520TIP3    H155975   2.440   1.617  16.046  0.1782 -1.6697 -0.7417
11520TIP3    H255976   2.411   1.668  16.186  2.1355 -0.4755 -0.7457
11521TIP3   OH255977   2.676   5.900  13.216 -0.0706  0.0862  0.8830
11521TIP3    H155978   2.634   5.939  13.140 -0.9361 -1.9174  0.2752
11521TIP3    H255979   2.605   5.887  13.279  0.1231 -0.8746  0.9106
11522TIP3   OH255980   6.031   2.385  13.731 -0.0792  0.3369 -0.1436
11522TIP3    H155981   6.075   2.444  13.792 -0.6188  1.2475 -0.6063
11522TIP3    H255982   6.072   2.403  13.647  0.1032 -0.3312 -0.2034
11523TIP3   OH255983   6.251   5.789   3.423 -0.5271 -0.1379 -0.1524
11523TIP3    H155984   6.237   5.712   3.368  0.6373  0.7419 -1.7910
11523TIP3    H255985   6.166   5.831   3.427 -0.8844 -0.8303 -0.3429
11524TIP3   OH255986   3.923   5.394   4.379 -0.0841  0.7905  0.0111
11524TIP3    H155987   3.908   5.299   4.379  0.7241  0.6421 -1.4244
11524TIP3    H255988   3.836   5.431   4.365 -0.9290  0.4491  3.3524
11525TIP3   OH255989   4.925   6.678  11.604 -0.2456 -0.0799  0.6003
11525TIP3    H155990   4.914   6.653  11.512 -2.7017  0.9058  0.5424
11525TIP3    H255991   5.017   6.701  11.612  0.2066 -0.9553 -1.3959
11526TIP3   OH255992   5.649   2.895   1.014 -0.1899 -0.2650  0.3454
11526TIP3    H155993   5.615   2.958   1.077 -0.7849 -0.0079 -0.2261
11526TIP3    H255994   5.571   2.857   0.973  0.1724  1.0618 -1.7075
11527TIP3   OH255995   2.658   4.221   5.070  0.2649  0.3295 -0.3720
11527TIP3    H155996   2.703   4.227   4.986 -0.6276 -1.3429 -1.0071
11527TIP3    H255997   2.619   4.133   5.071 -0.6108  0.6866  1.3441
11528TIP3   OH255998   3.743   0.283  12.225  0.0768 -0.4089 -0.1363
11528TIP3    H155999   3.648   0.287  12.219  0.1289  0.0294 -0.7960
11528TIP3    H256000   3.771   0.237  12.147  0.5286  1.5219 -1.1839
11529TIP3   OH256001   4.177   1.737   0.875 -0.2214  0.2885  0.5899
11529TIP3    H156002   4.210   1.759   0.962 -1.9141 -1.2437  1.7099
11529TIP3    H256003   4.182   1.641   0.871 -1.4196  0.2385 -0.4457
11530TIP3   OH256004   1.216   2.966   3.587  0.4178  0.9760 -0.0932
11530TIP3    H156005   1.201   2.872   3.582 -0.6067  1.0187  1.5722
11530TIP3    H256006   1.312   2.975   3.589  0.5882  0.1284 -1.9816
11531TIP3   OH256007   0.763   3.258  14.241 -0.3566 -0.2196 -0.2505
11531TIP3    H156008   0.714   3.304  14.173 -0.7638  0.7334  0.6743
11531TIP3    H256009   0.755   3.165  14.217  0.2402  0.1286 -1.9695
11532TIP3   OH256010   4.710   3.724   1.391  0.4911 -0.1588  0.0897
11532TIP3    H156011   4.634   3.672   1.365  1.4056 -1.5753  0.0848
11532TIP3    H256012   4.713   3.716   1.486  0.6021 -0.0783  0.0929
11533TIP3   OH256013   2.304   1.782   0.639  0.2006 -0.0813 -0.4167
11533TIP3    H156014   2.347   1.706   0.599 -0.6763 -0.8924  0.1269
11533TIP3    H256015   2.256   1.822   0.566 -1.2932 -1.4808 -0.2706
11534TIP3   OH256016   6.237   2.863  11.793  0.7900 -0.3964 -0.0050
11534TIP3    H156017   6.195   2.794  11.741 -0.6116 -0.1016  0.6893
11534TIP3    H256018   6.200   2.944  11.759  2.0307  0.0059 -0.4517
11535TIP3   OH256019   0.081   3.760  12.336  0.3236  0.6153  0.1438
11535TIP3    H156020   0.136   3.776  12.259  0.3378 -0.7783 -0.1648
11535TIP3    H256021  -0.009   3.770  12.304  0.3536  1.6337  0.3460
11536TIP3   OH256022   2.601   5.339  15.347 -0.3420 -0.1979  1.0021
11536TIP3    H156023   2.654   5.384  15.412 -0.2285 -1.3711  1.7562
11536TIP3    H256024   2.637   5.367  15.263  1.9285 -1.4245  1.4961
11537TIP3   OH256025   1.175   4.787  14.289  0.3072  0.3356 -0.3864
11537TIP3    H156026   1.140   4.821  14.371  0.5886 -1.1040  0.3715
11537TIP3    H256027   1.197   4.696  14.309  2.5019  0.5791 -1.4109
11538TIP3   OH256028   0.277   6.048  17.188  0.5251  0.4558 -0.0424
11538TIP3    H156029   0.224   5.976  17.222 -0.8349  0.5564 -1.8018
11538TIP3    H256030   0.339   6.007  17.129 -0.1343  0.6693 -0.9090
11539TIP3   OH256031   3.985   2.278  13.808  0.0464 -0.2555  0.1876
11539TIP3    H156032   4.023   2.221  13.741 -0.4932 -0.4288  0.0259
11539TIP3    H256033   4.051   2.280  13.877  2.2123  2.6818 -1.7526
11540TIP3   OH256034   3.851   1.377  16.475  0.1897 -0.0308 -0.3650
11540TIP3    H156035   3.769   1.340  16.508  0.4931  0.2208  0.7166
11540TIP3    H256036   3.887   1.424  16.550  0.8917  0.6018 -1.0920
11541TIP3   OH256037   4.923   6.105   1.317 -0.4428 -0.2326 -0.0243
11541TIP3    H156038   4.998   6.162   1.334 -2.2336  2.0214  0.7657
11541TIP3    H256039   4.941   6.026   1.369  0.9639  0.5982  0.8133
11542TIP3   OH256040   5.331   5.075   5.610 -0.5330 -0.1604 -0.6363
11542TIP3    H156041   5.405   5.084   5.670 -0.5897  1.0013 -0.7151
11542TIP3    H256042   5.351   5.135   5.538 -1.7008  0.4369 -0.4910
11543TIP3   OH256043   4.320   3.745   5.285  0.3460  0.1561 -0.7313
11543TIP3    H156044   4.323   3.722   5.377 -2.5694  1.3844 -0.2211
11543TIP3    H256045   4.409   3.773   5.264  0.9535  0.3655  1.8583
11544TIP3   OH256046   3.140   5.891   0.150  0.1481 -0.4758  0.1677
11544TIP3    H156047   3.108   5.876   0.238 -0.9025 -2.7864 -0.5342
11544TIP3    H256048   3.205   5.823   0.135  0.0791 -0.3329 -0.9331
11545TIP3   OH256049   3.132   3.097   3.821  0.2118  0.4078 -0.6030
11545TIP3    H156050   3.107   3.079   3.911  0.7794  3.1432  0.2129
11545TIP3    H256051   3.195   3.029   3.799 -1.8152 -1.8518  0.0740
11546TIP3   OH256052   3.570   6.323  14.263  0.3154  0.1671  0.7368
11546TIP3    H156053   3.628   6.271  14.208  0.8325  1.5503 -0.0853
11546TIP3    H256054   3.484   6.318  14.220 -0.0333 -1.2417  1.5262
11547TIP3   OH256055   5.708   6.439  11.797 -0.4797  0.1114  0.0164
11547TIP3    H156056   5.627   6.391  11.810  0.7607 -1.5595  2.4300
11547TIP3    H256057   5.702   6.514  11.855 -1.2063  1.3304 -1.5698
11548TIP3   OH256058   0.304   2.436   5.184  0.3204  0.5515  0.5194
11548TIP3    H156059   0.319   2.350   5.147  2.3982  0.7132  0.8504
11548TIP3    H256060   0.219   2.430   5.228  0.0741 -1.0593 -0.1391
11549TIP3   OH256061   5.286   3.223  13.802  0.8665 -0.1081 -0.6793
11549TIP3    H156062   5.276   3.307  13.846  2.3582  0.2172 -0.8974
11549TIP3    H256063   5.225   3.226  13.729 -0.8124 -0.1947  0.6683
11550TIP3   OH256064   3.428   5.462   0.408 -0.0040  0.3358 -0.9346
11550TIP3    H156065   3.353   5.466   0.467 -0.2449 -2.8761 -0.8207
11550TIP3    H256066   3.492   5.521   0.446  0.0845 -1.9565  3.0377
11551TIP3   OH256067   0.387   5.379  15.778  0.0496 -0.4027 -0.0446
11551TIP3    H156068   0.325   5.442  15.742  0.5219  0.3254  0.4086
11551TIP3    H256069   0.350   5.355  15.864 -0.1222 -0.7390 -0.2099
11552TIP3   OH256070   5.867   1.165   6.077 -0.3073 -0.1238  0.4758
11552TIP3    H156071   5.898   1.112   6.151 -0.8084 -0.8687  0.1596
11552TIP3    H256072   5.826   1.241   6.118  1.0224  0.3904  0.9231
11553TIP3   OH256073   6.607   5.535  15.757  0.1579 -0.6680  0.1620
11553TIP3    H156074   6.684   5.563  15.805 -0.9472 -0.7211  2.0534
11553TIP3    H256075   6.641   5.505  15.672  2.2098 -0.8372  0.9964
11554TIP3   OH256076   4.005   6.718  14.962 -0.3049 -0.3167 -0.1090
11554TIP3    H156077   4.095   6.748  14.968 -0.1667 -0.4256 -1.3592
11554TIP3    H256078   3.958   6.769  15.029  0.5431  0.2756  0.0447
11555TIP3   OH256079   4.100   5.331  16.423  0.6237 -0.4059  0.2322
11555TIP3    H156080   4.026   5.277  16.450  0.6766 -0.9604 -0.7077
11555TIP3    H256081   4.154   5.338  16.502 -0.0225 -0.6479  0.7107
11556TIP3   OH256082   5.776   2.130   6.035 -0.6160 -0.4572  0.1267
11556TIP3    H156083   5.869   2.128   6.057 -0.7184 -3.7329  0.7382
11556TIP3    H256084   5.775   2.137   5.939  0.2925 -1.0876  0.0546
11557TIP3   OH256085   2.354   3.896  14.763 -0.2468  0.6954  0.2872
11557TIP3    H156086   2.384   3.986  14.751 -0.5155  1.0835  2.2246
11557TIP3    H256087   2.409   3.861  14.833  0.0495 -0.7660 -0.6408
11558TIP3   OH256088   1.243   1.533   2.508  0.1816  0.5053  0.1122
11558TIP3    H156089   1.259   1.621   2.474  0.0655  0.3104 -0.4473
11558TIP3    H256090   1.215   1.547   2.598 -0.7707  1.1009 -0.2620
11559TIP3   OH256091   1.051   4.566  13.936 -0.1194 -0.0660 -0.6086
11559TIP3    H156092   1.144   4.581  13.922  0.0725  0.4667  1.0293
11559TIP3    H256093   1.025   4.634  13.999 -0.8723 -2.1140  1.4326
11560TIP3   OH256094   4.688   2.880  16.654 -0.9669  0.1701  0.0612
11560TIP3    H156095   4.628   2.921  16.716 -0.3150  0.7651  0.3240
11560TIP3    H256096   4.751   2.833  16.709 -0.1170  1.0702 -0.0921
11561TIP3   OH256097   0.529   4.028  11.398  0.3086 -0.1621 -0.3110
11561TIP3    H156098   0.527   4.081  11.319  1.1447  0.5265  0.1161
11561TIP3    H256099   0.445   4.045  11.441  0.1059 -0.0658 -0.7433
11562TIP3   OH256100   5.556   1.325   6.838 -0.5768  0.1426 -0.1488
11562TIP3    H156101   5.500   1.272   6.782 -0.3661 -1.1849  0.8411
11562TIP3    H256102   5.587   1.264   6.906 -0.1613  1.4873  0.9251
11563TIP3   OH256103   6.119   6.454  12.750 -0.6638 -0.1238  0.5184
11563TIP3    H156104   6.097   6.362  12.757 -0.9807 -0.0780  0.1900
11563TIP3    H256105   6.169   6.461  12.669 -1.5295  0.1481 -0.0033
11564TIP3   OH256106   3.919   1.539   0.955 -0.0773 -0.8380 -0.0853
11564TIP3    H156107   3.917   1.625   0.913  0.4471 -1.3556 -1.2167
11564TIP3    H256108   3.835   1.499   0.934 -1.0354  0.0125  1.8679
11565TIP3   OH256109   5.842   3.805   1.058  0.7986 -0.2366 -0.5220
11565TIP3    H156110   5.906   3.769   0.996  0.6561  0.3696 -1.0275
11565TIP3    H256111   5.766   3.747   1.051 -0.1057  1.0595 -2.5971
11566TIP3   OH256112   1.754   3.961  12.899 -0.0522  0.0356 -0.7540
11566TIP3    H156113   1.688   3.903  12.938 -0.5251  1.9266  1.5017
11566TIP3    H256114   1.704   4.032  12.860  0.5234 -0.9093 -3.3713
11567TIP3   OH256115   2.710   6.233  14.270 -0.6344 -0.1698 -0.5766
11567TIP3    H156116   2.760   6.180  14.209  0.2584 -0.8142  0.6699
11567TIP3    H256117   2.774   6.289  14.313 -0.8541 -1.3117  1.3530
11568TIP3   OH256118   5.876   6.131  12.223  0.1271  0.3601 -0.6839
11568TIP3    H156119   5.846   6.221  12.233  0.0739  0.6153 -2.7233
11568TIP3    H256120   5.852   6.108  12.134 -2.0432 -2.5222  0.4942
11569TIP3   OH256121   1.569   4.416   0.089  0.3339 -0.2373 -0.7447
11569TIP3    H156122   1.653   4.447   0.055 -0.6317 -0.0556 -3.1881
11569TIP3    H256123   1.506   4.440   0.022 -1.6025 -0.9518  0.7184
11570TIP3   OH256124   4.752   1.185  11.782  0.0518  0.1821  0.3981
11570TIP3    H156125   4.715   1.097  11.779  0.1422 -0.0396 -4.9506
11570TIP3    H256126   4.680   1.241  11.810 -0.9725 -1.2878  0.7982
11571TIP3   OH256127   0.530   0.021  13.332 -0.4114 -0.0800 -0.0243
11571TIP3    H156128   0.507   0.081  13.403  0.2410  0.9095 -0.6247
11571TIP3    H256129   0.446  -0.014  13.303 -1.0048  1.7582 -0.6859
11572TIP3   OH256130   0.226   5.368   2.269 -0.4136 -0.0369  0.0351
11572TIP3    H156131   0.131   5.377   2.262 -0.5163 -0.2884  0.8954
11572TIP3    H256132   0.254   5.448   2.316 -0.2113  0.0053 -0.1573
11573TIP3   OH256133   3.488   2.673   4.187  0.1493 -0.0748 -0.4019
11573TIP3    H156134   3.450   2.586   4.199  0.3512 -0.2491 -1.0044
11573TIP3    H256135   3.582   2.658   4.176  0.2514  0.2607 -0.0240
11574TIP3   OH256136   2.424   6.638  14.252  0.0621 -0.6902 -0.1074
11574TIP3    H156137   2.471   6.716  14.221  1.4898 -1.7181 -0.6025
11574TIP3    H256138   2.459   6.566  14.199 -0.6938 -1.7945  0.8529
11575TIP3   OH256139   0.808   5.288   4.961  0.2017 -0.3994 -0.3076
11575TIP3    H156140   0.899   5.282   4.931  0.1643 -1.6887 -0.2386
11575TIP3    H256141   0.767   5.207   4.930 -0.9407  0.1765 -0.3668
11576TIP3   OH256142   5.827   2.315   5.102  0.2927 -0.0467  0.5290
11576TIP3    H156143   5.734   2.330   5.082  0.8676  1.1254 -1.6436
11576TIP3    H256144   5.850   2.236   5.052  0.4761 -0.3559  1.0903
11577TIP3   OH256145   1.764   3.359   4.555  0.0703  0.0824  0.4577
11577TIP3    H156146   1.713   3.384   4.478  2.6977  1.3624 -1.0104
11577TIP3    H256147   1.792   3.442   4.594  2.9282 -0.4630 -0.2194
11578TIP3   OH256148   3.780   3.845   0.166  0.1722 -0.2595  0.2746
11578TIP3    H156149   3.693   3.804   0.160  0.3396 -1.0778  2.4876
11578TIP3    H256150   3.841   3.774   0.148  0.4340  0.1258 -0.4207
11579TIP3   OH256151   4.660   3.506   3.909 -0.2973 -0.3873  0.3627
11579TIP3    H156152   4.634   3.490   3.818 -0.3073  0.5703  0.1892
11579TIP3    H256153   4.746   3.465   3.917  0.9382  1.7696 -0.8699
11580TIP3   OH256154   6.574   0.933  11.684 -0.0153 -0.3276 -0.0766
11580TIP3    H156155   6.608   0.889  11.606  0.8550  2.4915 -1.4082
11580TIP3    H256156   6.628   0.898  11.756  2.4010  0.3782 -1.4342
11581TIP3   OH256157   5.581   0.440  12.549  0.3512 -0.6865 -0.2439
11581TIP3    H156158   5.607   0.479  12.632 -0.5137 -0.1837 -0.1959
11581TIP3    H256159   5.654   0.458  12.490  1.7674 -2.6115  0.8487
11582TIP3   OH256160   1.933   5.487   6.770 -0.6173 -0.3745  0.1274
11582TIP3    H156161   2.028   5.479   6.757 -0.7200 -1.6301  0.0121
11582TIP3    H256162   1.923   5.564   6.826  0.3599  0.6394 -1.0391
11583TIP3   OH256163   0.641   6.497   5.827 -0.3443  0.4646 -0.9083
11583TIP3    H156164   0.635   6.580   5.874  1.4932 -0.0016  0.2238
11583TIP3    H256165   0.556   6.455   5.841  0.1378  0.3110  2.1629
11584TIP3   OH256166   4.406   4.253  11.384 -0.1093  0.1241 -0.6258
11584TIP3    H156167   4.488   4.220  11.347 -0.6812 -0.6193 -1.2724
11584TIP3    H256168   4.338   4.197  11.346 -1.0558  1.5477 -1.1571
11585TIP3   OH256169   4.959   2.476  14.002 -0.0348 -0.3089  0.2009
11585TIP3    H156170   4.903   2.524  13.941 -0.0787  4.0391  3.2531
11585TIP3    H256171   4.899   2.420  14.051 -0.4622 -1.3481 -1.4418
11586TIP3   OH256172   3.143   0.099   3.814  0.2146 -0.0249  0.0064
11586TIP3    H156173   3.165   0.112   3.906 -0.8255 -1.7194  0.5302
11586TIP3    H256174   3.084   0.023   3.813  0.4386 -0.2387 -2.0833
11587TIP3   OH256175   2.281   1.048   3.244  0.1344 -0.4958  0.0865
11587TIP3    H156176   2.352   1.055   3.307 -0.7967  0.7214  1.0342
11587TIP3    H256177   2.293   1.123   3.186 -0.3924 -0.2744  0.2643
11588TIP3   OH256178   0.951   4.115  13.820 -0.3442  0.0308 -0.3192
11588TIP3    H156179   1.024   4.176  13.825  0.6501 -1.2209  1.1706
11588TIP3    H256180   0.877   4.163  13.859  0.3537  0.4007  0.5878
11589TIP3   OH256181   5.360   4.866  14.245 -0.2240 -0.3469  0.1490
11589TIP3    H156182   5.329   4.948  14.284 -1.0662 -0.5574 -0.0641
11589TIP3    H256183   5.344   4.877  14.151  2.1984  0.3344 -0.2454
11590TIP3   OH256184   0.881   1.181   1.966 -0.3495 -0.1630 -0.0743
11590TIP3    H156185   0.862   1.268   2.001 -1.0086 -0.9433  1.6339
11590TIP3    H256186   0.965   1.191   1.921 -0.1406  1.2238  0.5608
11591TIP3   OH256187   6.622   6.582  14.470 -0.4680  0.3513  0.2423
11591TIP3    H156188   6.577   6.573  14.554  0.2351 -0.4579  0.5458
11591TIP3    H256189   6.610   6.497  14.427  1.7033 -0.3183  0.8225
11592TIP3   OH256190   0.911   5.351   3.116 -0.1402  0.1236  0.1739
11592TIP3    H156191   0.828   5.316   3.084  0.6254 -0.9739 -0.6971
11592TIP3    H256192   0.919   5.317   3.205  0.3862 -1.6190 -0.5110
11593TIP3   OH256193   3.248   2.282  13.712 -0.1482 -0.4419  0.1404
11593TIP3    H156194   3.237   2.213  13.647 -0.4372 -1.6917  1.4667
11593TIP3    H256195   3.161   2.321  13.720  0.0102  0.0920 -0.5936
11594TIP3   OH256196   5.653   6.364  16.868  0.6804  0.1474  0.2153
11594TIP3    H156197   5.574   6.312  16.863  1.3670 -1.1076  1.7217
11594TIP3    H256198   5.714   6.321  16.808  0.2146  1.1997 -1.0585
11595TIP3   OH256199   3.036   0.894   1.687 -0.9649  0.3324  0.1745
11595TIP3    H156200   3.099   0.966   1.692 -0.1351 -0.3139 -0.5709
11595TIP3    H256201   3.085   0.817   1.717 -1.3267 -0.2200 -0.6193
11596TIP3   OH256202   2.423   3.638   1.909  0.2769  0.4542  0.4240
11596TIP3    H156203   2.446   3.546   1.920  0.2912  0.3606 -0.3313
11596TIP3    H256204   2.485   3.671   1.844 -1.4452  0.2857 -1.3984
11597TIP3   OH256205   6.587   1.823   0.344  0.0686 -0.3996 -0.5333
11597TIP3    H156206   6.673   1.790   0.319  0.7353  0.9177 -0.0571
11597TIP3    H256207   6.582   1.911   0.306  0.1365  0.6964  1.7732
11598TIP3   OH256208   5.550   4.645   5.075  0.0168 -0.6905 -0.5456
11598TIP3    H156209   5.496   4.566   5.071 -2.8021  1.0430  0.3611
11598TIP3    H256210   5.577   4.652   5.166 -1.4986  0.3949 -0.1373
11599TIP3   OH256211   0.144   6.233   2.072 -0.3097 -0.2757 -0.5178
11599TIP3    H156212   0.158   6.252   1.980 -0.5635  1.5377 -0.2250
11599TIP3    H256213   0.102   6.312   2.107  0.9981 -0.3740  1.4408
11600TIP3   OH256214   0.146   2.844  16.297  0.1449  0.2522  0.3227
11600TIP3    H156215   0.143   2.892  16.380  2.1199  0.0764  0.5211
11600TIP3    H256216   0.199   2.767  16.315 -2.5817 -1.8873 -0.1206
11601TIP3   OH256217   2.899   0.783   4.002  0.1276 -0.5015 -0.9254
11601TIP3    H156218   2.970   0.802   3.940  0.8853 -0.2697 -0.0098
11601TIP3    H256219   2.833   0.850   3.984  0.4612 -0.2673 -1.2912
11602TIP3   OH256220   1.279   0.889  12.712 -0.1973  0.2775 -0.0675
11602TIP3    H156221   1.232   0.954  12.659 -0.8356  0.2710  0.4803
11602TIP3    H256222   1.231   0.886  12.795  0.3509 -0.2555  0.2383
11603TIP3   OH256223   5.492   6.462   0.861 -0.1024 -0.0859 -0.3882
11603TIP3    H156224   5.435   6.520   0.912 -2.5480 -0.7831 -2.1349
11603TIP3    H256225   5.530   6.518   0.794  0.5643  0.1908  0.2041
11604TIP3   OH256226   6.690   4.146   1.380  1.0683  0.1544  0.1751
11604TIP3    H156227   6.758   4.131   1.446  0.2330  0.3975  1.1115
11604TIP3    H256228   6.630   4.209   1.421  0.3165  0.0052 -0.6625
11605TIP3   OH256229   6.166   3.304   0.112 -0.6532  0.9154  0.1488
11605TIP3    H156230   6.096   3.343   0.164 -1.2032  1.5491 -1.0123
11605TIP3    H256231   6.121   3.263   0.038 -0.0574 -1.6381  1.1226
11606TIP3   OH256232   5.927   4.845  11.060  0.4570 -0.2401 -0.1344
11606TIP3    H156233   5.841   4.814  11.032  1.1497 -0.1362 -2.6126
11606TIP3    H256234   5.945   4.796  11.140 -0.9660 -1.9255 -0.7744
11607TIP3   OH256235   3.325   3.212   0.978 -0.1493 -0.4908 -0.2402
11607TIP3    H156236   3.316   3.178   0.889  3.1740 -1.7283 -0.2383
11607TIP3    H256237   3.293   3.141   1.034 -1.1214 -0.1901 -0.4046
11608TIP3   OH256238   2.817   1.248  14.432  0.4962  0.8336 -0.1568
11608TIP3    H156239   2.750   1.183  14.413 -0.6156  2.4558 -2.1587
11608TIP3    H256240   2.844   1.229  14.522  0.5864 -2.6382 -0.7797
11609TIP3   OH256241   4.334   1.682  12.773  0.0799  0.0117 -0.7408
11609TIP3    H156242   4.314   1.735  12.850 -0.4851 -1.0446 -0.1422
11609TIP3    H256243   4.250   1.644  12.747  0.8371 -2.5783  0.3600
11610TIP3   OH256244   1.542   2.068  16.687  0.0505 -0.1402  0.3689
11610TIP3    H156245   1.601   2.060  16.762  3.4999 -2.1029 -2.2265
11610TIP3    H256246   1.550   2.160  16.660  1.8989 -0.3124  0.2096
11611TIP3   OH256247   5.859   4.099  12.684 -0.2152 -0.5832 -0.3700
11611TIP3    H156248   5.839   4.072  12.774 -0.2380  1.2172  0.1972
11611TIP3    H256249   5.776   4.135  12.652 -0.8271 -3.1260 -1.9059
11612TIP3   OH256250   2.803   0.418   4.529  0.1064  0.2676 -0.2420
11612TIP3    H156251   2.782   0.452   4.617 -1.9706 -0.5722 -0.3579
11612TIP3    H256252   2.807   0.496   4.474 -2.5459  0.5788 -0.1094
11613TIP3   OH256253   5.086   4.895  12.879 -0.2838 -0.1125 -0.0917
11613TIP3    H156254   5.142   4.869  12.952 -0.6721  1.1382  0.6767
11613TIP3    H256255   5.143   4.892  12.802  0.6546  0.4690  0.5674
11614TIP3   OH256256   4.440   4.507  11.490  0.2177 -0.0412 -0.1908
11614TIP3    H156257   4.433   4.436  11.426  0.0090 -1.1092  0.9881
11614TIP3    H256258   4.445   4.587  11.437  0.1268 -0.9037 -1.5318
11615TIP3   OH256259   2.817   1.042   0.852  0.0881  0.0960  0.6648
11615TIP3    H156260   2.816   0.991   0.772 -0.7160  1.2181 -0.0848
11615TIP3    H256261   2.753   0.999   0.909 -1.0374  0.5651 -0.1890
11616TIP3   OH256262   6.593   6.198   1.011 -0.6590 -0.5333  0.3775
11616TIP3    H156263   6.581   6.231   0.922  1.4395  0.1882  0.3000
11616TIP3    H256264   6.619   6.106   0.999 -0.3581 -0.4303  0.2473
11617TIP3   OH256265   6.626   4.781   6.412 -0.1942  0.2354 -0.7424
11617TIP3    H156266   6.589   4.752   6.329  1.2239  0.0157 -1.3080
11617TIP3    H256267   6.583   4.865   6.429  0.3786  0.8879 -2.3175
11618TIP3   OH256268   6.638   3.490  13.401 -0.2271  0.1792 -0.2261
11618TIP3    H156269   6.734   3.487  13.404  0.0221  0.1300 -3.7971
11618TIP3    H256270   6.611   3.399  13.406  0.1192 -0.0135 -1.4588
11619TIP3   OH256271   5.415   1.900   5.158 -0.2399 -0.1810  0.1635
11619TIP3    H156272   5.456   1.939   5.081  1.2225 -1.4180  0.2756
11619TIP3    H256273   5.390   1.975   5.212  2.7459  0.7065  0.5128
11620TIP3   OH256274   5.216   2.916   5.536 -0.2974  0.4867  0.6297
11620TIP3    H156275   5.131   2.899   5.496  0.1816  1.1420 -0.7066
11620TIP3    H256276   5.245   2.831   5.567 -0.2938 -0.2191 -1.2194
11621TIP3   OH256277   4.762   5.574   4.489 -0.1786 -0.2181  0.0869
11621TIP3    H156278   4.814   5.495   4.507 -0.1305 -0.4164 -0.8778
11621TIP3    H256279   4.701   5.579   4.563 -0.0277 -1.0327  0.2830
11622TIP3   OH256280   1.899   5.191   2.318 -0.0124 -0.0622  0.2088
11622TIP3    H156281   1.966   5.155   2.261  1.9249 -0.4495  2.5506
11622TIP3    H256282   1.852   5.114   2.352  1.6040 -0.2602  2.2342
11623TIP3   OH256283   5.412   2.112   5.345  0.2708  0.3346  0.1032
11623TIP3    H156284   5.424   2.103   5.440  1.2541  0.2768 -0.0256
11623TIP3    H256285   5.497   2.138   5.312  0.0020  0.0799 -0.8126
11624TIP3   OH256286   1.784   0.085   3.229 -0.6811  0.8165 -0.4739
11624TIP3    H156287   1.864   0.033   3.230 -1.3794 -0.5002  2.8959
11624TIP3    H256288   1.798   0.151   3.161  3.2028  0.6133 -0.0851
11625TIP3   OH256289   5.927   0.290   4.404 -0.4592  0.4512 -0.1494
11625TIP3    H156290   6.000   0.232   4.382 -0.3087  0.8498 -0.7237
11625TIP3    H256291   5.898   0.326   4.320  0.7242  2.7166  0.3297
11626TIP3   OH256292   3.899   6.081   5.868 -0.1024 -0.2173 -0.4703
11626TIP3    H156293   3.965   6.106   5.933  2.2826 -1.1146 -2.3787
11626TIP3    H256294   3.884   5.988   5.883  0.5493 -0.4578 -1.2048
11627TIP3   OH256295   1.495   4.800  11.951 -1.0855  0.0430  0.4129
11627TIP3    H156296   1.427   4.865  11.932 -0.0518  0.5962 -1.6973
11627TIP3    H256297   1.574   4.852  11.964  0.0127 -0.7287 -2.4379
11628TIP3   OH256298   2.052   0.195  14.368 -0.4813 -0.6077  0.0639
11628TIP3    H156299   2.125   0.134  14.374  2.0013  1.9953 -1.3039
11628TIP3    H256300   2.008   0.187  14.453  1.6038 -2.0040  1.1160
11629TIP3   OH256301   6.727   4.319   6.371 -0.0440  0.2376 -0.2139
11629TIP3    H156302   6.785   4.245   6.388  0.1709  0.5964  0.6614
11629TIP3    H256303   6.677   4.330   6.452 -0.0743  1.0429 -0.3329
11630TIP3   OH256304   1.082   2.576   2.015 -0.2593  0.2030  0.0292
11630TIP3    H156305   1.006   2.551   1.963 -0.6874  0.4925  0.4987
11630TIP3    H256306   1.113   2.494   2.054 -0.2579  0.0676 -0.2547
11631TIP3   OH256307   6.617   2.241   5.445 -0.6586  0.1031 -0.0123
11631TIP3    H156308   6.581   2.159   5.479 -0.0577 -0.1358  0.0503
11631TIP3    H256309   6.682   2.267   5.509  1.6258 -1.1505 -1.6657
11632TIP3   OH256310   3.951   0.172   0.240 -0.1919 -0.3148 -0.2637
11632TIP3    H156311   3.894   0.129   0.177  0.1974 -4.1266  1.7363
11632TIP3    H256312   3.918   0.145   0.325  2.6994 -0.0944  1.0433
11633TIP3   OH256313   2.112   6.223   5.134 -0.0647  0.6500 -0.2863
11633TIP3    H156314   2.128   6.156   5.200 -0.9263  0.7781  0.0735
11633TIP3    H256315   2.018   6.216   5.115  0.2061  0.4589 -1.6804
11634TIP3   OH256316   0.768   1.607   3.609  0.0617 -0.0830 -0.3722
11634TIP3    H156317   0.800   1.692   3.578 -0.2552  0.2765  0.2831
11634TIP3    H256318   0.737   1.623   3.698  0.5681 -1.0214 -0.0102
11635TIP3   OH256319   0.156   0.279  16.088 -0.0314  0.8356 -0.0400
11635TIP3    H156320   0.128   0.228  16.012 -0.6538 -1.0825  1.3963
11635TIP3    H256321   0.251   0.276  16.085 -0.0510  0.8293 -0.7765
11636TIP3   OH256322   1.067   5.796  11.660 -0.3197 -0.1064 -0.0117
11636TIP3    H156323   0.977   5.772  11.641 -1.0168  2.8604 -1.0244
11636TIP3    H256324   1.120   5.734  11.610 -1.8143 -1.0172 -0.5284
11637TIP3   OH256325   6.022   0.788   3.138 -0.6153  0.7601 -0.0517
11637TIP3    H156326   5.956   0.823   3.078  1.5979  2.0669 -1.9126
11637TIP3    H256327   6.065   0.719   3.088 -1.5528 -1.2184  1.7245
11638TIP3   OH256328   4.002   3.311  13.404 -0.0577 -0.1611  0.0387
11638TIP3    H156329   3.978   3.342  13.491 -0.0829  0.5793 -0.2219
11638TIP3    H256330   4.056   3.234  13.420  1.4044  0.9582  0.7901
11639TIP3   OH256331   5.889   6.128   3.878 -0.7671 -0.2917  0.3054
11639TIP3    H156332   5.877   6.076   3.798  0.7799  0.0635 -0.2102
11639TIP3    H256333   5.971   6.176   3.862 -0.8159  0.3371  1.8187
11640TIP3   OH256334   0.012   0.953   2.408 -0.2696  0.0625  0.0489
11640TIP3    H156335   0.078   0.973   2.474  0.1303  0.6179 -0.5091
11640TIP3    H256336  -0.032   1.036   2.391 -1.3460 -0.3599  0.6442
11641TIP3   OH256337   0.711   1.686   0.418  0.0045 -0.4581 -0.4781
11641TIP3    H156338   0.678   1.773   0.440  0.4746 -0.6191  0.9582
11641TIP3    H256339   0.694   1.677   0.324 -2.3691  0.1738 -0.1708
11642TIP3   OH256340   4.920   1.117  16.854 -0.6769 -0.2002  0.5192
11642TIP3    H156341   4.881   1.117  16.942 -0.2044 -0.8736  0.7267
11642TIP3    H256342   4.972   1.197  16.851  0.4289 -0.8707  1.3588
11643TIP3   OH256343   3.396   0.969  12.425  0.3629 -0.6521  0.4879
11643TIP3    H156344   3.448   1.022  12.486 -0.7074 -0.4023  1.2105
11643TIP3    H256345   3.432   0.990  12.339  0.3114  0.8436  0.8096
11644TIP3   OH256346   4.635   6.256   6.114 -0.1757  0.0974 -0.2134
11644TIP3    H156347   4.564   6.208   6.157  1.1746 -1.8537 -0.0081
11644TIP3    H256348   4.609   6.261   6.023 -0.0617 -1.7408 -0.3837
11645TIP3   OH256349   2.896   6.469   2.261 -0.5101 -0.0336 -0.1776
11645TIP3    H156350   2.845   6.525   2.203 -0.5065 -0.0011 -0.1497
11645TIP3    H256351   2.844   6.389   2.269 -1.3443  0.5955  1.1012
11646TIP3   OH256352   6.472   2.684  17.021  0.8511 -0.2802  0.2973
11646TIP3    H156353   6.390   2.697  16.973  0.6212  1.0414  0.9788
11646TIP3    H256354   6.506   2.772  17.034  1.6723 -0.7144  1.2292
11647TIP3   OH256355   1.523   4.987   0.273  0.1573  0.1455 -0.0604
11647TIP3    H156356   1.561   4.900   0.255  0.6692 -0.0186  1.5665
11647TIP3    H256357   1.445   4.968   0.325 -0.3364  0.6305 -0.6196
11648TIP3   OH256358   4.608   6.574  11.158  0.1436  0.9310  0.2875
11648TIP3    H156359   4.514   6.586  11.166  0.0026  1.1942 -1.3625
11648TIP3    H256360   4.634   6.634  11.088  1.3388 -0.0208 -0.1226
11649TIP3   OH256361   1.597   0.856   0.672 -0.9809 -0.1787 -0.5740
11649TIP3    H156362   1.549   0.889   0.748 -0.8198 -2.1953  0.4629
11649TIP3    H256363   1.688   0.852   0.701 -0.5336  1.2280 -1.6834
11650TIP3   OH256364   4.095   2.185  13.494 -0.4126 -0.1387  0.4499
11650TIP3    H156365   4.089   2.102  13.447  1.8275 -0.1519  0.0719
11650TIP3    H256366   4.127   2.161  13.581 -0.0777  0.2914  0.4488
11651TIP3   OH256367   1.106   1.410  13.874 -0.2569 -0.7931 -0.3785
11651TIP3    H156368   1.115   1.443  13.963 -0.3381 -0.6172 -0.4341
11651TIP3    H256369   1.021   1.367  13.872 -0.6660  0.0065 -0.6202
11652TIP3   OH256370   3.226   2.568   5.850  0.3274 -0.5955  0.6681
11652TIP3    H156371   3.236   2.489   5.795  1.9084  1.0840 -1.6829
11652TIP3    H256372   3.316   2.595   5.868 -0.1915  0.5070  1.6963
11653TIP3   OH256373   1.077   2.846   2.558 -0.0254 -0.2947 -0.0036
11653TIP3    H156374   1.010   2.795   2.513  0.0558 -0.1675 -0.2739
11653TIP3    H256375   1.039   2.933   2.567 -1.7377 -1.2173  3.8208
11654TIP3   OH256376   3.803   6.113  14.061 -0.1717  0.1270 -0.2134
11654TIP3    H156377   3.865   6.046  14.036  0.1697  0.8074 -1.2320
11654TIP3    H256378   3.843   6.195  14.034 -1.2595  0.6274 -0.3871
11655TIP3   OH256379   4.454   3.613   1.305 -0.3382 -0.2532 -0.0364
11655TIP3    H156380   4.461   3.539   1.244 -0.2237  0.1753 -0.5499
11655TIP3    H256381   4.367   3.604   1.344 -0.7134 -0.1042 -0.8224
11656TIP3   OH256382   2.166   5.610   4.142 -0.1007 -0.1308  0.2876
11656TIP3    H156383   2.133   5.699   4.131  0.8031  0.2141  0.2995
11656TIP3    H256384   2.091   5.560   4.175 -0.0335  1.1263  2.4873
11657TIP3   OH256385   0.663   3.746  14.944 -0.2036  0.4207 -0.2255
11657TIP3    H156386   0.709   3.829  14.934 -1.1317  1.0800  0.7859
11657TIP3    H256387   0.602   3.743  14.871  2.1304 -1.0000 -2.2745
11658TIP3   OH256388   3.702   1.187  10.687 -0.3348  0.2471 -0.3040
11658TIP3    H156389   3.609   1.197  10.669 -0.7250 -1.7453  0.3104
11658TIP3    H256390   3.737   1.142  10.609 -0.6926 -2.3078  0.8881
11659TIP3   OH256391   1.264   1.013   5.279  0.0827  0.1843  0.4656
11659TIP3    H156392   1.327   1.061   5.332  1.9085 -0.5507 -0.9311
11659TIP3    H256393   1.212   0.963   5.343 -0.3869  2.2269  1.7732
11660TIP3   OH256394   5.673   2.418  14.627 -0.0176  0.1601  0.6274
11660TIP3    H156395   5.683   2.344  14.687 -1.0817  0.0768  0.7166
11660TIP3    H256396   5.631   2.486  14.680 -0.6917  0.1912  0.0635
11661TIP3   OH256397   0.104   6.390  11.258  0.2528 -0.1919  0.1172
11661TIP3    H156398   0.098   6.479  11.224 -1.3153 -0.7512 -1.1611
11661TIP3    H256399   0.106   6.335  11.180 -0.8638 -1.3832  0.9032
11662TIP3   OH256400   2.376   3.370  16.984  0.4995  0.6163 -0.1711
11662TIP3    H156401   2.427   3.311  16.929  0.0578 -0.8916  0.9849
11662TIP3    H256402   2.323   3.421  16.922 -0.1284 -1.1583 -1.1526
11663TIP3   OH256403   4.561   6.085   1.995 -0.1488 -0.2636 -0.2924
11663TIP3    H156404   4.527   6.052   2.078  1.6990 -0.7669  0.2996
11663TIP3    H256405   4.600   6.170   2.017 -1.3015  0.4881 -1.0363
11664TIP3   OH256406   1.415   4.724  10.592  0.1435 -0.4382  0.6463
11664TIP3    H156407   1.486   4.767  10.641 -0.9134  0.9262  1.0183
11664TIP3    H256408   1.455   4.702  10.507  0.7157  1.3066  0.4328
11665TIP3   OH256409   2.081   3.563   0.101  0.2121 -0.0976  0.5732
11665TIP3    H156410   2.047   3.596   0.184  1.4778  1.7873  0.4110
11665TIP3    H256411   2.004   3.527   0.057 -0.7152  0.0116  2.0321
11666TIP3   OH256412   6.780   3.293   0.084 -0.1075 -0.2626  0.5879
11666TIP3    H156413   6.726   3.336   0.151  0.0718  1.1491 -0.1403
11666TIP3    H256414   6.778   3.353   0.010  1.5180 -0.7523  0.1219
11667TIP3   OH256415   6.092   3.860   3.073  0.0684  0.8666  0.2677
11667TIP3    H156416   6.107   3.768   3.050  0.9304  0.8702  0.7631
11667TIP3    H256417   6.153   3.876   3.145 -0.2817  1.7512  0.3698
11668TIP3   OH256418   2.861   2.775   3.106 -0.5393 -0.2404  0.6758
11668TIP3    H156419   2.862   2.854   3.052 -3.0958 -1.5301 -1.4606
11668TIP3    H256420   2.953   2.750   3.113  0.0568  1.0873 -1.4169
11669TIP3   OH256421   0.851   1.291  13.916 -0.4545 -0.1250  0.1188
11669TIP3    H156422   0.784   1.228  13.942 -1.7544  0.1918 -2.2417
11669TIP3    H256423   0.804   1.374  13.907  0.6900  0.5850  0.4540
11670TIP3   OH256424   1.680   1.664  15.957  0.4399 -0.1492 -0.2560
11670TIP3    H156425   1.693   1.583  15.908  1.2615  0.9422 -1.9315
11670TIP3    H256426   1.646   1.635  16.042 -0.3462 -2.1641 -1.1815
11671TIP3   OH256427   2.350   3.406  15.715  0.4283  0.2310  0.0625
11671TIP3    H156428   2.319   3.423  15.626  0.4493 -0.0093  0.0094
11671TIP3    H256429   2.347   3.492  15.758  0.7462  0.4122 -0.2729
11672TIP3   OH256430   4.161   1.194  13.300 -0.0130 -0.7724 -0.9454
11672TIP3    H156431   4.083   1.200  13.245 -1.3135  1.4199  0.9276
11672TIP3    H256432   4.145   1.119  13.357 -0.9307 -0.1728 -0.3880
11673TIP3   OH256433   0.850   0.615  17.050 -1.0126 -0.1238  0.5588
11673TIP3    H156434   0.857   0.586  16.959 -1.8688 -1.3270  0.8398
11673TIP3    H256435   0.875   0.707  17.048  0.0782 -0.4124 -0.7037
11674TIP3   OH256436   4.125   0.788   4.456 -0.5360  0.8871  0.0125
11674TIP3    H156437   4.167   0.833   4.530 -1.4830  0.8122  0.6117
11674TIP3    H256438   4.052   0.741   4.496  0.8650 -1.8563 -0.4543
11675TIP3   OH256439   2.822   3.153   3.724  0.4153  0.0927  0.3745
11675TIP3    H156440   2.798   3.184   3.636  0.5549  0.1993  0.3739
11675TIP3    H256441   2.846   3.061   3.712  1.3754  0.3601  0.1336
11676TIP3   OH256442   1.565   5.063  13.100  0.7853  0.0117  0.3613
11676TIP3    H156443   1.607   5.137  13.143  0.0448  0.7822 -0.2032
11676TIP3    H256444   1.471   5.080  13.109  0.5034 -2.1562  2.4176
11677TIP3   OH256445   1.785   2.803   0.982 -0.6714 -0.3809 -0.3150
11677TIP3    H156446   1.717   2.841   1.038 -0.8582 -2.8219  1.2486
11677TIP3    H256447   1.747   2.802   0.894 -3.5670 -3.3417  0.7815
11678TIP3   OH256448   0.623   3.846  13.660 -0.1372  0.6509 -0.0128
11678TIP3    H156449   0.712   3.832  13.692  0.2329  0.0636 -1.2058
11678TIP3    H256450   0.628   3.822  13.567 -1.8777 -0.8765  0.2369
11679TIP3   OH256451   4.525   4.407  15.756  0.0665 -0.3421  0.1051
11679TIP3    H156452   4.472   4.448  15.824  1.9049  0.8062  0.9332
11679TIP3    H256453   4.474   4.418  15.675 -1.5280 -0.4943  1.0517
11680TIP3   OH256454   5.687   4.601   2.021  0.8494 -0.5253 -0.0544
11680TIP3    H156455   5.607   4.611   1.969  0.0450 -0.1511  1.2211
11680TIP3    H256456   5.747   4.667   1.986 -0.0943  0.5069  0.2448
11681TIP3   OH256457   1.291   5.773   1.596  0.4724  0.3079  0.2611
11681TIP3    H156458   1.289   5.825   1.516  0.0821 -2.3267 -1.5570
11681TIP3    H256459   1.201   5.776   1.629  0.8789  2.3604  1.3660
11682TIP3   OH256460   0.929   6.363  13.842 -0.3685 -0.3639  0.0394
11682TIP3    H156461   0.894   6.428  13.903  0.3273  0.4418 -0.3942
11682TIP3    H256462   0.956   6.414  13.765 -0.5007 -1.2608 -0.6244
11683TIP3   OH256463   2.313   3.718  11.707 -0.0696 -0.2207 -0.3404
11683TIP3    H156464   2.336   3.643  11.763  3.1553  1.6067  1.0172
11683TIP3    H256465   2.320   3.684  11.618  0.7971 -1.6798  0.2404
11684TIP3   OH256466   4.623   5.655  14.785  0.3627  0.4014  0.0333
11684TIP3    H156467   4.561   5.729  14.784  0.1445  0.2758 -2.4314
11684TIP3    H256468   4.688   5.679  14.851 -0.6095  2.0225  0.4552
11685TIP3   OH256469   2.257   5.412  16.640 -0.2505  0.0381  0.2010
11685TIP3    H156470   2.251   5.351  16.567 -1.5414  0.6521 -0.2482
11685TIP3    H256471   2.289   5.494  16.601  1.0122 -0.1987  0.7094
11686TIP3   OH256472   6.701   4.970  12.299  0.5799  0.1388  0.0526
11686TIP3    H156473   6.665   5.053  12.267  1.9415  0.3630 -0.9689
11686TIP3    H256474   6.689   4.909  12.227  0.0292 -0.4361  0.6233
11687TIP3   OH256475   3.522   1.146  12.588 -0.2287 -0.2137  0.1746
11687TIP3    H156476   3.615   1.142  12.568 -0.2520  0.4014 -0.0716
11687TIP3    H256477   3.517   1.130  12.682  0.0451 -1.1468  0.0402
11688TIP3   OH256478   6.788   2.077   2.640  0.1205  0.2661  0.5303
11688TIP3    H156479   6.817   2.151   2.587  0.7122  0.8042  1.5757
11688TIP3    H256480   6.698   2.061   2.613  0.2475  0.8654 -0.2605
11689TIP3   OH256481   1.409   5.477  14.444  0.2433 -0.3799  0.1330
11689TIP3    H156482   1.406   5.408  14.511 -0.0675 -1.5122 -1.0034
11689TIP3    H256483   1.384   5.557  14.490 -1.4989 -1.4004  1.0422
11690TIP3   OH256484   4.153   2.715   5.428  0.4721  0.3467 -0.1150
11690TIP3    H156485   4.215   2.748   5.492 -0.4412  0.8720  0.5077
11690TIP3    H256486   4.089   2.785   5.416 -0.6584 -0.6070  0.1176
11691TIP3   OH256487   4.245   5.743  10.675 -0.3713  0.0672  0.1254
11691TIP3    H156488   4.209   5.792  10.748  0.1618  0.1487  0.3428
11691TIP3    H256489   4.189   5.765  10.600 -0.7563  0.1905  0.4477
11692TIP3   OH256490   1.598   0.719   1.007  0.1991 -0.1425  0.0453
11692TIP3    H156491   1.535   0.783   0.973  0.6192 -0.2245 -0.9171
11692TIP3    H256492   1.580   0.639   0.958  2.5913  0.4719 -2.0812
11693TIP3   OH256493   2.332   5.909  15.170  0.1381  0.0072 -0.3382
11693TIP3    H156494   2.339   5.924  15.076  0.4158  0.2475 -0.2784
11693TIP3    H256495   2.347   5.815  15.180  1.0340  0.1356 -0.4407
11694TIP3   OH256496   5.163   6.744   2.182 -0.1324  0.0052  0.0715
11694TIP3    H156497   5.093   6.795   2.223  0.3181  1.6277 -1.0655
11694TIP3    H256498   5.119   6.692   2.115 -0.1807  1.8745 -1.4234
11695TIP3   OH256499   5.094   3.251  17.189  0.3665  0.4318 -0.0244
11695TIP3    H156500   5.187   3.241  17.211  0.6695  0.9610 -1.0104
11695TIP3    H256501   5.057   3.164  17.205  1.6243 -0.6114 -2.2493
11696TIP3   OH256502   6.437   2.078  14.266 -0.7328  0.3938  0.3642
11696TIP3    H156503   6.425   2.004  14.325 -4.0365  1.3078  0.9991
11696TIP3    H256504   6.362   2.135  14.283  0.3542  2.6678 -1.8914
11697TIP3   OH256505   4.077   3.070  15.491 -0.2467  0.1969 -0.2199
11697TIP3    H156506   4.111   3.086  15.404  1.0397  2.3397  0.6049
11697TIP3    H256507   3.982   3.078  15.482 -0.1865 -0.4554 -1.5528
11698TIP3   OH256508   6.286   3.796   5.912  0.6338  0.3996  0.2080
11698TIP3    H156509   6.200   3.763   5.938  0.9236  0.5212  1.3793
11698TIP3    H256510   6.268   3.883   5.876  0.3950  1.0526  1.8105
11699TIP3   OH256511   6.681   4.135  15.396 -0.1599 -0.1152 -0.2573
11699TIP3    H156512   6.736   4.059  15.377 -2.7752 -2.6381  1.3140
11699TIP3    H256513   6.700   4.158  15.487 -0.0185  0.5409 -0.4474
11700TIP3   OH256514   2.016   5.703  15.281 -0.8053 -0.3858 -0.6002
11700TIP3    H156515   2.049   5.644  15.214 -0.7914 -0.4440 -0.5418
11700TIP3    H256516   2.009   5.788  15.237  2.5157  0.4591  0.1813
11701TIP3   OH256517   3.216   3.836   3.003 -0.3729 -0.6346 -0.4186
11701TIP3    H156518   3.220   3.932   2.996 -1.2593 -0.4069  1.5341
11701TIP3    H256519   3.280   3.815   3.070 -0.3764 -1.4048 -0.6552
11702TIP3   OH256520   0.076   2.790   5.833 -0.6227 -0.3510  0.1194
11702TIP3    H156521   0.040   2.878   5.837 -0.4914 -0.3012  0.2233
11702TIP3    H256522   0.168   2.803   5.810 -0.6917 -0.4818 -0.2320
11703TIP3   OH256523   3.300   0.600  10.750  0.2409 -0.3745 -0.5221
11703TIP3    H156524   3.214   0.611  10.791  0.0885  0.8595 -1.1158
11703TIP3    H256525   3.323   0.508  10.765 -0.1347 -0.1681  1.6578
11704TIP3   OH256526   4.243   6.630   1.078 -0.1998  0.8722  0.2267
11704TIP3    H156527   4.194   6.710   1.059 -0.1570  0.8392 -0.0231
11704TIP3    H256528   4.335   6.654   1.067 -0.2261  0.5054 -0.9562
11705TIP3   OH256529   1.976   6.015   6.223  0.3946  0.0980 -0.8318
11705TIP3    H156530   2.061   6.054   6.203  0.0255  0.4044 -1.9274
11705TIP3    H256531   1.969   5.940   6.164  0.7463 -1.1707  0.6906
11706TIP3   OH256532   0.411   3.207   1.125 -0.5457  0.1051  0.4503
11706TIP3    H156533   0.344   3.202   1.193  0.7500 -1.5141  1.6773
11706TIP3    H256534   0.365   3.185   1.044 -1.4437 -1.4035  1.3322
11707TIP3   OH256535   2.032   6.604  11.780 -0.5195 -0.3401 -0.1853
11707TIP3    H156536   2.080   6.618  11.862 -1.2378  0.2931  0.1344
11707TIP3    H256537   1.958   6.549  11.804  0.6352 -2.3168 -0.8962
11708TIP3   OH256538   4.650   3.168  15.981  0.6955 -0.2086  0.0547
11708TIP3    H156539   4.573   3.122  15.949  0.3049  1.6950 -2.0714
11708TIP3    H256540   4.668   3.130  16.067 -2.9428 -0.3535  0.9024
11709TIP3   OH256541   2.354   1.704  14.090  0.4323 -0.2191  0.3138
11709TIP3    H156542   2.366   1.797  14.068 -0.7598 -0.0045  0.4762
11709TIP3    H256543   2.442   1.671  14.106  0.8745  0.8878  0.2381
11710TIP3   OH256544   5.234   2.048  12.185 -0.0354 -0.5690 -0.1116
11710TIP3    H156545   5.157   2.005  12.148 -0.7323  0.5009  0.0584
11710TIP3    H256546   5.274   2.093  12.111  0.7068 -1.4870 -0.2932
11711TIP3   OH256547   6.691   4.728  16.822  0.1912  0.1073  0.0667
11711TIP3    H156548   6.666   4.669  16.893 -0.3803 -3.4736 -2.7752
11711TIP3    H256549   6.786   4.735  16.830  0.2001 -0.7025  0.8908
11712TIP3   OH256550   6.262   3.270  13.060  0.3839 -0.3056  0.1780
11712TIP3    H156551   6.284   3.200  12.998 -0.6063 -1.4663  1.0804
11712TIP3    H256552   6.179   3.243  13.098 -0.8779  2.2071 -0.6122
11713TIP3   OH256553   2.302   2.707  12.991 -0.5260 -0.3961 -0.2906
11713TIP3    H156554   2.384   2.659  12.982 -0.4109 -0.2739  0.0671
11713TIP3    H256555   2.277   2.695  13.083 -0.1556  0.7519 -0.0175
11714TIP3   OH256556   0.650   2.552  12.189 -0.1633  0.0094  0.3902
11714TIP3    H156557   0.587   2.484  12.211 -0.5954 -0.7778 -2.7809
11714TIP3    H256558   0.596   2.624  12.154  0.5303  0.4041  0.1138
11715TIP3   OH256559   2.189   6.427  13.414  0.3923  0.4089 -0.2343
11715TIP3    H156560   2.247   6.355  13.436  0.6158  1.0397  1.3345
11715TIP3    H256561   2.245   6.492  13.372  0.7185  0.7907  0.7888
11716TIP3   OH256562   6.444   3.237   4.026  0.2662 -0.8361  0.0060
11716TIP3    H156563   6.520   3.228   4.084  0.8847  0.9281 -0.4688
11716TIP3    H256564   6.439   3.331   4.007 -0.5373 -1.2237 -1.9774
11717TIP3   OH256565   5.548   6.084  12.064  0.4055  0.2202  0.2107
11717TIP3    H156566   5.514   6.013  12.010  0.3940  0.5909 -0.2709
11717TIP3    H256567   5.617   6.123  12.012  0.0155  0.9419  0.2249
11718TIP3   OH256568   1.303   5.149  13.154 -0.2930 -0.1664  0.3177
11718TIP3    H156569   1.319   5.242  13.139  2.3037 -0.3577  1.3679
11718TIP3    H256570   1.216   5.146  13.193 -1.1566  1.6162 -1.3270
11719TIP3   OH256571   0.958   3.244  11.202 -0.1579  0.2193  0.4904
11719TIP3    H156572   0.941   3.295  11.123 -0.4635 -1.1251 -0.3396
11719TIP3    H256573   1.026   3.293  11.248 -0.9461  1.7537  0.1017
11720TIP3   OH256574   6.521   0.477  10.459 -0.1450  0.1629  0.6123
11720TIP3    H156575   6.602   0.465  10.410 -0.0787  1.8258  0.2241
11720TIP3    H256576   6.542   0.544  10.524 -0.9885  0.0181  1.0484
11721TIP3   OH256577   4.442   1.335  11.546 -0.4770  0.4964 -0.0922
11721TIP3    H156578   4.512   1.344  11.481 -0.2173 -0.4660  0.0490
11721TIP3    H256579   4.362   1.324  11.494  0.1373 -4.2658 -0.4459
11722TIP3   OH256580   5.611   3.856  14.734  0.6780  0.1517  0.2101
11722TIP3    H156581   5.620   3.761  14.735  0.4555  0.1294  0.2706
11722TIP3    H256582   5.697   3.889  14.760  0.6351 -0.0441  0.6064
11723TIP3   OH256583   1.358   1.504   6.347 -0.5414  0.0964  0.0984
11723TIP3    H156584   1.422   1.445   6.306  1.5217  1.5432  1.0775
11723TIP3    H256585   1.380   1.590   6.312 -2.1352  0.6176  0.3166
11724TIP3   OH256586   2.423   3.643   4.724 -0.1994 -0.1849 -1.1698
11724TIP3    H156587   2.470   3.560   4.712  1.0071  0.2220  0.3865
11724TIP3    H256588   2.395   3.667   4.636  2.5778 -0.4507 -2.2340
11725TIP3   OH256589   2.397   4.221   0.056 -0.6086  0.3722 -0.0028
11725TIP3    H156590   2.423   4.180  -0.027  0.0809  1.2596 -0.2447
11725TIP3    H256591   2.475   4.215   0.111 -1.1988 -0.6099  0.7584
11726TIP3   OH256592   4.077   3.483   5.389 -0.9139 -0.6509  0.2402
11726TIP3    H156593   4.085   3.410   5.327 -1.7762 -0.1199 -0.5160
11726TIP3    H256594   4.056   3.558   5.335  0.7908  0.3668  0.9153
11727TIP3   OH256595   4.530   0.769   3.457 -0.1770  0.0180 -0.1965
11727TIP3    H156596   4.623   0.789   3.473  0.4727 -0.7805 -2.5747
11727TIP3    H256597   4.486   0.796   3.537  1.9025  1.8756  0.4312
11728TIP3   OH256598   2.650   3.233   2.158 -0.0146 -0.1867 -0.3600
11728TIP3    H156599   2.591   3.179   2.210 -0.7315  1.4052  0.5759
11728TIP3    H256600   2.667   3.310   2.213  3.3379 -0.7669 -0.3869
11729TIP3   OH256601   4.885   1.769  12.958 -0.1981  0.1494  0.3332
11729TIP3    H156602   4.909   1.726  12.876  0.2495 -0.7460  0.9225
11729TIP3    H256603   4.899   1.863  12.941  2.2769 -0.1807  0.1385
11730TIP3   OH256604   5.442   4.874   2.970 -0.7136 -0.2578  1.0016
11730TIP3    H156605   5.450   4.866   3.065 -1.8170 -0.9959  1.0532
11730TIP3    H256606   5.386   4.950   2.956 -0.3339  0.0108  0.9272
11731TIP3   OH256607   4.522   4.973  12.826 -0.2360  0.0741  0.2164
11731TIP3    H156608   4.613   4.951  12.810  0.0610  1.1427  0.3753
11731TIP3    H256609   4.519   5.002  12.917 -1.0417 -1.4602  0.7105
11732TIP3   OH256610   4.712   5.138  13.994 -0.5668 -0.1310  0.3336
11732TIP3    H156611   4.789   5.085  13.971  0.4204  0.9768  1.0176
11732TIP3    H256612   4.739   5.188  14.071 -1.4153  1.4815 -0.3760
11733TIP3   OH256613   4.147   5.309  15.584  0.0847 -0.6804 -0.7871
11733TIP3    H156614   4.121   5.380  15.525  1.1191  0.8285  0.4757
11733TIP3    H256615   4.241   5.321  15.596  0.1485 -1.8240  0.0640
11734TIP3   OH256616   3.958   4.007   0.005 -0.8252  0.0766  0.1464
11734TIP3    H156617   4.042   3.962  -0.007 -1.4262 -0.9741 -0.2322
11734TIP3    H256618   3.913   3.956   0.072 -1.3746  0.3361 -0.0211
11735TIP3   OH256619   3.200   4.720  11.735  0.1703 -0.2615 -0.4010
11735TIP3    H156620   3.258   4.793  11.751 -0.3237  0.2865 -1.0306
11735TIP3    H256621   3.254   4.655  11.691  0.3827  0.1157 -0.6993
11736TIP3   OH256622   5.240   2.814   5.261  0.4092 -0.5190 -0.1890
11736TIP3    H156623   5.216   2.739   5.316 -0.1279  0.8289  1.5043
11736TIP3    H256624   5.317   2.851   5.303  0.6827 -0.1186 -1.0228
11737TIP3   OH256625   2.637   3.862   6.458 -0.1146 -0.6179  0.3659
11737TIP3    H156626   2.542   3.860   6.469 -0.0497  0.1595  1.1542
11737TIP3    H256627   2.662   3.953   6.476  0.7826 -0.8227  0.2081
11738TIP3   OH256628   3.686   6.215  16.819 -0.1835 -0.3421 -0.0588
11738TIP3    H156629   3.713   6.304  16.841 -2.0846  0.4824 -0.8480
11738TIP3    H256630   3.606   6.226  16.767  0.0156 -2.4765 -0.9419
11739TIP3   OH256631   3.026   0.733   0.115 -0.4342  0.6908  0.1710
11739TIP3    H156632   2.965   0.750   0.186 -1.0951 -1.4907  0.2009
11739TIP3    H256633   3.010   0.641   0.091  0.8449  0.9081 -1.7457
11740TIP3   OH256634   6.136   1.541   1.395  0.0917 -0.6865 -0.0351
11740TIP3    H156635   6.082   1.614   1.426  0.0144 -0.2338 -1.1809
11740TIP3    H256636   6.226   1.567   1.415  0.1118  0.0190 -0.9883
11741TIP3   OH256637   5.371   5.761   0.000  0.1009 -0.3439 -0.1447
11741TIP3    H156638   5.443   5.805  -0.046  2.1647 -1.4646  1.7752
11741TIP3    H256639   5.295   5.816  -0.015  1.2657  0.7417 -2.5806
11742TIP3   OH256640   6.399   1.660  14.033 -0.2035 -0.3484  0.2579
11742TIP3    H156641   6.327   1.597  14.025  0.3998 -0.9872 -0.3145
11742TIP3    H256642   6.356   1.744  14.047 -1.0371 -0.8618  0.9617
11743TIP3   OH256643   5.296   5.714  15.130 -0.4283 -0.0954 -0.1242
11743TIP3    H156644   5.347   5.725  15.211  1.8655 -0.1213 -1.4793
11743TIP3    H256645   5.247   5.796  15.122  2.7373  1.9163 -0.9067
11744TIP3   OH256646   5.761   5.683   6.624 -0.1485  0.4176  0.0951
11744TIP3    H156647   5.677   5.646   6.596  0.1573 -0.0343 -0.2453
11744TIP3    H256648   5.811   5.693   6.543 -0.2070  1.5642  0.1799
11745TIP3   OH256649   3.927   4.852   4.260  0.5311 -0.3034 -0.1143
11745TIP3    H156650   3.984   4.930   4.260  0.0616  0.1399 -2.6784
11745TIP3    H256651   3.861   4.871   4.193 -0.7330 -2.1397  0.5462
11746TIP3   OH256652   2.892   0.643  11.188 -0.3819 -0.0846 -0.2608
11746TIP3    H156653   2.906   0.621  11.096  0.8946 -1.8260  0.2951
11746TIP3    H256654   2.955   0.589  11.236  0.4044  2.2303  1.5263
11747TIP3   OH256655   3.239   3.304  12.028  0.8628  0.6306 -0.4322
11747TIP3    H156656   3.189   3.340  12.102  0.7709 -1.0908  0.3735
11747TIP3    H256657   3.329   3.299  12.060  0.3609 -3.0002  0.7820
11748TIP3   OH256658   3.725   5.039  14.280 -0.2581 -0.2815  0.2770
11748TIP3    H156659   3.713   5.132  14.297  0.4500 -0.2731  0.7392
11748TIP3    H256660   3.817   5.022  14.299 -0.1655 -0.9037 -0.6200
11749TIP3   OH256661   0.747   6.236   4.619  0.6426 -0.2905 -0.1000
11749TIP3    H156662   0.747   6.149   4.580  0.9643 -0.1672 -0.3806
11749TIP3    H256663   0.826   6.238   4.672  1.8386  0.5766 -1.8151
11750TIP3   OH256664   3.783   4.796  13.225 -0.5886 -0.2535 -0.1164
11750TIP3    H156665   3.821   4.798  13.312  0.2322 -1.5932 -0.4272
11750TIP3    H256666   3.723   4.721  13.225 -1.1425  0.1731 -0.4889
11751TIP3   OH256667   4.496   2.509   5.374 -0.1331 -0.6400  0.3000
11751TIP3    H156668   4.581   2.519   5.416  0.6402  2.1563 -1.6966
11751TIP3    H256669   4.436   2.494   5.447  1.4610  1.7470  2.2633
11752TIP3   OH256670   4.531   1.745  10.696  0.0616  0.0179  0.7774
11752TIP3    H156671   4.550   1.836  10.673  1.6678 -0.2733  0.8526
11752TIP3    H256672   4.617   1.703  10.700 -0.6660 -1.5564  0.5316
11753TIP3   OH256673   4.012   1.234  15.046 -0.2448  0.7329 -0.1773
11753TIP3    H156674   3.921   1.259  15.062 -0.5148 -0.8561  0.9567
11753TIP3    H256675   4.050   1.225  15.133  0.5591 -0.1453 -0.6009
11754TIP3   OH256676   2.950   0.072  15.684  0.1892 -0.1199 -0.2981
11754TIP3    H156677   2.988  -0.012  15.710 -1.6236 -0.9841 -0.2357
11754TIP3    H256678   2.995   0.096  15.603  0.2739 -1.5145 -0.6822
11755TIP3   OH256679   0.897   0.970  12.478  0.1777  0.1088  0.0447
11755TIP3    H156680   0.853   1.021  12.410 -0.8499 -3.7924 -2.5126
11755TIP3    H256681   0.828   0.946  12.539 -0.0215 -0.8953 -0.5649
11756TIP3   OH256682   1.530   0.633   1.913 -0.4131 -0.0883 -0.4397
11756TIP3    H156683   1.621   0.645   1.941 -0.5507 -0.2708  0.1018
11756TIP3    H256684   1.522   0.538   1.898 -0.6341 -0.1306 -0.0554
11757TIP3   OH256685   5.294   2.303   0.319 -0.0246 -0.2032 -0.1027
11757TIP3    H156686   5.308   2.218   0.362  2.6240  1.2784  2.3166
11757TIP3    H256687   5.367   2.357   0.348 -0.2368  2.2504 -3.5199
11758TIP3   OH256688   2.016   6.339  12.083  0.2414 -0.5637  0.0557
11758TIP3    H156689   1.938   6.317  12.134  1.3648 -1.9514  1.2626
11758TIP3    H256690   2.044   6.424  12.117  0.4005 -1.0055  1.0458
11759TIP3   OH256691   2.598   5.067  10.259 -0.6460 -0.2013 -0.2610
11759TIP3    H156692   2.645   5.023  10.331  0.1885 -0.9169 -1.2044
11759TIP3    H256693   2.666   5.085  10.195 -1.2171  1.3220 -0.4663
11760TIP3   OH256694   2.740   3.259   0.854 -1.1267 -0.2188 -0.1426
11760TIP3    H156695   2.747   3.258   0.759 -2.7183  0.6451 -0.3133
11760TIP3    H256696   2.692   3.340   0.873 -1.5099 -0.7626  1.3346
11761TIP3   OH256697   3.630   5.943   1.271  0.2816  0.3656 -0.2771
11761TIP3    H156698   3.547   5.908   1.239  0.0117  1.2095 -0.5337
11761TIP3    H256699   3.640   5.906   1.359  1.7222 -3.1304 -1.7357
11762TIP3   OH256700   6.243   2.362  10.998 -0.7106  0.7137  0.0244
11762TIP3    H156701   6.197   2.278  11.004  0.3797  0.1092  0.1655
11762TIP3    H256702   6.266   2.370  10.906  1.4742 -0.4459  0.3946
11763TIP3   OH256703   0.371   3.303  15.234 -0.0568  0.0461 -0.2237
11763TIP3    H156704   0.447   3.245  15.225  0.3628 -0.0027  2.7226
11763TIP3    H256705   0.408   3.391  15.240 -0.4907  0.3590 -1.8350
11764TIP3   OH256706   6.700   1.990   4.282 -0.0895 -0.5079 -0.1201
11764TIP3    H156707   6.701   2.069   4.336  0.5945 -1.2766  1.0332
11764TIP3    H256708   6.616   1.993   4.236  0.2531  1.2667 -0.6955
11765TIP3   OH256709   3.280   3.141   0.729  0.1761  0.3679  0.3544
11765TIP3    H156710   3.310   3.052   0.745  1.5555  0.0688 -3.1605
11765TIP3    H256711   3.184   3.134   0.732  0.2703 -1.0244  1.0182
11766TIP3   OH256712   2.026   3.001   4.813 -0.0180  0.3341 -0.2983
11766TIP3    H156713   1.962   3.040   4.753 -1.2381 -1.3006 -0.1260
11766TIP3    H256714   2.079   2.945   4.758 -1.2568 -1.3148  0.0889
11767TIP3   OH256715   4.818   5.873   1.951 -0.1497  0.1911 -0.1275
11767TIP3    H156716   4.812   5.797   2.009 -2.1460  0.0950 -0.3751
11767TIP3    H256717   4.835   5.947   2.010  1.6048 -0.3843  0.1359
11768TIP3   OH256718   1.432   6.520   2.190  0.1827 -0.3203 -0.4232
11768TIP3    H156719   1.478   6.590   2.143  0.5000  0.6291  1.2186
11768TIP3    H256720   1.351   6.562   2.221  0.8435 -0.3301  1.4442
11769TIP3   OH256721   0.935   3.376   1.218 -0.6455 -0.0141  0.2320
11769TIP3    H156722   0.891   3.460   1.223  0.1398  0.3851  0.6751
11769TIP3    H256723   0.964   3.369   1.127  1.9122  1.6025  0.8338
11770TIP3   OH256724   2.964   2.559  16.589  0.1483 -0.3280  0.1316
11770TIP3    H156725   2.914   2.610  16.526  0.2344 -0.3497  0.0464
11770TIP3    H256726   3.055   2.568  16.560  0.3324  0.6504  0.9336
11771TIP3   OH256727   1.248   0.835   0.337  0.0821  0.3957 -0.1348
11771TIP3    H156728   1.172   0.781   0.320 -0.0592  0.4156  0.4306
11771TIP3    H256729   1.281   0.858   0.250  0.6853 -1.3353 -0.3901
11772TIP3   OH256730   3.259   5.257  17.031 -0.4208  0.1884 -0.5324
11772TIP3    H156731   3.287   5.334  17.080 -1.5364  0.3327 -0.0976
11772TIP3    H256732   3.189   5.219  17.083  0.5829 -1.5641 -0.3486
11773TIP3   OH256733   3.350   2.967  12.986  0.5261 -0.0706 -0.1080
11773TIP3    H156734   3.262   3.000  12.966  1.2414  0.1523 -3.3367
11773TIP3    H256735   3.359   2.888  12.932  2.1951 -0.2688  0.4032
11774TIP3   OH256736   0.385   6.416   4.958 -0.5655  0.6387 -0.0766
11774TIP3    H156737   0.299   6.398   4.996 -1.0413 -0.6750 -1.6467
11774TIP3    H256738   0.426   6.331   4.949 -0.8314  0.7169 -3.1600
11775TIP3   OH256739   2.483   6.246   5.157  0.5470 -0.0293 -0.2597
11775TIP3    H156740   2.435   6.312   5.106  0.1188 -0.0482  0.1127
11775TIP3    H256741   2.575   6.263   5.138  0.3926 -0.2685 -1.3374
11776TIP3   OH256742   1.536   5.130  10.233  0.5448 -0.1423 -0.1006
11776TIP3    H156743   1.625   5.103  10.258  1.6634  1.2000 -2.3227
11776TIP3    H256744   1.548   5.181  10.153 -2.2066  0.5519 -0.1671
11777TIP3   OH256745   1.916   3.905   1.062  0.0686 -0.1271  0.0738
11777TIP3    H156746   1.917   3.996   1.091 -2.3058 -0.2405  0.6801
11777TIP3    H256747   1.840   3.866   1.105  1.3044 -2.5602  0.2376
11778TIP3   OH256748   1.495   1.874  17.030 -0.1899 -0.4607  0.1633
11778TIP3    H156749   1.507   1.819  16.953 -0.3628 -1.8106  1.0819
11778TIP3    H256750   1.582   1.907  17.050  0.0014 -0.8098 -0.0844
11779TIP3   OH256751   5.134   0.578   3.851  0.6819 -0.6543  0.0775
11779TIP3    H156752   5.048   0.597   3.814  1.4306  1.3737 -0.7154
11779TIP3    H256753   5.115   0.541   3.938 -0.9959  2.0427  0.9775
11780TIP3   OH256754   0.842   6.570   0.736 -0.4176  0.1478  0.2245
11780TIP3    H156755   0.793   6.586   0.817  0.0400 -2.3891  1.0919
11780TIP3    H256756   0.835   6.652   0.687 -2.1653  1.1811  2.0569
11781TIP3   OH256757   5.683   5.473  17.183  0.0485 -0.3912  0.3450
11781TIP3    H156758   5.768   5.516  17.182  0.0212 -0.3367 -0.4654
11781TIP3    H256759   5.703   5.380  17.180  0.1038 -0.4425  1.9082
11782TIP3   OH256760   6.610   2.742   6.420  0.3992 -0.3188  0.0251
11782TIP3    H156761   6.626   2.680   6.491  1.3457  0.1353  0.2307
11782TIP3    H256762   6.559   2.812   6.461  1.5466  0.2900  0.4623
11783TIP3   OH256763   4.350   1.637  16.798 -0.1234  0.1253 -0.6172
11783TIP3    H156764   4.279   1.698  16.815  0.7789  0.8308  0.8101
11783TIP3    H256765   4.306   1.555  16.774 -1.3591  1.2874 -2.6733
11784TIP3   OH256766   3.784   6.547   1.953 -0.1424  0.1662 -0.2102
11784TIP3    H156767   3.730   6.622   1.975  0.7720  0.1770  2.3281
11784TIP3    H256768   3.732   6.471   1.981  1.0421  0.1819  2.3824
11785TIP3   OH256769   5.015   6.315  17.199  0.4785  0.5462 -0.0479
11785TIP3    H156770   4.952   6.366  17.251 -0.0557  0.6859 -0.8099
11785TIP3    H256771   5.015   6.229  17.240  0.2450  0.7248  0.3331
11786TIP3   OH256772   0.769   5.185  14.308 -0.6090 -0.1978  0.4815
11786TIP3    H156773   0.747   5.094  14.286  2.8050 -1.1788  0.5219
11786TIP3    H256774   0.820   5.178  14.389 -0.0336  1.7254  0.3323
11787TIP3   OH256775   2.672   0.075  15.706 -0.0230  0.4487 -0.2544
11787TIP3    H156776   2.642  -0.013  15.727 -0.2660  0.7400  0.6733
11787TIP3    H256777   2.768   0.069  15.707 -0.0075 -0.1399 -1.7448
11788TIP3   OH256778   4.493   6.376   4.336  0.1070 -0.0675 -0.6031
11788TIP3    H156779   4.543   6.412   4.262 -0.6344 -0.5752 -1.3705
11788TIP3    H256780   4.547   6.395   4.412  0.2441  1.7025 -1.0986
11789TIP3   OH256781   2.903   4.543  13.606  0.0381 -0.4944  0.2216
11789TIP3    H156782   2.864   4.630  13.600 -0.8831 -0.8032  1.5162
11789TIP3    H256783   2.896   4.507  13.517 -0.5251  0.3466 -0.0799
11790TIP3   OH256784   2.980   4.711   0.603 -0.1981  0.3153 -0.4022
11790TIP3    H156785   2.954   4.622   0.627  0.6648 -0.0391 -0.7212
11790TIP3    H256786   2.900   4.751   0.570 -0.3690 -0.7278 -1.3468
11791TIP3   OH256787   5.102   4.610  16.952 -0.1278  0.0221 -0.2004
11791TIP3    H156788   5.099   4.542  16.884 -1.0926 -2.3956  2.1101
11791TIP3    H256789   5.193   4.611  16.981 -0.3373 -1.0984  0.5124
11792TIP3   OH256790   0.448   5.043   6.522 -0.6072 -0.0327  0.4674
11792TIP3    H156791   0.488   4.995   6.449  0.2876  0.8479  0.3612
11792TIP3    H256792   0.360   5.065   6.491  0.4743  2.2461 -1.2619
11793TIP3   OH256793   3.813   1.031   4.211 -0.7927  0.0834  0.3386
11793TIP3    H156794   3.899   1.073   4.214 -0.3449 -0.8592  1.3980
11793TIP3    H256795   3.813   0.971   4.286 -1.9828 -0.6835 -0.2480
11794TIP3   OH256796   2.100   6.121   3.115 -0.1872 -0.2560 -0.1897
11794TIP3    H156797   2.048   6.110   3.194 -0.4840  2.2369  0.0413
11794TIP3    H256798   2.188   6.144   3.147  0.0524 -0.6001 -0.5888
11795TIP3   OH256799   4.033   1.161   1.783  0.3428  0.4502  0.3408
11795TIP3    H156800   3.953   1.109   1.793 -0.1178  0.7537 -1.4308
11795TIP3    H256801   4.014   1.242   1.829 -0.6254  0.7428 -0.5202
11796TIP3   OH256802   4.306   2.204  11.794 -0.2013  0.0054 -0.4827
11796TIP3    H156803   4.366   2.129  11.786 -2.0041 -1.4591 -0.9284
11796TIP3    H256804   4.219   2.167  11.781 -1.0742  2.4929 -2.7052
11797TIP3   OH256805   4.883   1.344  15.350 -0.7457  0.1805 -0.3391
11797TIP3    H156806   4.919   1.326  15.437 -0.3730  1.2910 -0.2583
11797TIP3    H256807   4.790   1.358  15.365 -0.7201  0.1584 -0.1568
11798TIP3   OH256808   1.387   2.802  17.037 -0.3039 -0.0630 -0.7913
11798TIP3    H156809   1.474   2.840  17.048 -0.8366  1.3947 -1.3699
11798TIP3    H256810   1.355   2.837  16.954 -2.7746  2.2320  0.9514
11799TIP3   OH256811   0.858   0.329  16.180  0.5248 -0.1235 -0.3126
11799TIP3    H156812   0.805   0.354  16.105  0.6004  0.3446 -0.2170
11799TIP3    H256813   0.852   0.234  16.184 -0.0251 -0.0997 -0.5094
11800TIP3   OH256814   5.210   5.673   0.590 -0.2988  0.6346 -0.0768
11800TIP3    H156815   5.289   5.726   0.600  0.4984 -0.6485  0.6262
11800TIP3    H256816   5.190   5.677   0.496  0.5250  1.0782 -0.2382
11801TIP3   OH256817   6.439   2.642   1.552  0.5103 -0.0907 -0.0189
11801TIP3    H156818   6.481   2.707   1.496  1.2551 -1.3439 -0.9471
11801TIP3    H256819   6.509   2.609   1.608  0.4535 -1.0616 -0.4939
11802TIP3   OH256820   4.276   5.027  11.639  0.6532  0.1920 -0.1646
11802TIP3    H156821   4.254   4.934  11.640 -0.6245  0.4799  1.0858
11802TIP3    H256822   4.240   5.060  11.557  1.0598 -0.3937 -0.5835
11803TIP3   OH256823   6.733   2.059   5.285 -0.2164  0.0242 -0.4491
11803TIP3    H156824   6.687   2.121   5.342  1.2327  1.3676 -0.6580
11803TIP3    H256825   6.703   2.081   5.196 -0.6387 -0.4153 -0.4148
11804TIP3   OH256826   2.353   3.904   3.438  0.3250 -0.4466  0.5199
11804TIP3    H156827   2.280   3.865   3.486 -1.4151  0.2642 -1.3669
11804TIP3    H256828   2.379   3.837   3.375  0.7071 -0.3785  0.6030
11805TIP3   OH256829   1.172   1.637  12.963 -0.3705 -0.1455 -0.2391
11805TIP3    H156830   1.147   1.643  12.871 -3.2507 -3.3920  0.1613
11805TIP3    H256831   1.223   1.556  12.969 -0.5199 -0.1568  1.1076
11806TIP3   OH256832   4.235   5.703  16.590 -0.1473  0.6037  0.2795
11806TIP3    H156833   4.192   5.788  16.579  1.8363  1.9478  2.2308
11806TIP3    H256834   4.286   5.692  16.510 -0.7271  1.0550 -0.1644
11807TIP3   OH256835   3.169   3.413  13.895  0.2150 -0.1530  0.0006
11807TIP3    H156836   3.198   3.499  13.927 -0.6050 -0.1607  0.8110
11807TIP3    H256837   3.179   3.355  13.971 -0.9477 -0.3646  0.0064
11808TIP3   OH256838   3.013   3.045  14.762  0.1991  0.2742 -0.3578
11808TIP3    H156839   3.023   3.007  14.675 -0.2232  0.0324 -0.3029
11808TIP3    H256840   2.923   3.024  14.787 -0.2019  1.6880 -0.5211
11809TIP3   OH256841   2.438   4.978  13.380 -0.1453 -0.1766 -0.4448
11809TIP3    H156842   2.385   4.949  13.306 -0.3199  1.4437 -0.9962
11809TIP3    H256843   2.433   4.907  13.443 -3.4175  0.0734 -0.2590
11810TIP3   OH256844   1.189   2.688   0.556 -0.3274  1.1824 -0.6653
11810TIP3    H156845   1.204   2.658   0.466  0.4198 -0.8258  0.0839
11810TIP3    H256846   1.095   2.702   0.562 -0.9726 -2.2193 -0.7962
11811TIP3   OH256847   2.899   5.928  16.314  0.6761 -0.7969 -0.5489
11811TIP3    H156848   2.908   5.863  16.383 -1.2971 -1.7273 -1.0647
11811TIP3    H256849   2.929   6.010  16.353 -0.0562 -1.3607  1.3085
11812TIP3   OH256850   4.370   4.712  12.077 -0.1666  0.2228 -0.0013
11812TIP3    H156851   4.435   4.750  12.018 -1.7555  3.1319 -0.0692
11812TIP3    H256852   4.295   4.694  12.020  0.4647 -3.2242  0.0460
11813TIP3   OH256853   0.337   1.115   2.431 -0.1809  0.9174 -0.1372
11813TIP3    H156854   0.370   1.204   2.443  1.5025  0.4825 -1.1896
11813TIP3    H256855   0.286   1.097   2.510  0.1894  2.4906  0.4895
11814TIP3   OH256856   3.142   5.255  15.216 -0.2800 -0.3255  1.2687
11814TIP3    H156857   3.210   5.317  15.243 -0.1214  0.3349 -0.4655
11814TIP3    H256858   3.078   5.309  15.169  0.8836 -1.6286 -2.1243
11815TIP3   OH256859   4.032   0.401  12.224  0.0476  0.3958  0.0223
11815TIP3    H156860   3.944   0.407  12.261  0.6719  0.1644  1.6668
11815TIP3    H256861   4.031   0.322  12.171 -0.1385 -0.9134  1.8782
11816TIP3   OH256862   5.619   3.502   1.885  0.6387 -0.4278  0.0675
11816TIP3    H156863   5.651   3.593   1.883 -0.8530  0.1773  1.3826
11816TIP3    H256864   5.595   3.488   1.976  1.2039 -2.3126 -0.0429
11817TIP3   OH256865   1.902   5.372  16.226 -0.2788  0.0762 -0.0738
11817TIP3    H156866   1.974   5.435  16.229  0.0739 -0.3546  1.4506
11817TIP3    H256867   1.939   5.292  16.263 -0.6861 -1.0925 -2.0455
11818TIP3   OH256868   6.093   2.639  13.859  0.3417 -0.9859 -0.0676
11818TIP3    H156869   6.054   2.610  13.942  0.2795  1.9522  1.0414
11818TIP3    H256870   6.040   2.714  13.832  1.0137 -1.2256 -2.2573
11819TIP3   OH256871   0.556   1.231  14.453 -0.2645 -0.1123 -0.0427
11819TIP3    H156872   0.615   1.166  14.489  0.5208  0.1998 -0.7307
11819TIP3    H256873   0.494   1.181  14.399 -0.0004 -0.3421 -0.1321
11820TIP3   OH256874   4.717   5.866  14.566 -0.4857  0.0220  0.0834
11820TIP3    H156875   4.711   5.955  14.602 -0.8152  1.1169 -2.4337
11820TIP3    H256876   4.768   5.817  14.630  1.2754  2.5132  0.7366
11821TIP3   OH256877   2.434   5.314  11.421 -0.2502  0.3414 -0.2831
11821TIP3    H156878   2.400   5.355  11.501 -0.6190 -1.2125  0.3927
11821TIP3    H256879   2.377   5.346  11.352 -2.4978 -1.3530  0.6710
11822TIP3   OH256880   3.891   6.094  10.633 -0.9257  0.7824  0.3609
11822TIP3    H156881   3.818   6.070  10.575 -0.4056 -0.9093  0.3570
11822TIP3    H256882   3.855   6.161  10.690 -2.5363 -0.0943  0.4364
11823TIP3   OH256883   4.146   4.513   0.960  0.5918  0.2460 -0.4606
11823TIP3    H156884   4.089   4.444   0.992 -0.0914  0.6565 -0.7694
11823TIP3    H256885   4.229   4.500   1.006  0.7260 -1.2282 -1.0846
11824TIP3   OH256886   2.493   4.465  14.018 -0.1932 -0.2260  0.0086
11824TIP3    H156887   2.413   4.502  13.983 -0.0358  0.6312  0.5248
11824TIP3    H256888   2.471   4.374  14.037 -0.2734 -0.7401 -2.2872
11825TIP3   OH256889   5.466   5.696   4.154  0.2171 -0.4933  0.0286
11825TIP3    H156890   5.387   5.750   4.152 -1.0368 -2.2402 -1.4433
11825TIP3    H256891   5.500   5.706   4.243 -2.2024 -0.3962  1.0148
11826TIP3   OH256892   2.643   4.868   1.877 -0.1664  0.6108 -0.3106
11826TIP3    H156893   2.617   4.952   1.841 -1.4773  0.4237  0.1256
11826TIP3    H256894   2.569   4.810   1.857 -0.5450  0.2779  1.8030
11827TIP3   OH256895   3.504   0.870  11.690 -0.2551 -0.3612 -0.0771
11827TIP3    H156896   3.576   0.932  11.677 -0.4974 -0.3456 -1.5197
11827TIP3    H256897   3.428   0.913  11.652 -0.8230 -0.7847  0.5644
11828TIP3   OH256898   4.941   1.450  12.208 -0.3045 -0.1865 -0.8404
11828TIP3    H156899   5.008   1.388  12.178 -0.5623  0.0371 -1.9346
11828TIP3    H256900   4.874   1.448  12.139 -1.3249 -0.2324  0.1181
11829TIP3   OH256901   1.477   5.256  17.063 -0.1889 -0.2615  0.7807
11829TIP3    H156902   1.433   5.341  17.059  1.9249  0.8869  0.4991
11829TIP3    H256903   1.542   5.259  16.993  0.3013 -1.9003  1.1192
11830TIP3   OH256904   1.497   2.346  14.087  0.0371  0.8599 -0.6342
11830TIP3    H156905   1.495   2.441  14.097  0.6917  0.9138 -0.9265
11830TIP3    H256906   1.430   2.314  14.147 -1.1889  1.5839 -1.5644
11831TIP3   OH256907   6.137   4.891   4.381  0.4889  0.6653  0.2843
11831TIP3    H156908   6.096   4.863   4.300  1.1110  0.5974 -0.0113
11831TIP3    H256909   6.064   4.909   4.440  0.0614 -0.4957  0.1227
11832TIP3   OH256910   1.568   4.978   4.941 -0.1212  0.0358  0.8090
11832TIP3    H156911   1.573   5.002   5.034 -0.8352  2.8634  0.2333
11832TIP3    H256912   1.652   5.007   4.905 -0.4600  0.4207  0.3172
11833TIP3   OH256913   6.493   1.281   0.076  0.2032 -0.1288  0.4176
11833TIP3    H156914   6.510   1.187   0.082 -0.6162 -0.5744 -2.6444
11833TIP3    H256915   6.578   1.322   0.092  0.6469 -1.3644  1.3991
11834TIP3   OH256916   4.187   5.393  14.560 -0.3301  0.2014 -0.1168
11834TIP3    H156917   4.196   5.488  14.557 -0.7128  0.2515  0.2410
11834TIP3    H256918   4.178   5.372  14.653  0.3621 -0.2459 -0.1420
11835TIP3   OH256919   6.440   0.359   4.126  0.4037  0.1663 -0.3145
11835TIP3    H156920   6.365   0.342   4.184  0.3993  1.9481  0.2670
11835TIP3    H256921   6.514   0.365   4.186 -0.0683  5.5168  0.1922
11836TIP3   OH256922   1.806   3.347  12.506 -0.3870  0.8031  0.8227
11836TIP3    H156923   1.831   3.438  12.489  0.2622  0.6789  1.0679
11836TIP3    H256924   1.739   3.328  12.442  0.3577  1.0725 -0.0596
11837TIP3   OH256925   6.440   4.309   1.765 -0.2885 -0.0471  0.1938
11837TIP3    H156926   6.439   4.398   1.730  1.3785 -0.3697 -0.7575
11837TIP3    H256927   6.348   4.289   1.782 -1.0668  0.6006 -2.8038
11838TIP3   OH256928   2.518   3.843   2.638 -0.9175  0.4671 -0.2842
11838TIP3    H156929   2.499   3.936   2.645  0.0155  0.7090 -0.8194
11838TIP3    H256930   2.472   3.815   2.559 -1.3535  0.4313 -0.0181
11839TIP3   OH256931   5.380   2.866   4.380  0.3163  0.0898 -0.1530
11839TIP3    H156932   5.385   2.789   4.324  2.8130  0.0559  0.0400
11839TIP3    H256933   5.301   2.852   4.432 -0.2789 -1.4315 -1.3750
11840TIP3   OH256934   0.124   5.616  11.684  0.5164 -0.0171 -0.1694
11840TIP3    H156935   0.193   5.560  11.648  0.8113  1.2988 -1.7693
11840TIP3    H256936   0.084   5.657  11.608 -1.8974 -0.5325  0.7359
11841TIP3   OH256937   5.065   6.479   2.439  0.7807  0.6901  0.5959
11841TIP3    H156938   4.971   6.466   2.422  0.7446 -1.4211  2.0616
11841TIP3    H256939   5.102   6.391   2.434  2.8829  1.5782 -0.7684
11842TIP3   OH256940   4.042   2.412   0.403 -0.1540  0.0640 -0.0592
11842TIP3    H156941   4.015   2.347   0.337  0.6243  0.2121 -0.5335
11842TIP3    H256942   4.124   2.447   0.370 -0.4953  1.2139  0.2499
11843TIP3   OH256943   5.710   2.850  11.802  0.1971 -0.7490 -0.0312
11843TIP3    H156944   5.774   2.845  11.873  0.3684  0.3933 -0.0962
11843TIP3    H256945   5.749   2.798  11.731  2.1878  1.7595 -0.9217
11844TIP3   OH256946   0.193   1.718  15.300  0.6054 -0.0063  0.3319
11844TIP3    H156947   0.115   1.709  15.355 -1.9970  1.1102 -2.8439
11844TIP3    H256948   0.217   1.810  15.307 -0.7993  0.5627 -1.5267
11845TIP3   OH256949   5.377   6.044  17.103 -0.0781  0.2416  0.0567
11845TIP3    H156950   5.418   6.020  17.020  0.3177 -1.1385  0.6329
11845TIP3    H256951   5.384   6.140  17.106  1.9199  0.1643 -0.4884
11846TIP3   OH256952   0.261   0.519   4.365 -0.3397  0.5491  0.0679
11846TIP3    H156953   0.296   0.450   4.309 -0.0692  0.5862  0.1922
11846TIP3    H256954   0.213   0.471   4.433  1.4895  0.3702  1.3075
11847TIP3   OH256955   5.369   3.785   0.158  0.2404 -0.0727  0.2113
11847TIP3    H156956   5.374   3.855   0.093 -1.4384  0.6942  0.8595
11847TIP3    H256957   5.455   3.742   0.153 -0.2432 -0.9712 -3.4735
11848TIP3   OH256958   2.741   3.885  12.105  0.3826 -0.3749  0.3976
11848TIP3    H156959   2.660   3.898  12.055  0.5129 -1.5969 -0.1408
11848TIP3    H256960   2.711   3.850  12.189  0.4365 -2.5151 -0.4328
11849TIP3   OH256961   6.051   3.956  13.514  0.0493  0.2996 -0.1985
11849TIP3    H156962   6.006   3.883  13.473 -0.0781 -0.5860  1.4098
11849TIP3    H256963   6.017   3.958  13.604 -0.6702  2.9619 -0.4231
11850TIP3   OH256964   4.388   5.271   3.796 -0.2738 -0.1544 -0.2782
11850TIP3    H156965   4.391   5.358   3.835  2.4195  0.6135 -1.9427
11850TIP3    H256966   4.409   5.286   3.704  1.7153 -2.6712 -0.3407
11851TIP3   OH256967   3.599   0.076   1.396 -0.0758 -0.3204 -0.6634
11851TIP3    H156968   3.524   0.100   1.450  1.2359  0.7051  0.7808
11851TIP3    H256969   3.636   0.159   1.366  1.3872 -0.7141 -0.0451
11852TIP3   OH256970   4.224   5.722   4.807  0.1453 -0.4429 -0.2324
11852TIP3    H156971   4.183   5.681   4.884 -0.1355 -0.9903 -0.6648
11852TIP3    H256972   4.207   5.661   4.736  0.6571 -0.0782 -0.6755
11853TIP3   OH256973   4.830   5.475  13.095  0.5853 -0.5222 -0.0617
11853TIP3    H156974   4.916   5.516  13.109 -0.0020  0.8781 -0.3944
11853TIP3    H256975   4.844   5.414  13.023  0.9587  0.9006 -1.2436
11854TIP3   OH256976   4.846   5.045   2.659  0.5577  0.8794  0.3158
11854TIP3    H156977   4.859   4.952   2.640 -0.1672  0.8329 -0.0077
11854TIP3    H256978   4.791   5.077   2.587 -0.3474  1.2363  1.1335
11855TIP3   OH256979   2.486   1.509   5.714  0.1873 -0.2981  0.1195
11855TIP3    H156980   2.496   1.601   5.740  1.6304 -0.8078  1.5160
11855TIP3    H256981   2.456   1.465   5.794  2.3988 -1.5045  0.3706
11856TIP3   OH256982   4.439   4.975  13.578 -0.3115 -0.3955  0.3067
11856TIP3    H156983   4.426   4.947  13.668  0.1627  0.2615  0.5956
11856TIP3    H256984   4.374   4.927  13.527  0.0007 -1.4491  0.8679
11857TIP3   OH256985   3.871   1.519  16.020 -0.0200 -0.1285  0.2669
11857TIP3    H156986   3.859   1.614  16.025 -0.0351 -0.0024 -1.4501
11857TIP3    H256987   3.787   1.483  16.046 -0.1363  0.3326  0.5570
11858TIP3   OH256988   0.120   3.791  13.333  0.3508 -0.2398  0.5374
11858TIP3    H156989   0.042   3.822  13.287  1.1843 -0.8024 -1.3347
11858TIP3    H256990   0.127   3.699  13.308  3.8689  0.7162 -2.8005
11859TIP3   OH256991   2.177   2.299  14.601 -0.1473 -0.8802  0.0089
11859TIP3    H156992   2.268   2.295  14.572 -0.1093  1.4526 -0.4080
11859TIP3    H256993   2.174   2.244  14.679  1.8351 -0.3443  0.5163
11860TIP3   OH256994   3.272   0.941  12.732  0.3957 -0.2742 -0.0191
11860TIP3    H156995   3.203   0.998  12.765  1.0436  0.8520 -0.5366
11860TIP3    H256996   3.231   0.892  12.661  0.0920  0.2886 -0.2358
11861TIP3   OH256997   5.924   1.709   2.265 -0.3341 -0.2461 -0.4688
11861TIP3    H156998   5.913   1.790   2.314  0.4077 -0.4776  0.1023
11861TIP3    H256999   5.980   1.655   2.321 -0.2072 -0.8588 -1.1768
11862TIP3   OH257000   4.842   3.810  12.996 -0.7040 -0.2972  0.3235
11862TIP3    H157001   4.805   3.761  12.922 -1.6975 -0.3854  0.8601
11862TIP3    H257002   4.936   3.806  12.982 -0.8191 -1.3188 -0.3126
11863TIP3   OH257003   3.024   5.921   4.141 -0.3959  0.0487 -0.0140
11863TIP3    H157004   2.976   5.938   4.222 -0.2273 -1.2367  0.3811
11863TIP3    H257005   2.969   5.958   4.073 -0.2956  1.6126  0.7064
11864TIP3   OH257006   1.359   3.109   2.831  0.1320 -0.5742  0.2070
11864TIP3    H157007   1.404   3.048   2.772 -1.2342 -0.6641 -0.7724
11864TIP3    H257008   1.294   3.152   2.776  1.4630  2.2729  0.7102
11865TIP3   OH257009   2.042   6.188  11.469  0.1765 -0.3420  0.1535
11865TIP3    H157010   2.044   6.266  11.525 -0.0999 -1.5724  1.9461
11865TIP3    H257011   1.988   6.125  11.517  0.8462 -1.8310 -0.9758
11866TIP3   OH257012   3.200   5.940  15.424 -0.0036 -0.3139  0.3427
11866TIP3    H157013   3.265   5.987  15.476 -0.4639 -0.4837  1.0768
11866TIP3    H257014   3.252   5.880  15.370  0.4257 -0.9068  1.3885
11867TIP3   OH257015   1.070   5.438  16.379 -0.1955  0.0661 -0.3300
11867TIP3    H157016   1.146   5.380  16.382 -0.4102 -0.1651  1.1189
11867TIP3    H257017   1.020   5.417  16.457 -1.0723  1.1486 -0.5721
11868TIP3   OH257018   6.633   1.857   2.861  0.1118 -0.1108 -0.4352
11868TIP3    H157019   6.624   1.878   2.954  0.3638 -0.9978 -0.1993
11868TIP3    H257020   6.644   1.942   2.818  0.7616  0.2608  0.4292
11869TIP3   OH257021   5.654   0.378  15.470 -0.6998 -0.3542  0.9176
11869TIP3    H157022   5.702   0.451  15.507  0.4951 -1.3366  1.3852
11869TIP3    H257023   5.567   0.413  15.450 -0.3838  0.9839  1.7955
11870TIP3   OH257024   0.017   1.637   4.853  0.3598 -0.0837  0.0523
11870TIP3    H157025   0.052   1.705   4.911  3.1835 -0.3767 -1.1702
11870TIP3    H257026  -0.077   1.656   4.848  1.1544  4.7348 -1.4713
11871TIP3   OH257027   5.979   3.662  15.740  0.3971 -0.3793  0.0804
11871TIP3    H157028   5.993   3.660  15.835  0.2728 -2.6328  0.1178
11871TIP3    H257029   6.063   3.633  15.704  0.1291 -0.5007 -0.4483
11872TIP3   OH257030   0.531   4.580   5.783  0.4273  0.2321 -0.1234
11872TIP3    H157031   0.465   4.647   5.764 -0.7643 -0.1398  2.2678
11872TIP3    H257032   0.570   4.608   5.865 -1.1945 -2.6648  1.8088
11873TIP3   OH257033   5.064   5.165  12.836 -0.3896  0.1271 -0.1723
11873TIP3    H157034   5.053   5.070  12.834  1.5794 -0.1503 -0.0322
11873TIP3    H257035   5.063   5.187  12.929 -0.5258  0.1880 -0.1888
11874TIP3   OH257036   2.055   1.981  16.027 -0.1754  0.7478 -0.6518
11874TIP3    H157037   2.023   1.900  15.987 -0.5477 -0.2980  1.5991
11874TIP3    H257038   2.142   1.960  16.059  0.4990  1.8488 -1.6567
11875TIP3   OH257039   5.751   0.861   3.117  0.0178 -0.2568  0.1514
11875TIP3    H157040   5.788   0.932   3.064 -0.7498 -0.9539 -1.3714
11875TIP3    H257041   5.665   0.894   3.144 -0.7461 -0.9260 -1.3524
11876TIP3   OH257042   2.171   5.557   0.061 -0.1614  0.2326 -0.1688
11876TIP3    H157043   2.134   5.513  -0.015  1.3184 -0.4250 -0.5318
11876TIP3    H257044   2.176   5.649   0.035 -0.0399  0.0744 -0.7201
11877TIP3   OH257045   6.466   6.460   5.240 -0.0207  0.0084 -0.6180
11877TIP3    H157046   6.372   6.454   5.260  0.3819 -0.8864  1.2920
11877TIP3    H257047   6.479   6.401   5.166 -0.9755  0.2054 -0.9566
11878TIP3   OH257048   2.080   3.880   4.723 -0.0826  0.0876 -0.2501
11878TIP3    H157049   2.044   3.825   4.793 -1.1901 -0.5771 -1.3063
11878TIP3    H257050   2.063   3.831   4.643  1.9976  0.3973 -0.9270
11879TIP3   OH257051   6.160   0.433  15.991 -0.1713  0.4179 -0.5014
11879TIP3    H157052   6.206   0.396  16.066  1.3447  2.3288 -0.4000
11879TIP3    H257053   6.104   0.362  15.960 -0.0987 -0.7500  1.8035
11880TIP3   OH257054   5.583   5.278   2.495 -0.1773 -0.2275 -0.1286
11880TIP3    H157055   5.575   5.329   2.415  1.1874  0.9985  0.4818
11880TIP3    H257056   5.607   5.190   2.465 -2.2885 -0.5126 -1.1695
11881TIP3   OH257057   2.878   6.659  11.718  0.1232  0.5975 -0.6785
11881TIP3    H157058   2.919   6.743  11.738  1.5093 -0.3035  0.5149
11881TIP3    H257059   2.814   6.647  11.788 -0.4037  0.8509 -1.1094
11882TIP3   OH257060   4.455   1.868  11.232  0.1070  0.1008 -0.7920
11882TIP3    H157061   4.491   1.866  11.143  0.6152  2.0483 -0.6789
11882TIP3    H257062   4.381   1.929  11.226 -0.2485 -0.2422  0.0023
11883TIP3   OH257063   4.661   1.455  14.473 -0.5648 -0.0341 -0.9019
11883TIP3    H157064   4.578   1.452  14.519  0.2173 -2.4668  0.4862
11883TIP3    H257065   4.638   1.440  14.381 -1.7218  0.1318 -0.6507
11884TIP3   OH257066   4.326   3.086   4.314 -0.4508 -0.0481 -0.2297
11884TIP3    H157067   4.398   3.070   4.252  1.3110 -1.8643  2.0965
11884TIP3    H257068   4.277   3.003   4.315 -1.6127  0.6082 -0.5313
11885TIP3   OH257069   4.997   3.538   4.281  0.5377  0.3066  0.4896
11885TIP3    H157070   5.026   3.449   4.261  0.6440  0.3147  0.6080
11885TIP3    H257071   5.025   3.552   4.372 -0.4185  0.0668  0.8315
11886TIP3   OH257072   4.261   6.070   1.025  0.0431 -0.2287  0.3459
11886TIP3    H157073   4.296   6.156   1.047 -0.4248  0.0007  0.2065
11886TIP3    H257074   4.167   6.084   1.014  0.2909 -0.1614 -2.4535
11887TIP3   OH257075   1.538   0.950   2.149 -0.3958  0.5100  0.3104
11887TIP3    H157076   1.556   0.955   2.055 -1.1342  1.7640  0.2287
11887TIP3    H257077   1.587   0.873   2.178  2.4025  1.8393 -0.5242
11888TIP3   OH257078   4.310   1.644  13.662 -0.3483 -0.8892 -0.0833
11888TIP3    H157079   4.291   1.645  13.569 -1.8188 -0.2127  0.1943
11888TIP3    H257080   4.272   1.562  13.694 -0.2154 -0.9245 -0.0170
11889TIP3   OH257081   6.343   1.245   5.668  0.0410  0.3945 -0.2016
11889TIP3    H157082   6.367   1.326   5.623  0.9763  0.7796  0.9617
11889TIP3    H257083   6.322   1.272   5.757 -1.8484 -0.3561 -0.3800
11890TIP3   OH257084   0.495   2.344  12.548  0.4040  0.5031  0.5785
11890TIP3    H157085   0.481   2.404  12.621  1.6135  0.1088  1.1728
11890TIP3    H257086   0.584   2.362  12.519 -0.3418  1.2624 -1.4132
11891TIP3   OH257087   6.125   2.851  13.492  0.3046  0.1041  0.8736
11891TIP3    H157088   6.151   2.854  13.585 -0.1879  0.6952  1.0002
11891TIP3    H257089   6.057   2.918  13.485 -0.2243 -0.4966  0.2537
11892TIP3   OH257090   0.044   6.577  16.942  0.2359 -0.2102 -0.3175
11892TIP3    H157091   0.013   6.507  16.999  2.3675 -1.0219 -0.0494
11892TIP3    H257092   0.140   6.569  16.944  0.4910  1.8017 -1.4432
11893TIP3   OH257093   3.074   2.580  12.600  0.7409  0.8538  0.1243
11893TIP3    H157094   2.999   2.624  12.640 -0.1096  0.5964 -1.0980
11893TIP3    H257095   3.106   2.642  12.535  0.8832  0.5247 -0.1225
11894TIP3   OH257096   1.380   4.801   5.703  0.3431 -0.5287 -0.2058
11894TIP3    H157097   1.442   4.729   5.716  0.2296 -1.2631 -3.0788
11894TIP3    H257098   1.386   4.822   5.610 -1.4835  1.5001  0.0387
11895TIP3   OH257099   3.618   2.390  15.863 -0.0940  0.0298  0.2351
11895TIP3    H157100   3.543   2.415  15.810  0.1919 -0.6726 -0.5335
11895TIP3    H257101   3.678   2.464  15.857 -0.6941  0.5699  0.8108
11896TIP3   OH257102   6.647   4.034   0.155 -0.3065  0.1931  0.1050
11896TIP3    H157103   6.671   4.126   0.168 -1.0642  0.4196 -0.0904
11896TIP3    H257104   6.721   3.997   0.106  0.6348  0.3523  1.3576
11897TIP3   OH257105   5.985   1.211   5.079 -0.1638 -0.3399  0.4210
11897TIP3    H157106   6.037   1.222   5.000 -0.6793  0.7915  0.2263
11897TIP3    H257107   6.039   1.247   5.149  0.1915 -1.1214  0.5603
11898TIP3   OH257108   5.649   3.804   1.900  0.0442  0.5557 -0.2448
11898TIP3    H157109   5.614   3.882   1.944  1.1158  0.9572 -0.0740
11898TIP3    H257110   5.619   3.811   1.810 -1.0091  0.4486  0.0871
11899TIP3   OH257111   3.961   6.234   1.344 -0.2622  0.2517  0.2204
11899TIP3    H157112   4.026   6.298   1.374 -0.3432 -0.5607  2.2622
11899TIP3    H257113   3.896   6.287   1.298  0.4695  1.4313  0.4853
11900TIP3   OH257114   1.810   6.750  16.915 -0.4914  0.2508  0.3761
11900TIP3    H157115   1.899   6.716  16.905 -1.0641 -1.3668  0.3641
11900TIP3    H257116   1.820   6.826  16.972  0.7457 -0.7476  1.5672
11901TIP3   OH257117   5.310   4.222  14.717  0.0452 -0.1321  0.1881
11901TIP3    H157118   5.237   4.198  14.661  0.3629 -1.0546  0.1531
11901TIP3    H257119   5.381   4.244  14.656 -0.3510  1.2824  0.2152
11902TIP3   OH257120   0.998   6.608  16.739  0.0012 -0.1080 -0.2346
11902TIP3    H157121   0.953   6.626  16.822 -1.4914 -0.3286 -0.9703
11902TIP3    H257122   1.087   6.586  16.765 -0.3526  0.1477  1.2936
11903TIP3   OH257123   3.971   4.239   2.814 -0.0968 -0.0708 -0.3313
11903TIP3    H157124   3.975   4.332   2.835 -1.4297  0.2105 -1.1830
11903TIP3    H257125   3.880   4.215   2.830  0.7771 -1.9671  2.6254
11904TIP3   OH257126   5.908   6.222  15.201 -0.7900  0.4425  0.4152
11904TIP3    H157127   5.823   6.201  15.161 -1.6669  0.2116  2.3191
11904TIP3    H257128   5.888   6.240  15.293  1.1560  0.9964  0.7727
11905TIP3   OH257129   1.828   3.608   4.248 -0.0233 -0.1398 -0.1584
11905TIP3    H157130   1.762   3.665   4.287  1.7291  1.9887 -0.1112
11905TIP3    H257131   1.865   3.560   4.323 -0.4099 -0.1502  0.0299
11906TIP3   OH257132   2.132   4.232  13.118  0.2524  0.1949  0.4085
11906TIP3    H157133   2.136   4.294  13.045  2.3545  1.0424  1.1489
11906TIP3    H257134   2.046   4.191  13.110  0.1506  0.6938 -2.1629
11907TIP3   OH257135   2.500   1.430  12.806  0.8440  0.5009  0.1718
11907TIP3    H157136   2.442   1.360  12.835 -2.7296  2.8767 -0.6036
11907TIP3    H257137   2.562   1.386  12.747 -0.2084 -2.2084  0.9147
11908TIP3   OH257138   0.615   3.161  14.873 -0.1097 -0.1337 -0.0890
11908TIP3    H157139   0.591   3.251  14.848 -0.2334  0.0032  0.5021
11908TIP3    H257140   0.601   3.158  14.968  0.1310 -0.7073 -0.0675
11909TIP3   OH257141   4.391   3.290   4.483  0.3678  0.6134 -0.5592
11909TIP3    H157142   4.376   3.218   4.421  1.3987 -0.2255  0.1224
11909TIP3    H257143   4.455   3.255   4.544  0.6689  2.0359 -0.0323
11910TIP3   OH257144   0.637   6.785  12.557  0.7643  0.2264 -0.1077
11910TIP3    H157145   0.647   6.841  12.634  0.3682 -0.9019  0.7936
11910TIP3    H257146   0.558   6.818  12.513  0.1557 -0.0234  0.7749
11911TIP3   OH257147   3.096   5.404   0.487  0.2522  0.1449  0.0157
11911TIP3    H157148   3.074   5.409   0.580  1.8662  2.1810  0.3586
11911TIP3    H257149   3.053   5.481   0.448  1.1618  0.3921 -0.5385
11912TIP3   OH257150   5.704   4.598  10.975  0.2922  0.3375 -0.4658
11912TIP3    H157151   5.618   4.556  10.977  1.4488 -2.2712 -0.5324
11912TIP3    H257152   5.697   4.664  10.906 -1.6593  0.2573 -0.3923
11913TIP3   OH257153   6.688   5.824  13.471 -0.3857  0.3282 -0.1853
11913TIP3    H157154   6.636   5.884  13.416 -1.1023  0.3579  0.5080
11913TIP3    H257155   6.663   5.847  13.561  0.8912  0.3856  0.1690
11914TIP3   OH257156   0.516   6.445   3.927 -0.2473 -0.5323  0.4188
11914TIP3    H157157   0.549   6.497   4.000  0.6230 -0.3240 -0.1048
11914TIP3    H257158   0.477   6.368   3.967 -0.5035 -0.0411  1.1422
11915TIP3   OH257159   0.683   4.975   4.196 -0.3624 -0.2521 -0.5774
11915TIP3    H157160   0.641   5.033   4.132 -1.9381 -0.8146 -0.1208
11915TIP3    H257161   0.761   4.943   4.152  0.0030  1.4149 -1.2146
11916TIP3   OH257162   2.712   4.070   1.909 -0.1531  0.2891 -0.2512
11916TIP3    H157163   2.788   4.116   1.944 -1.2134  0.6429  1.6920
11916TIP3    H257164   2.721   3.980   1.941  0.0011  0.0292 -0.9799
11917TIP3   OH257165   4.778   6.173   2.886 -0.2470  0.2024  0.6833
11917TIP3    H157166   4.727   6.092   2.888 -0.8775  0.5070 -1.1868
11917TIP3    H257167   4.724   6.236   2.934 -2.3422  0.8223 -2.1693
11918TIP3   OH257168   1.775   5.684  15.451 -0.3461  0.0457  0.3040
11918TIP3    H157169   1.747   5.601  15.412 -0.0884 -0.0995  0.4271
11918TIP3    H257170   1.854   5.708  15.402  0.6278 -0.7039  1.4631
11919TIP3   OH257171   1.006   1.915  14.811  0.2709 -0.0852  0.6811
11919TIP3    H157172   1.034   2.003  14.833  0.2550  0.0045  0.3454
11919TIP3    H257173   1.059   1.890  14.735 -0.9070  0.2900 -0.3047
11920TIP3   OH257174   1.151   4.524   2.860  0.0412 -0.0060  0.2546
11920TIP3    H157175   1.154   4.434   2.828  0.2013 -0.3734  1.2586
11920TIP3    H257176   1.074   4.562   2.818 -0.9928 -1.1157  1.0597
11921TIP3   OH257177   2.943   1.384  11.377 -0.3558  0.4347  0.7843
11921TIP3    H157178   3.013   1.449  11.379  2.6419 -2.2648 -3.1299
11921TIP3    H257179   2.971   1.316  11.438 -0.1241 -0.1560  0.0221
11922TIP3   OH257180   0.786   2.945   4.070  0.3181  0.6198 -0.3897
11922TIP3    H157181   0.837   2.903   4.000 -1.1951  1.0761 -1.8188
11922TIP3    H257182   0.823   2.908   4.151  1.5416 -0.5927 -1.4328
11923TIP3   OH257183   2.349   6.755   2.519 -0.1421 -0.4464  0.3068
11923TIP3    H157184   2.286   6.689   2.491 -1.5014  0.2516  1.6043
11923TIP3    H257185   2.361   6.738   2.613 -0.0496  0.7642  0.5240
11924TIP3   OH257186   0.503   0.170   5.717 -0.4964  0.2172  0.1611
11924TIP3    H157187   0.454   0.210   5.790  0.1681  1.3511  0.0036
11924TIP3    H257188   0.590   0.210   5.722 -0.1313 -0.4588 -0.6447
11925TIP3   OH257189   0.298   0.931  16.107 -0.2327 -0.1110  0.5496
11925TIP3    H157190   0.296   0.903  16.015  4.6980 -1.3745  0.5537
11925TIP3    H257191   0.244   0.866  16.152 -0.1356 -1.4103 -1.0935
11926TIP3   OH257192   4.007   5.455  13.070 -0.7125  0.0356 -0.0123
11926TIP3    H157193   4.056   5.384  13.027  0.3901  1.5256 -1.3383
11926TIP3    H257194   3.957   5.495  12.999 -2.7262 -0.4721  1.0533
11927TIP3   OH257195   5.351   1.432  16.781  0.1674 -0.2664 -0.4242
11927TIP3    H157196   5.414   1.424  16.710 -0.3379  0.2200 -0.9437
11927TIP3    H257197   5.396   1.483  16.848  0.0076  0.9149 -1.1931
11928TIP3   OH257198   3.114   0.607   1.581  0.2401 -0.0701 -0.2250
11928TIP3    H157199   3.137   0.688   1.535  0.4373  0.3112  0.5247
11928TIP3    H257200   3.129   0.538   1.517  0.7319  0.4268 -0.6566
11929TIP3   OH257201   3.937   0.609   4.551  0.7294  0.0162  0.2894
11929TIP3    H157202   3.950   0.523   4.511  0.7252  1.1457 -2.3571
11929TIP3    H257203   3.947   0.594   4.645 -0.6231 -3.1094  0.0547
11930TIP3   OH257204   0.073   2.907  15.492  0.1578  0.2642 -0.1746
11930TIP3    H157205   0.168   2.911  15.498  0.1040  0.4105  0.7137
11930TIP3    H257206   0.048   2.987  15.446  0.3801  0.9217  0.8181
11931TIP3   OH257207   1.788   5.775   1.934  0.0522  0.5137 -0.2903
11931TIP3    H157208   1.796   5.708   1.865  2.7267  0.6321 -0.1652
11931TIP3    H257209   1.826   5.854   1.896  0.4830  0.9112  0.9228
11932TIP3   OH257210   2.580   4.018   3.532 -0.0570  0.0265  0.6334
11932TIP3    H157211   2.540   4.103   3.547 -0.2939  0.1440 -0.5363
11932TIP3    H257212   2.507   3.961   3.509  0.3876  0.3124 -1.8220
11933TIP3   OH257213   3.150   4.982  12.684 -0.1257  0.1500  0.3983
11933TIP3    H157214   3.232   5.027  12.706  0.7762 -0.2024 -1.9306
11933TIP3    H257215   3.103   4.977  12.767  2.1014  0.5658  1.7929
11934TIP3   OH257216   1.757   0.523  16.717  0.2053 -0.1548 -0.4519
11934TIP3    H157217   1.708   0.580  16.776  1.9654  0.0076  0.9202
11934TIP3    H257218   1.849   0.544  16.732  0.9381 -3.0397 -0.1397
11935TIP3   OH257219   2.841   2.394   6.172  0.1796  0.0831  0.0956
11935TIP3    H157220   2.898   2.373   6.098  0.6002 -1.5789  0.8447
11935TIP3    H257221   2.752   2.389   6.137  0.3729 -0.6944 -0.3079
11936TIP3   OH257222   6.483   2.101   0.693  0.1126  0.3251  0.2526
11936TIP3    H157223   6.427   2.130   0.765 -0.4288  2.0781 -0.7990
11936TIP3    H257224   6.536   2.032   0.730 -1.2390  0.0976  1.9007
11937TIP3   OH257225   3.579   6.744   1.954  0.0091  0.0670 -0.5934
11937TIP3    H157226   3.553   6.741   1.862 -0.1505  2.6837 -0.7211
11937TIP3    H257227   3.637   6.820   1.960  1.1309 -0.8677  1.2303
11938TIP3   OH257228   3.242   1.164  16.988  0.2485 -0.1427 -0.4307
11938TIP3    H157229   3.334   1.140  16.999  0.0968 -0.1731  1.0354
11938TIP3    H257230   3.239   1.257  17.011 -0.3898 -0.6277  1.6660
11939TIP3   OH257231   5.378   4.931  13.982  0.2661 -0.2589 -0.2019
11939TIP3    H157232   5.463   4.930  14.027 -0.5000  2.2180  1.5537
11939TIP3    H257233   5.363   5.024  13.962 -1.4194 -0.8084 -1.7583
11940TIP3   OH257234   1.673   1.666   1.142 -0.3432  0.6647 -0.2897
11940TIP3    H157235   1.745   1.625   1.094 -0.3910  0.4530 -0.1830
11940TIP3    H257236   1.641   1.735   1.084 -0.6134  0.1985 -0.6982
11941TIP3   OH257237   2.223   4.509  13.976 -0.3429 -0.2243 -0.0207
11941TIP3    H157238   2.208   4.427  14.023  0.8357  0.7759  2.2262
11941TIP3    H257239   2.144   4.561  13.991  0.0146  0.0762  0.8324
11942TIP3   OH257240   1.606   2.854   2.275 -0.5752  0.0133  0.3881
11942TIP3    H157241   1.557   2.778   2.305 -0.5048 -0.0691  0.2972
11942TIP3    H257242   1.558   2.884   2.197  0.4415 -1.0713 -0.6973
11943TIP3   OH257243   5.169   5.803  13.591 -0.0305 -0.5668 -0.1109
11943TIP3    H157244   5.233   5.737  13.564 -1.3804 -2.4162  0.9299
11943TIP3    H257245   5.087   5.775  13.551 -0.1326  2.2355 -2.1411
11944TIP3   OH257246   2.262   0.235  14.760 -0.3846  0.0982  0.3645
11944TIP3    H157247   2.181   0.264  14.717 -0.1640  0.5458  0.2512
11944TIP3    H257248   2.332   0.279  14.712 -0.0935  0.0018  0.6981
11945TIP3   OH257249   0.900   5.479  15.415 -0.4056  0.2536  0.8153
11945TIP3    H157250   0.940   5.567  15.410 -1.4604  0.6601 -1.3558
11945TIP3    H257251   0.918   5.451  15.505  2.4931  1.4661  0.7454
11946TIP3   OH257252   3.211   3.381  16.465  0.1287 -0.4470 -0.0422
11946TIP3    H157253   3.295   3.360  16.423  0.8841 -1.5716  1.8764
11946TIP3    H257254   3.235   3.408  16.553 -1.4537  0.9254  0.0022
11947TIP3   OH257255   4.717   0.006  13.541 -0.2922  0.1779 -0.2246
11947TIP3    H157256   4.697  -0.078  13.581 -0.4283  0.0123 -0.6378
11947TIP3    H257257   4.811   0.002  13.522 -0.6200 -0.5744 -1.8313
11948TIP3   OH257258   1.094   5.485   1.567 -0.4478 -0.2456 -0.7599
11948TIP3    H157259   1.152   5.504   1.493  0.6656 -0.1270  0.1016
11948TIP3    H257260   1.154   5.465   1.639 -1.4557  0.7805  0.4100
11949TIP3   OH257261   2.672   4.465   4.334  0.0965  0.3390 -0.6970
11949TIP3    H157262   2.686   4.465   4.429  1.2524 -1.1558 -0.8178
11949TIP3    H257263   2.595   4.520   4.321 -0.6925 -0.2206  1.1975
11950TIP3   OH257264   4.449   5.522   1.653  0.4440  0.0298  0.4999
11950TIP3    H157265   4.408   5.596   1.608  1.3085 -0.0877 -0.5226
11950TIP3    H257266   4.405   5.445   1.616  1.5019 -0.0948 -0.5732
11951TIP3   OH257267   3.257   1.812   3.856 -0.3150  0.3086 -0.4897
11951TIP3    H157268   3.326   1.765   3.809 -1.3958 -1.3868 -0.4771
11951TIP3    H257269   3.303   1.882   3.902  1.8205 -2.0886  1.3595
11952TIP3   OH257270   1.059   5.333  11.490 -0.4951 -0.1070  0.5239
11952TIP3    H157271   1.001   5.406  11.509  0.7973  0.6788  1.6571
11952TIP3    H257272   1.012   5.256  11.522 -1.6779  0.2634 -0.2682
11953TIP3   OH257273   5.362   5.012  15.079 -0.2480  0.0525  0.2960
11953TIP3    H157274   5.360   5.096  15.126 -1.6002 -0.2607  0.8752
11953TIP3    H257275   5.297   4.958  15.125  0.6192 -1.3333 -0.0414
11954TIP3   OH257276   3.030   1.492   2.973  0.0003  0.1609  0.2150
11954TIP3    H157277   3.018   1.581   3.006  0.8725 -0.2824  1.7951
11954TIP3    H257278   3.019   1.501   2.878  0.6866  2.0726  0.2642
11955TIP3   OH257279   1.064   5.261   4.842 -0.1940 -0.4787 -0.6221
11955TIP3    H157280   1.077   5.261   4.747 -1.3636 -2.8089 -0.8547
11955TIP3    H257281   1.143   5.219   4.877  1.7418  3.1533 -0.1622
11956TIP3   OH257282   3.841   1.751   2.432 -0.5533  0.0694 -0.1274
11956TIP3    H157283   3.755   1.710   2.423  0.2943 -1.6013 -1.1024
11956TIP3    H257284   3.837   1.829   2.375 -1.4073  0.0039 -0.1670
11957TIP3   OH257285   5.985   1.098   6.497  0.5101 -0.6255 -0.0749
11957TIP3    H157286   6.053   1.139   6.443  0.3053 -0.0222  0.1242
11957TIP3    H257287   5.981   1.152   6.576 -0.2056 -0.6555 -0.0834
11958TIP3   OH257288   2.549   5.832  14.944 -0.0466 -0.2904  0.4954
11958TIP3    H157289   2.571   5.912  14.896 -0.3785 -0.4733  0.0279
11958TIP3    H257290   2.568   5.852  15.035 -0.9798  0.6381  0.5033
11959TIP3   OH257291   1.467   5.188  11.655  0.2143  0.5690 -0.1111
11959TIP3    H157292   1.478   5.229  11.741  0.8067  0.3905 -0.0986
11959TIP3    H257293   1.448   5.261  11.596 -1.4298  0.5708  0.3707
11960TIP3   OH257294   1.287   6.470   0.667 -0.0636  0.6941  0.2840
11960TIP3    H157295   1.229   6.514   0.730  0.9026  0.2859  1.5005
11960TIP3    H257296   1.275   6.518   0.585 -1.8128  0.8586  0.6037
11961TIP3   OH257297   4.659   2.064  15.063 -0.3058 -0.5610  0.4673
11961TIP3    H157298   4.598   2.108  15.121 -1.2926 -1.9577  0.5519
11961TIP3    H257299   4.728   2.128  15.046 -2.1479  1.3244 -0.2186
11962TIP3   OH257300   1.274   4.924  16.305  0.2840  0.9080  0.8823
11962TIP3    H157301   1.208   4.856  16.295 -0.1549  1.3006  1.1232
11962TIP3    H257302   1.316   4.904  16.389  0.1240  0.9622  0.9760
11963TIP3   OH257303   3.780   5.732   0.773 -0.0697 -0.2024 -0.1061
11963TIP3    H157304   3.732   5.745   0.855  0.8783  0.6304  0.3330
11963TIP3    H257305   3.842   5.805   0.770 -2.4607  2.0236 -3.3289
11964TIP3   OH257306   1.131   3.638   1.928  0.0616 -0.1074  0.0151
11964TIP3    H157307   1.056   3.693   1.952 -0.0006  0.1538 -0.7742
11964TIP3    H257308   1.207   3.687   1.959 -0.0921 -0.5416  1.1510
11965TIP3   OH257309   3.731   1.523   4.655  0.1130  0.8585  0.2622
11965TIP3    H157310   3.733   1.508   4.749 -0.3327  0.7829  0.2620
11965TIP3    H257311   3.638   1.526   4.633  0.2132  0.2797 -0.2684
11966TIP3   OH257312   5.306   1.799  16.974  0.8955  0.5171  0.1961
11966TIP3    H157313   5.311   1.857  16.898  1.4691 -0.1689 -0.3043
11966TIP3    H257314   5.244   1.731  16.948  1.8005 -0.2397 -0.0294
11967TIP3   OH257315   2.228   0.455   5.803 -0.4504  0.0116  0.4119
11967TIP3    H157316   2.312   0.410   5.817 -0.5451 -0.2054  0.2842
11967TIP3    H257317   2.234   0.533   5.858 -0.6070 -0.5614  1.2683
11968TIP3   OH257318   3.962   3.664  11.515 -0.5926 -0.3465  0.0191
11968TIP3    H157319   3.915   3.581  11.524 -2.5047  0.8583  2.1482
11968TIP3    H257320   3.945   3.710  11.597 -0.6552  2.6881 -1.5669
11969TIP3   OH257321   4.678   3.127  15.604 -0.5606  0.7004 -0.5468
11969TIP3    H157322   4.710   3.072  15.675 -1.0562  0.6294 -0.3730
11969TIP3    H257323   4.702   3.216  15.630 -0.8468  0.6866 -0.2287
11970TIP3   OH257324   0.962   4.354  14.427  0.5737 -0.4575  0.1103
11970TIP3    H157325   0.874   4.351  14.388  0.8827  0.9689 -0.7901
11970TIP3    H257326   1.016   4.299  14.371  0.5782 -0.0454 -0.2998
11971TIP3   OH257327   2.134   4.155  15.935 -0.3638 -0.4289 -0.2430
11971TIP3    H157328   2.170   4.176  15.849 -1.7309 -1.4051 -1.0946
11971TIP3    H257329   2.046   4.192  15.933 -0.7653 -1.3323  0.3515
11972TIP3   OH257330   6.168   1.711   6.625 -0.0911  0.2824  0.4916
11972TIP3    H157331   6.167   1.664   6.541  1.6629 -3.0786  2.1414
11972TIP3    H257332   6.077   1.709   6.654 -0.2131 -1.6100  0.1342
11973TIP3   OH257333   1.941   2.146  11.141 -0.3922 -0.1533  0.4301
11973TIP3    H157334   1.959   2.231  11.102 -1.2882  0.2894  0.9597
11973TIP3    H257335   2.019   2.128  11.195  0.2850 -0.1925 -0.5348
11974TIP3   OH257336   3.091   3.402  13.071 -0.5849 -0.1103 -0.4019
11974TIP3    H157337   3.072   3.496  13.078 -0.5778 -0.1331 -0.0117
11974TIP3    H257338   3.007   3.362  13.052 -0.8024 -0.1337  0.5508
11975TIP3   OH257339   5.424   1.816  13.287 -0.1336  0.0475  0.2999
11975TIP3    H157340   5.365   1.886  13.258  0.2107  0.7283  1.2105
11975TIP3    H257341   5.449   1.841  13.376  1.9741  0.0660 -0.2518
11976TIP3   OH257342   0.392   4.452   4.966 -0.1998  0.2571 -0.1247
11976TIP3    H157343   0.356   4.475   5.052  0.1546 -0.1411  0.1357
11976TIP3    H257344   0.474   4.501   4.960 -0.3057  0.4132 -0.3077
11977TIP3   OH257345   0.703   5.429  10.527  0.3480 -0.1286 -0.1238
11977TIP3    H157346   0.758   5.423  10.449 -0.3288  0.9993 -0.7136
11977TIP3    H257347   0.667   5.518  10.524 -0.8165 -0.5477  0.6947
11978TIP3   OH257348   6.209   2.583  15.705  0.1821 -0.1287 -0.1293
11978TIP3    H157349   6.239   2.504  15.660  0.5049  0.5495 -1.1409
11978TIP3    H257350   6.249   2.578  15.791 -0.2765 -1.3531  0.0312
11979TIP3   OH257351   3.825   6.689  13.773  0.5585  1.2332  0.0296
11979TIP3    H157352   3.737   6.721  13.752  0.5162  0.7477 -0.5660
11979TIP3    H257353   3.835   6.707  13.867 -0.7697 -0.0371  0.4714
11980TIP3   OH257354   0.346   0.225   2.815  0.4411  0.8907 -0.1921
11980TIP3    H157355   0.412   0.160   2.789 -0.5144 -0.2714  0.1912
11980TIP3    H257356   0.333   0.210   2.908  0.3204  1.7694 -0.0559
11981TIP3   OH257357   0.739   0.236  14.860  0.2092 -0.7083  0.1927
11981TIP3    H157358   0.710   0.148  14.882 -1.4727  0.2917  2.3848
11981TIP3    H257359   0.776   0.270  14.941  1.8539  0.2508 -0.9148
11982TIP3   OH257360   4.598   5.120  15.100  0.5606 -0.1083 -0.2108
11982TIP3    H157361   4.657   5.048  15.124  0.9918 -0.1670 -1.4229
11982TIP3    H257362   4.552   5.088  15.022  1.7047  1.4282 -1.5635
11983TIP3   OH257363   4.869   0.489   1.498  0.2499  0.2184  0.2333
11983TIP3    H157364   4.826   0.406   1.481 -2.1658  1.0719  1.6125
11983TIP3    H257365   4.836   0.548   1.430 -0.5430  0.7730  1.0613
11984TIP3   OH257366   6.265   4.192   6.487 -0.0602 -0.4084  0.3939
11984TIP3    H157367   6.210   4.246   6.431 -0.0871 -0.3932  0.4346
11984TIP3    H257368   6.224   4.105   6.485  1.2759 -1.0444 -1.5317
11985TIP3   OH257369   4.147   0.639   3.608 -0.0158  0.1591  0.6646
11985TIP3    H157370   4.129   0.555   3.565  2.4084 -0.8783  1.5087
11985TIP3    H257371   4.068   0.691   3.593 -0.5337 -1.2748 -2.2600
11986TIP3   OH257372   4.806   6.507   5.882 -0.2979  0.1396  0.2195
11986TIP3    H157373   4.776   6.580   5.937  1.2910  0.6640  0.4592
11986TIP3    H257374   4.853   6.550   5.810 -1.1606 -0.5959 -0.8118
11987TIP3   OH257375   4.869   5.375   0.065  0.0982  0.1672  0.1291
11987TIP3    H157376   4.874   5.467   0.038 -1.3930  0.2459  0.0460
11987TIP3    H257377   4.959   5.342   0.053  0.4175  1.3075 -0.9111
11988TIP3   OH257378   1.038   3.935   2.906 -0.4028  0.1825  0.1898
11988TIP3    H157379   1.094   3.929   2.984  0.0545 -0.8869 -0.2109
11988TIP3    H257380   0.982   4.011   2.923 -1.0518 -0.6614  2.0291
11989TIP3   OH257381   0.356   3.263  16.415 -0.3553 -0.2007  0.0448
11989TIP3    H157382   0.270   3.221  16.408 -0.5458  0.1747  0.0809
11989TIP3    H257383   0.340   3.354  16.390  0.2224 -0.3466 -0.8887
11990TIP3   OH257384   2.429   1.093  14.983  0.4258 -0.4439  0.6519
11990TIP3    H157385   2.462   1.162  14.926  0.2822 -1.4877 -0.7427
11990TIP3    H257386   2.335   1.092  14.968  0.4713 -1.1779  0.3933
11991TIP3   OH257387   4.218   2.135  15.018  0.6427  0.3163  0.3124
11991TIP3    H157388   4.179   2.181  15.093  0.8815  0.3317  0.4300
11991TIP3    H257389   4.289   2.084  15.056  0.6755  0.2121  0.1137
11992TIP3   OH257390   1.177   6.626   2.249  0.2056  0.3950  0.2766
11992TIP3    H157391   1.094   6.579   2.251  1.1965 -1.4220  0.6239
11992TIP3    H257392   1.163   6.703   2.304 -1.5396  0.6879 -0.5060
11993TIP3   OH257393   0.979   4.042  10.361  0.1315 -0.1098  0.3310
11993TIP3    H157394   0.964   4.057  10.454  0.6384  1.5396  0.1723
11993TIP3    H257395   1.074   4.033  10.352  0.2078  0.9530 -0.1549
11994TIP3   OH257396   1.476   0.193   0.805 -0.2183 -0.2576  0.2219
11994TIP3    H157397   1.542   0.244   0.756 -1.0534  1.1512  0.5119
11994TIP3    H257398   1.466   0.113   0.754  1.4929 -0.3884  0.0069
11995TIP3   OH257399   1.743   0.927   4.578 -0.2295  0.7986  0.1643
11995TIP3    H157400   1.696   0.843   4.576 -1.4635  1.4780 -0.3429
11995TIP3    H257401   1.748   0.949   4.671 -0.1179  0.2830  0.2831
11996TIP3   OH257402   4.129   2.418  13.057  0.1862 -0.1749  0.2405
11996TIP3    H157403   4.041   2.409  13.093 -0.2510 -0.9437 -0.9440
11996TIP3    H257404   4.164   2.329  13.055  0.9144  0.0929  0.4877
11997TIP3   OH257405   5.986   3.128  15.968 -0.2007  0.1664  0.5187
11997TIP3    H157406   5.965   3.152  15.878 -0.2176 -2.6159 -0.3029
11997TIP3    H257407   5.908   3.152  16.018  0.2197  2.7577  0.0823
11998TIP3   OH257408   1.018   3.509  15.683 -0.3681  0.2724 -0.3868
11998TIP3    H157409   1.059   3.497  15.769  0.6052  4.4886 -0.0497
11998TIP3    H257410   0.925   3.492  15.698 -0.0840 -0.0320  1.2523
11999TIP3   OH257411   4.467   5.273   0.403  0.5121 -0.4824 -0.1063
11999TIP3    H157412   4.406   5.209   0.366  0.1629 -0.3926  0.3016
11999TIP3    H257413   4.530   5.221   0.453 -0.1591 -0.4815  0.7811
12000TIP3   OH257414   3.221   1.778   4.488  0.3817 -0.3674  0.2577
12000TIP3    H157415   3.157   1.771   4.418 -1.0419 -1.4741  1.5969
12000TIP3    H257416   3.179   1.836   4.552  0.9736 -0.6012  0.8667
12001TIP3   OH257417   4.691   4.550  16.961 -0.0845  0.9137 -0.0380
12001TIP3    H157418   4.734   4.465  16.948  0.8824  1.5981 -1.6213
12001TIP3    H257419   4.601   4.528  16.982  0.2751 -0.5155  0.1168
12002TIP3   OH257420   0.212   4.551  11.016  0.0093  0.3632  0.1958
12002TIP3    H157421   0.237   4.634  11.055  1.0171 -0.4366  1.3231
12002TIP3    H257422   0.193   4.494  11.091 -4.0644  0.4986 -0.5023
12003TIP3   OH257423   1.691   3.641   0.056  0.2420 -0.1295  0.1708
12003TIP3    H157424   1.691   3.712  -0.008  0.6822  0.4307  0.7647
12003TIP3    H257425   1.619   3.663   0.116  0.6050  0.0163  0.5611
12004TIP3   OH257426   1.757   3.613   2.941 -0.3772  0.0125 -0.0672
12004TIP3    H157427   1.810   3.580   3.013 -1.1585 -0.0669  0.4880
12004TIP3    H257428   1.776   3.555   2.868  0.3134  0.0068  0.1149
12005TIP3   OH257429   0.523   3.421   3.962 -0.3450 -0.2532 -0.2974
12005TIP3    H157430   0.557   3.424   4.051 -1.8211 -1.8991  0.3788
12005TIP3    H257431   0.594   3.382   3.910  0.5195  0.7059  0.1226
12006TIP3   OH257432   5.660   5.292  12.226  0.0752 -0.6486 -0.1127
12006TIP3    H157433   5.697   5.221  12.279  0.5374  0.0088  0.4587
12006TIP3    H257434   5.717   5.297  12.149  1.4129  0.5493  0.8981
12007TIP3   OH257435   4.141   0.571  12.752  0.0484 -0.1554  0.1804
12007TIP3    H157436   4.096   0.587  12.669 -0.5388  1.7296  0.8057
12007TIP3    H257437   4.107   0.487  12.782  0.1881 -0.8191 -1.3974
12008TIP3   OH257438   4.402   5.626  16.382 -0.1047  0.5168 -0.3241
12008TIP3    H157439   4.489   5.650  16.414  0.3807  0.8266 -1.7908
12008TIP3    H257440   4.397   5.531  16.398  0.1461  0.6429  0.5569
12009TIP3   OH257441   0.008   3.510   3.656  0.1927  0.0686 -0.1965
12009TIP3    H157442   0.061   3.580   3.616  1.0661  0.5663  1.7326
12009TIP3    H257443   0.067   3.435   3.658 -1.3549 -1.5161 -4.1242
12010TIP3   OH257444   5.146   5.987  14.781 -0.0968 -0.6487  0.2860
12010TIP3    H157445   5.181   5.904  14.814 -1.0881 -0.8943  0.7375
12010TIP3    H257446   5.105   6.028  14.857  0.6358  0.4082  0.1352
12011TIP3   OH257447   5.748   0.707  13.984  0.0714  0.3579 -0.6184
12011TIP3    H157448   5.737   0.732  14.076  0.2829  1.2649 -0.8263
12011TIP3    H257449   5.670   0.742  13.940 -0.7517 -1.3246 -0.5642
12012TIP3   OH257450   3.275   1.982   5.752 -0.3885  0.3207 -0.2008
12012TIP3    H157451   3.190   1.944   5.728 -0.5354  1.1059 -0.9782
12012TIP3    H257452   3.253   2.051   5.814 -0.4034  0.9900 -0.9305
12013TIP3   OH257453   5.267   1.387  11.626  0.1839 -0.1392  0.1408
12013TIP3    H157454   5.261   1.334  11.546 -4.2902 -1.1331  0.8579
12013TIP3    H257455   5.254   1.477  11.595 -1.9858 -0.5584 -0.3553
12014TIP3   OH257456   3.608   5.730   0.985 -0.4326  0.1290 -0.4194
12014TIP3    H157457   3.614   5.658   1.048  0.6192  0.3782 -0.2241
12014TIP3    H257458   3.544   5.789   1.024  1.6545  1.2848  1.5057
12015TIP3   OH257459   1.262   1.933   6.147  0.2801 -0.0600 -0.1454
12015TIP3    H157460   1.189   1.918   6.207 -0.9872  0.4231 -1.5049
12015TIP3    H257461   1.310   1.851   6.147  0.3259 -0.0771  1.4948
12016TIP3   OH257462   5.911   6.130   5.815  0.3627 -0.1651  0.5477
12016TIP3    H157463   5.923   6.072   5.740  2.2396  1.5982 -0.6271
12016TIP3    H257464   5.941   6.079   5.890 -0.0843 -1.4416 -0.1252
12017TIP3   OH257465   3.135   2.971  14.493 -0.5455  0.3205  0.9133
12017TIP3    H157466   3.126   3.055  14.447 -1.4205 -0.6671 -0.8319
12017TIP3    H257467   3.070   2.914  14.452  1.7379 -1.9822  0.1968
12018TIP3   OH257468   0.918   1.568  16.595 -0.2666  0.4706 -0.4947
12018TIP3    H157469   0.849   1.574  16.529  0.7310 -0.6907 -1.6941
12018TIP3    H257470   0.969   1.648  16.583 -0.7095  0.7685 -0.4109
12019TIP3   OH257471   5.361   1.116   5.516 -0.1129 -0.7956  0.0205
12019TIP3    H157472   5.275   1.124   5.474 -0.1252 -1.0775 -0.0072
12019TIP3    H257473   5.364   1.026   5.548  1.3164 -1.6843 -2.4227
12020TIP3   OH257474   3.396   3.703  15.122 -0.1695  0.2077  0.0811
12020TIP3    H157475   3.437   3.710  15.036  0.4624 -0.8236  0.2772
12020TIP3    H257476   3.306   3.674  15.104 -0.6807  1.9391 -0.3189
12021TIP3   OH257477   2.159   6.733  12.742  0.1725  0.3024 -0.2001
12021TIP3    H157478   2.190   6.651  12.781  0.1294 -0.4116 -1.5951
12021TIP3    H257479   2.232   6.794  12.752  1.4643 -0.8528 -1.9429
12022TIP3   OH257480   4.347   5.193   3.029  0.5888 -0.4136 -0.0132
12022TIP3    H157481   4.332   5.252   2.955  1.1128 -1.2149 -0.7918
12022TIP3    H257482   4.305   5.111   3.003  2.5974 -1.3767 -0.4008
12023TIP3   OH257483   4.026   3.446   3.860 -0.6975 -0.1682 -0.0567
12023TIP3    H157484   4.117   3.461   3.837 -1.1332  1.5859 -0.7966
12023TIP3    H257485   3.988   3.533   3.869 -1.7696 -0.7964  2.5875
12024TIP3   OH257486   1.383   1.050  14.103  0.4511 -0.2727 -0.5919
12024TIP3    H157487   1.344   0.972  14.145  0.1382 -0.7440 -1.7078
12024TIP3    H257488   1.307   1.104  14.079  0.7002  0.8671  1.0191
12025TIP3   OH257489   3.801   2.640   2.313 -0.3671 -0.3725 -0.0726
12025TIP3    H157490   3.706   2.629   2.319 -0.5710  0.2071 -1.7372
12025TIP3    H257491   3.837   2.554   2.335 -1.3321 -0.9275 -0.6185
12026TIP3   OH257492   5.330   1.800   3.600 -0.1814  0.1129  0.0504
12026TIP3    H157493   5.296   1.812   3.688 -1.2974  0.9493 -0.4594
12026TIP3    H257494   5.252   1.787   3.546  0.4229  0.3510 -0.9134
12027TIP3   OH257495   4.909   0.669   2.648  0.4009  0.4975  0.0788
12027TIP3    H157496   4.891   0.644   2.739 -0.9150  0.3643 -0.1915
12027TIP3    H257497   4.988   0.620   2.624  1.8763  1.9449  1.7030
12028TIP3   OH257498   1.295   6.046  14.000 -0.2123  0.3738 -0.1111
12028TIP3    H157499   1.360   6.000  14.053  1.6084  1.1415 -1.5843
12028TIP3    H257500   1.222   6.060  14.060  0.6805 -1.0919  1.4298
12029TIP3   OH257501   1.345   4.609   3.693  0.5105  0.7282  0.1111
12029TIP3    H157502   1.410   4.669   3.658 -1.9801  2.5155 -1.8035
12029TIP3    H257503   1.330   4.546   3.622  2.8290 -2.2279  1.9511
12030TIP3   OH257504   5.264   6.284  10.963  0.2061  0.0877 -0.1852
12030TIP3    H157505   5.274   6.349  11.033  1.6568  1.4026 -1.5153
12030TIP3    H257506   5.265   6.336  10.883 -3.2618 -1.1602 -1.2130
12031TIP3   OH257507   3.058   4.384   0.887 -0.1171 -0.3548  0.4092
12031TIP3    H157508   3.030   4.293   0.877 -0.1930 -0.2098 -0.9846
12031TIP3    H257509   3.120   4.397   0.815 -0.5483  0.8621  0.2397
12032TIP3   OH257510   3.032   0.224  15.917  0.1534  0.2838 -0.3627
12032TIP3    H157511   2.966   0.185  15.860  0.5702 -0.0200 -0.6424
12032TIP3    H257512   3.048   0.157  15.984 -0.3493  0.6471  0.1260
12033TIP3   OH257513   5.347   1.436   4.729  0.1160 -0.2775  0.0895
12033TIP3    H157514   5.442   1.442   4.728  0.0544  1.3032 -1.6232
12033TIP3    H257515   5.329   1.349   4.764  2.0879  0.2147  2.6483
12034TIP3   OH257516   5.456   5.704  13.671 -0.0212  0.2420 -0.6617
12034TIP3    H157517   5.484   5.631  13.616  1.5004 -0.6429  1.1435
12034TIP3    H257518   5.413   5.662  13.746  0.4398  1.2111  0.1692
12035TIP3   OH257519   4.466   0.355   0.806 -0.2481 -0.5617  0.6353
12035TIP3    H157520   4.518   0.372   0.884  0.4759 -0.0118  0.0462
12035TIP3    H257521   4.507   0.277   0.766  1.8050  1.2986 -1.1811
12036TIP3   OH257522   6.331   3.533   3.327 -0.5113 -0.0360 -0.2868
12036TIP3    H157523   6.426   3.528   3.323 -0.4706 -1.6236  1.2055
12036TIP3    H257524   6.301   3.452   3.285 -1.1261 -0.2385  0.5007
12037TIP3   OH257525   5.467   4.490   3.359  0.5599 -0.3544  0.6576
12037TIP3    H157526   5.392   4.514   3.305  0.4051 -0.9234  0.6220
12037TIP3    H257527   5.543   4.504   3.302  0.5460  0.8048  0.8849
12038TIP3   OH257528   0.152   3.207   0.989  0.4683 -0.0205  0.4280
12038TIP3    H157529   0.147   3.111   0.991  1.1234 -0.0469  1.4438
12038TIP3    H257530   0.061   3.235   0.982  0.2806 -0.7115 -0.0561
12039TIP3   OH257531   0.910   3.657  12.640  0.3744 -0.2075 -0.3442
12039TIP3    H157532   0.946   3.569  12.631  1.6893  0.3818 -1.0578
12039TIP3    H257533   0.840   3.647  12.704  0.0905 -1.8869 -0.8603
12040TIP3   OH257534   4.306   1.041  12.386 -0.2273  0.7199 -0.2299
12040TIP3    H157535   4.241   1.044  12.457 -0.2016  0.4097 -0.1958
12040TIP3    H257536   4.273   1.105  12.322 -1.7876 -0.9726 -1.2491
12041TIP3   OH257537   4.488   1.370   2.376 -0.5484 -0.2594 -0.2456
12041TIP3    H157538   4.535   1.322   2.444 -1.4951 -1.5556 -0.4636
12041TIP3    H257539   4.408   1.400   2.419 -0.5878 -0.0497 -0.4645
12042TIP3   OH257540   0.628   2.372   6.382  0.2982  0.1445  1.3214
12042TIP3    H157541   0.563   2.438   6.406  0.3100  0.1139  1.4362
12042TIP3    H257542   0.599   2.292   6.425 -0.1199 -0.1094  0.5892
12043TIP3   OH257543   5.743   2.374  13.569  0.1315  0.5650 -0.5774
12043TIP3    H157544   5.695   2.362  13.486  1.4390  2.0683 -1.6056
12043TIP3    H257545   5.832   2.395  13.542  1.7293 -2.9770  1.2693
12044TIP3   OH257546   1.985   1.561   3.254 -0.1587  0.5891  0.3244
12044TIP3    H157547   2.052   1.556   3.323 -0.1240 -0.0966  0.2514
12044TIP3    H257548   1.902   1.553   3.301 -0.1334  0.0745  0.2925
12045TIP3   OH257549   1.142   2.941  13.303 -0.2050 -0.1347  0.1856
12045TIP3    H157550   1.095   2.990  13.370 -0.9369  0.4792 -0.7434
12045TIP3    H257551   1.205   3.004  13.267  1.8012 -1.0997  1.7903
12046TIP3   OH257552   6.492   4.972  11.400 -0.1988  0.1844 -0.2851
12046TIP3    H157553   6.466   4.880  11.400  0.1108  0.0886  0.5934
12046TIP3    H257554   6.522   4.989  11.489 -0.4154  1.1858 -0.3846
12047TIP3   OH257555   2.788   1.920  12.711 -0.0249 -0.7932  0.0777
12047TIP3    H157556   2.880   1.920  12.686 -0.4556  0.5266 -1.7719
12047TIP3    H257557   2.765   1.828  12.722  1.1422 -1.2316 -0.9701
12048TIP3   OH257558   0.925   4.437   4.938  1.0576  0.0979 -0.0780
12048TIP3    H157559   0.875   4.358   4.915  0.6283  0.6874 -1.2365
12048TIP3    H257560   0.866   4.485   4.997  0.4837  0.4970 -0.9553
12049TIP3   OH257561   0.573   3.947   6.023 -0.2844  0.0570  0.4240
12049TIP3    H157562   0.534   3.925   5.938  0.3333  1.2507 -0.2012
12049TIP3    H257563   0.498   3.954   6.082 -0.7389 -0.6402 -0.0441
12050TIP3   OH257564   5.876   6.245  13.682 -0.1714  0.0091 -0.5692
12050TIP3    H157565   5.941   6.185  13.644 -0.5185 -0.8251  0.1184
12050TIP3    H257566   5.836   6.288  13.607  0.5948 -0.0782 -1.0397
12051TIP3   OH257567   5.041   3.775  15.200 -0.2608  0.4659 -0.0757
12051TIP3    H157568   5.079   3.715  15.264 -0.4903  0.3368 -0.0569
12051TIP3    H257569   5.063   3.736  15.115 -0.0133  0.6013 -0.0721
12052TIP3   OH257570   5.744   2.855  11.422  0.0598  1.0574  0.2744
12052TIP3    H157571   5.761   2.806  11.502 -0.8379  1.4698  0.7427
12052TIP3    H257572   5.710   2.939  11.453 -0.3240  1.2120 -0.5394
12053TIP3   OH257573   1.660   4.057   0.100 -0.3514  0.0206 -0.0355
12053TIP3    H157574   1.652   4.008   0.018  0.4691  0.9308 -0.6784
12053TIP3    H257575   1.579   4.107   0.105  1.0439  2.7677 -2.2122
12054TIP3   OH257576   1.204   6.158   5.157  0.2932 -0.0650 -0.0863
12054TIP3    H157577   1.178   6.069   5.134  2.3826 -0.6208 -0.4368
12054TIP3    H257578   1.121   6.206   5.164 -0.8460 -1.9145 -0.3000
12055TIP3   OH257579   3.892   4.639  16.912 -0.1333 -0.4473 -0.1097
12055TIP3    H157580   3.889   4.591  16.830  1.0268 -0.0788 -0.3941
12055TIP3    H257581   3.874   4.574  16.979  0.4475 -1.0802 -0.5543
12056TIP3   OH257582   3.256   3.831   2.427  1.1723 -0.0867 -0.2713
12056TIP3    H157583   3.223   3.848   2.515  0.5880  2.2550 -0.8803
12056TIP3    H257584   3.269   3.736   2.424  1.2615 -0.2264  2.3283
12057TIP3   OH257585   4.314   1.838   3.930  0.4312  0.6417 -0.0562
12057TIP3    H157586   4.366   1.906   3.972 -0.7431  1.2587  0.4360
12057TIP3    H257587   4.376   1.767   3.914  0.9713  0.3905  2.6636
12058TIP3   OH257588   6.506   4.917  14.475 -0.1117 -0.0585 -0.1073
12058TIP3    H157589   6.578   4.978  14.485 -1.5049  1.6075  0.3191
12058TIP3    H257590   6.506   4.865  14.556 -0.1223  0.7706  0.4325
12059TIP3   OH257591   6.151   3.368  11.860  0.1789 -0.3429  0.2890
12059TIP3    H157592   6.182   3.457  11.841 -0.6167 -0.0877  0.1432
12059TIP3    H257593   6.135   3.367  11.954 -0.8590  0.0221  0.1300
12060TIP3   OH257594   3.068   1.978   0.032  0.3566  0.0684 -0.7592
12060TIP3    H157595   3.020   1.986  -0.051 -1.0760 -1.0816 -0.0922
12060TIP3    H257596   3.013   1.920   0.085  0.4337  2.0238  1.6082
12061TIP3   OH257597   4.133   3.018  11.367  0.0397  0.3303 -0.2177
12061TIP3    H157598   4.052   3.035  11.320  0.1350  0.7155 -0.2480
12061TIP3    H257599   4.180   3.102  11.365  0.2801  0.2074  0.1011
12062TIP3   OH257600   5.867   3.108   0.185  0.0398  0.1181 -0.2783
12062TIP3    H157601   5.785   3.158   0.191  0.5729  0.9248  0.3734
12062TIP3    H257602   5.855   3.036   0.247 -0.6364 -0.4603 -1.0499
12063TIP3   OH257603   3.524   4.966   1.701 -0.2530  0.0747 -0.4173
12063TIP3    H157604   3.549   4.971   1.793  1.2372 -0.4092 -0.7732
12063TIP3    H257605   3.521   4.872   1.682 -1.2901  0.1502 -0.6865
12064TIP3   OH257606   1.308   0.506  14.180  0.1427 -0.0848  0.3703
12064TIP3    H157607   1.300   0.479  14.271 -1.5119 -1.0122 -0.0046
12064TIP3    H257608   1.402   0.507  14.163  0.4194 -1.6886  1.5812
12065TIP3   OH257609   0.349   1.850   3.792 -0.3732  0.2174 -0.3404
12065TIP3    H157610   0.298   1.792   3.735 -0.3982 -0.0637 -0.0312
12065TIP3    H257611   0.288   1.875   3.861  0.4916 -1.8369  1.2555
12066TIP3   OH257612   2.441   5.783   0.455  0.3622 -0.1860 -0.6872
12066TIP3    H157613   2.461   5.835   0.376 -1.0302  1.1781 -0.1856
12066TIP3    H257614   2.346   5.789   0.464  0.4653 -0.6150  0.9061
12067TIP3   OH257615   1.054   2.176  13.100 -0.6195  0.0769 -0.0737
12067TIP3    H157616   1.106   2.209  13.027  0.3472  0.4437  0.7397
12067TIP3    H257617   0.964   2.200  13.079 -0.3421  0.2486 -1.0949
12068TIP3   OH257618   2.382   5.371   0.365  0.0821  0.2198 -0.4880
12068TIP3    H157619   2.386   5.457   0.323  0.5302  0.9384  0.9736
12068TIP3    H257620   2.452   5.320   0.322  0.2285  0.7788 -0.9229
12069TIP3   OH257621   4.795   4.318  10.859  0.6119 -0.4393  0.5578
12069TIP3    H157622   4.729   4.249  10.870  0.7595 -0.4449  1.4767
12069TIP3    H257623   4.771   4.385  10.923 -0.1612  0.8865 -1.0571
12070TIP3   OH257624   5.085   0.268   1.397  0.6766 -0.6696 -0.7163
12070TIP3    H157625   5.098   0.221   1.480 -0.2729 -0.5674 -0.4975
12070TIP3    H257626   4.995   0.299   1.401  1.0523  0.5496 -1.1848
12071TIP3   OH257627   3.442   1.660   6.532 -0.2368 -0.4639 -0.2258
12071TIP3    H157628   3.530   1.696   6.549  0.0349 -1.1725 -0.0973
12071TIP3    H257629   3.392   1.734   6.498  0.8317 -0.3931 -1.7286
12072TIP3   OH257630   0.519   4.188   3.115 -0.6225  0.2015  0.2510
12072TIP3    H157631   0.575   4.177   3.192 -0.1552  0.3980 -0.0584
12072TIP3    H257632   0.481   4.101   3.101 -0.6719  0.1505  0.6722
12073TIP3   OH257633   2.299   0.473   5.504  0.7695  0.0645  0.1307
12073TIP3    H157634   2.352   0.404   5.464 -0.7959 -0.5434 -1.0240
12073TIP3    H257635   2.290   0.447   5.595  0.6549 -0.9874 -0.1695
12074TIP3   OH257636   4.953   2.759  12.394  0.0977  0.5971 -0.5398
12074TIP3    H157637   5.010   2.795  12.462  0.3358 -0.3433 -0.2290
12074TIP3    H257638   4.917   2.836  12.350  1.1911  1.2128 -0.3985
12075TIP3   OH257639   3.137   0.505   6.464  0.1179  0.8331 -0.4357
12075TIP3    H157640   3.066   0.441   6.464  0.3371  0.5535  1.2730
12075TIP3    H257641   3.214   0.456   6.436  0.2746  0.3314  0.8112
12076TIP3   OH257642   2.486   5.700   2.861 -0.6139 -0.3268  0.2256
12076TIP3    H157643   2.487   5.752   2.941  2.1103  1.6723 -0.9627
12076TIP3    H257644   2.421   5.742   2.805  1.3917  1.8725 -0.6318
12077TIP3   OH257645   4.176   6.703  14.237 -0.2743  0.4698  0.1057
12077TIP3    H157646   4.183   6.608  14.240 -1.6509  0.3235 -0.5913
12077TIP3    H257647   4.124   6.726  14.314 -1.8276  0.4174 -0.8799
12078TIP3   OH257648   3.222   5.233   2.648  0.8245  0.1068 -0.5792
12078TIP3    H157649   3.212   5.276   2.563  1.5663 -1.2700 -1.4075
12078TIP3    H257650   3.263   5.298   2.704 -0.6573  1.4022 -0.9322
12079TIP3   OH257651   2.224   4.326  11.240 -0.0814 -0.1023 -0.0423
12079TIP3    H157652   2.223   4.232  11.220  1.7318 -0.1311 -0.0918
12079TIP3    H257653   2.241   4.330  11.334  0.7042  0.1896 -0.1943
12080TIP3   OH257654   3.481   5.674  10.884  0.4475  0.3535  0.0155
12080TIP3    H157655   3.401   5.649  10.929  0.0364  3.1401  1.0275
12080TIP3    H257656   3.454   5.745  10.825  1.8581  0.0468 -1.0632
12081TIP3   OH257657   1.200   3.186   1.781  0.3012 -0.3850  0.3127
12081TIP3    H157658   1.133   3.191   1.850 -0.4331  0.9897 -0.4681
12081TIP3    H257659   1.152   3.159   1.703  0.4403  1.4915 -0.4749
12082TIP3   OH257660   5.866   3.550   3.853  0.2829 -0.5873  0.1970
12082TIP3    H157661   5.868   3.526   3.760 -2.6445  1.6778 -0.6359
12082TIP3    H257662   5.954   3.582   3.872  0.8040 -0.5384 -2.0016
12083TIP3   OH257663   1.736   4.525  12.093  0.3209  0.2612 -0.3085
12083TIP3    H157664   1.741   4.559  12.004  0.3672 -0.3791 -0.5484
12083TIP3    H257665   1.813   4.562  12.137 -0.4992  1.8044 -0.0987
12084TIP3   OH257666   0.024   3.067  13.703  0.2921  0.1748 -0.4787
12084TIP3    H157667  -0.070   3.086  13.712  0.3678  0.3733 -0.0850
12084TIP3    H257668   0.027   2.978  13.668 -0.0471  0.2963 -0.8383
12085TIP3   OH257669   1.901   0.480   2.177 -0.1208  0.3080  0.1346
12085TIP3    H157670   1.840   0.440   2.116 -0.1722  0.4318  0.1036
12085TIP3    H257671   1.957   0.534   2.122 -0.3144  0.6015  0.2220
12086TIP3   OH257672   5.469   3.704   2.246 -0.6679 -0.8549 -0.1983
12086TIP3    H157673   5.524   3.779   2.222 -0.7911 -0.7874 -0.2743
12086TIP3    H257674   5.498   3.680   2.333 -1.0166 -0.3520  0.0630
12087TIP3   OH257675   1.004   4.254  11.843  0.1990  0.1672 -0.4189
12087TIP3    H157676   0.936   4.319  11.825 -0.7531 -0.3454  1.1902
12087TIP3    H257677   1.019   4.261  11.937 -2.0521 -3.9143  0.4560
12088TIP3   OH257678   0.118   5.273   4.110  0.2839 -0.5566  0.3351
12088TIP3    H157679   0.059   5.302   4.041  0.3056 -1.8972 -0.2822
12088TIP3    H257680   0.133   5.351   4.164  1.1625  0.8582 -1.8038
12089TIP3   OH257681   1.750   5.422   2.929  0.4827 -0.2330 -0.2345
12089TIP3    H157682   1.774   5.435   2.838  0.1908  0.7472 -0.1828
12089TIP3    H257683   1.744   5.510   2.966  0.8392 -0.6175  0.8001
12090TIP3   OH257684   4.662   5.396  13.489 -0.5044 -0.2117  0.6082
12090TIP3    H157685   4.567   5.401  13.499 -0.3051  1.3166  2.2820
12090TIP3    H257686   4.694   5.362  13.573  0.4347 -0.7326  0.0565
12091TIP3   OH257687   0.223   1.660   4.111 -0.9453 -0.0694  0.3593
12091TIP3    H157688   0.180   1.727   4.058 -2.1302 -0.8159  0.3524
12091TIP3    H257689   0.184   1.669   4.198 -1.6291 -1.1953  0.1857
12092TIP3   OH257690   1.088   4.184   3.649  0.0195  0.1871  0.0084
12092TIP3    H157691   1.147   4.205   3.577  0.0758  0.3288  0.0960
12092TIP3    H257692   1.005   4.226   3.625 -0.5459 -1.3870 -0.9246
12093TIP3   OH257693   2.427   5.573   0.175 -0.0226 -0.9128  0.4994
12093TIP3    H157694   2.336   5.560   0.149 -0.3016 -1.0275  1.4716
12093TIP3    H257695   2.457   5.647   0.123  0.2612 -2.6666 -1.9781
12094TIP3   OH257696   1.018   5.571   3.892 -0.3909 -0.9447 -0.1383
12094TIP3    H157697   0.929   5.538   3.890 -1.4520  1.7106 -2.1937
12094TIP3    H257698   1.013   5.651   3.945  1.3613 -2.0353  1.8374
12095TIP3   OH257699   5.007   6.460  12.842  0.5577 -0.7748  0.0701
12095TIP3    H157700   5.035   6.473  12.932 -0.2633  1.2687  0.0854
12095TIP3    H257701   4.957   6.379  12.843 -1.3070  0.3012  1.9616
12096TIP3   OH257702   3.158   6.331  14.728 -0.7254  0.9545 -0.6938
12096TIP3    H157703   3.157   6.238  14.750 -0.3790  1.0199 -0.3875
12096TIP3    H257704   3.067   6.353  14.710 -0.5708  0.0602 -2.9227
12097TIP3   OH257705   2.469   3.441   1.568 -0.0527  0.7675 -0.3248
12097TIP3    H157706   2.511   3.491   1.638 -1.1722 -0.2693  1.1590
12097TIP3    H257707   2.395   3.494   1.540 -0.9145  0.2240  0.8626
12098TIP3   OH257708   2.497   2.884  14.331 -0.9919  0.0478  0.0914
12098TIP3    H157709   2.442   2.910  14.257  0.0827 -1.7407 -1.4477
12098TIP3    H257710   2.537   2.965  14.361 -1.1460  0.7847 -1.5661
12099TIP3   OH257711   0.128   3.561   2.028  0.4067 -0.1981 -0.4000
12099TIP3    H157712   0.164   3.649   2.024  2.0181 -0.8564 -1.0583
12099TIP3    H257713   0.154   3.520   1.946 -0.8535 -1.1059 -0.3816
12100TIP3   OH257714   0.522   4.986   3.669 -0.0594 -0.2355 -0.7313
12100TIP3    H157715   0.572   4.991   3.588 -2.3670 -1.3477 -2.3591
12100TIP3    H257716   0.451   4.924   3.649 -1.8305  0.9311  1.5144
12101TIP3   OH257717   3.305   3.755  11.679  0.3420 -0.1499 -0.1196
12101TIP3    H157718   3.252   3.676  11.675  2.0685 -1.4949  1.6872
12101TIP3    H257719   3.247   3.821  11.719 -0.4443 -1.1184  0.3651
12102TIP3   OH257720   5.815   4.610  12.574  0.2879  0.3684  0.3743
12102TIP3    H157721   5.850   4.530  12.613  2.2848  1.7836  1.6679
12102TIP3    H257722   5.742   4.580  12.520  1.8865 -2.4909 -0.4155
12103TIP3   OH257723   4.363   4.906   6.155  0.0891 -0.2438 -0.1033
12103TIP3    H157724   4.283   4.951   6.184 -0.2280 -0.8131 -0.0707
12103TIP3    H257725   4.336   4.814   6.146  0.4644 -0.2570 -1.1672
12104TIP3   OH257726   2.500   0.324   0.169 -0.3375  0.1611  0.0294
12104TIP3    H157727   2.531   0.318   0.079 -0.2253 -0.3649  0.0970
12104TIP3    H257728   2.423   0.380   0.165  0.3199  1.0573 -0.2171
12105TIP3   OH257729   0.356   5.820  11.281 -0.1579 -0.1701 -0.4933
12105TIP3    H157730   0.264   5.837  11.258 -1.1588  1.2250  3.7169
12105TIP3    H257731   0.387   5.902  11.319  2.3398 -1.1415 -0.2636
12106TIP3   OH257732   4.865   2.001  12.357  0.1388  0.4895 -0.0397
12106TIP3    H157733   4.815   2.075  12.392 -0.4501 -0.3921  1.0136
12106TIP3    H257734   4.804   1.958  12.297  0.2063  0.3878 -0.0350
12107TIP3   OH257735   2.688   0.594   5.099  0.2697  0.4002 -0.0731
12107TIP3    H157736   2.757   0.573   5.162 -0.0291  1.1388  0.5241
12107TIP3    H257737   2.610   0.551   5.134  0.3187 -0.0354 -0.4915
12108TIP3   OH257738   3.309   1.957  15.836  0.4329 -0.3959  0.1481
12108TIP3    H157739   3.325   1.990  15.747 -0.3815  2.8528  1.0887
12108TIP3    H257740   3.220   1.922  15.832  0.4160 -0.3146 -0.3143
12109TIP3   OH257741   5.990   1.364   2.986 -0.1332 -0.0110 -0.6460
12109TIP3    H157742   6.015   1.435   2.926 -1.2150  1.2767  0.3748
12109TIP3    H257743   6.073   1.321   3.007  0.3751  0.0029 -2.4048
12110TIP3   OH257744   6.178   6.718   3.997 -0.6118  0.4123 -0.4334
12110TIP3    H157745   6.095   6.731   4.043 -0.5342  0.6153 -0.3520
12110TIP3    H257746   6.153   6.703   3.906 -0.6660  1.7706 -0.6541
12111TIP3   OH257747   4.900   6.279   6.173 -0.2998 -0.1453 -0.0789
12111TIP3    H157748   4.910   6.359   6.224  1.2304 -1.3273  1.6246
12111TIP3    H257749   4.808   6.255   6.183 -0.6658  1.1538 -0.2452
12112TIP3   OH257750   6.226   3.057  12.273  0.0911  0.6857  0.3740
12112TIP3    H157751   6.322   3.050  12.278  0.0422  0.7005  2.3224
12112TIP3    H257752   6.197   3.051  12.364 -1.8386 -0.0822 -0.2338
12113TIP3   OH257753   1.111   5.767  11.107 -0.4959 -0.3043 -0.0030
12113TIP3    H157754   1.143   5.857  11.107  1.5997 -0.9874 -0.6253
12113TIP3    H257755   1.039   5.767  11.044 -1.1290  1.0890  0.6716
12114TIP3   OH257756   4.489   0.171   0.477 -1.0764 -0.6030  0.1368
12114TIP3    H157757   4.465   0.259   0.448 -0.9972 -0.6017  0.0755
12114TIP3    H257758   4.461   0.114   0.405  0.7458 -0.4326 -0.7789
12115TIP3   OH257759   0.099   1.174   0.520 -0.1188  0.1264 -0.1959
12115TIP3    H157760   0.129   1.114   0.452  0.3003  0.3637 -0.2255
12115TIP3    H257761   0.059   1.118   0.586  1.7733 -0.3656  0.5875
12116TIP3   OH257762   5.651   0.265   3.603 -0.6213 -0.3937  0.0277
12116TIP3    H157763   5.694   0.309   3.530  0.4819 -3.5569 -1.4092
12116TIP3    H257764   5.566   0.238   3.569 -0.1552 -1.7759 -0.0866
12117TIP3   OH257765   2.948   0.733   0.560 -0.7628  0.1632  0.2808
12117TIP3    H157766   2.952   0.686   0.643 -0.2912 -0.7854 -0.2671
12117TIP3    H257767   2.897   0.812   0.580 -0.0917  0.2907  1.6251
12118TIP3   OH257768   2.304   3.944   5.125 -0.1705 -0.3008 -0.4130
12118TIP3    H157769   2.324   3.864   5.076  0.0883 -0.2631 -0.3691
12118TIP3    H257770   2.254   3.997   5.063  0.3057 -0.1779 -0.7014
12119TIP3   OH257771   1.761   2.066   0.827  0.0824 -0.5427  0.1649
12119TIP3    H157772   1.721   2.136   0.879  1.5305 -0.6364  1.4613
12119TIP3    H257773   1.758   2.099   0.737 -2.8800 -0.5647  0.1578
12120TIP3   OH257774   4.886   1.426  12.486 -0.0414 -0.1710 -0.0557
12120TIP3    H157775   4.852   1.339  12.464 -0.0908  0.0094 -0.6876
12120TIP3    H257776   4.896   1.470  12.402 -0.5157  0.6263  0.2941
12121TIP3   OH257777   3.635   3.831   0.742  0.4927 -0.1804  0.1636
12121TIP3    H157778   3.624   3.758   0.802 -0.2846  0.0432  0.3078
12121TIP3    H257779   3.686   3.895   0.792  0.1368 -0.1331  0.4715
12122TIP3   OH257780   4.342   6.391  12.719 -0.4391  0.4352  0.1472
12122TIP3    H157781   4.430   6.427  12.732 -0.6802  1.3169 -0.6120
12122TIP3    H257782   4.357   6.298  12.700  0.2439  0.3142  1.1687
12123TIP3   OH257783   6.073   1.310   5.591  0.2665  0.8076 -0.3833
12123TIP3    H157784   6.159   1.294   5.630  0.5078 -1.0859 -1.5718
12123TIP3    H257785   6.092   1.362   5.513  0.6195 -1.1094 -1.6495
12124TIP3   OH257786   6.601   6.008  16.077 -0.0216  0.1843  0.3234
12124TIP3    H157787   6.548   6.067  16.130  1.0432  0.9836  0.5311
12124TIP3    H257788   6.540   5.939  16.050 -0.6968 -0.0323  2.2284
12125TIP3   OH257789   5.194   3.450  12.942 -0.1433 -0.6134  0.0506
12125TIP3    H157790   5.289   3.463  12.936  0.0787 -0.5694  2.5691
12125TIP3    H257791   5.157   3.517  12.884  1.3441 -0.4952 -0.8085
12126TIP3   OH257792   4.449   4.261   1.716 -0.5981 -0.4281 -0.3141
12126TIP3    H157793   4.376   4.222   1.667 -0.4289 -1.7522  0.4325
12126TIP3    H257794   4.418   4.265   1.806 -0.4031  0.7064 -0.2891
12127TIP3   OH257795   4.753   2.330  14.149  0.4645 -1.1137 -1.0108
12127TIP3    H157796   4.732   2.315  14.241 -0.0243 -3.5682 -1.4492
12127TIP3    H257797   4.677   2.379  14.115  1.2145  0.9288  0.1054
12128TIP3   OH257798   5.267   2.611  15.488 -0.3226  0.2272  0.2275
12128TIP3    H157799   5.355   2.642  15.510  0.3701 -1.1700 -0.4700
12128TIP3    H257800   5.229   2.681  15.435  0.8351  0.3063 -0.5184
12129TIP3   OH257801   1.045   2.629   6.329 -0.5782  0.0967  0.3914
12129TIP3    H157802   0.998   2.700   6.374 -0.9339  0.0584  0.0805
12129TIP3    H257803   1.125   2.669   6.297 -0.0328 -0.0026  1.5567
12130TIP3   OH257804   0.776   3.502  15.805 -0.2491 -0.0479  0.0287
12130TIP3    H157805   0.805   3.429  15.860  0.9380 -0.3672 -0.9688
12130TIP3    H257806   0.729   3.560  15.864  0.1852 -0.8412  1.1787
12131TIP3   OH257807   5.637   3.395  15.008  0.4519  0.3234 -0.0903
12131TIP3    H157808   5.593   3.465  15.057  0.4832  0.8306 -0.7696
12131TIP3    H257809   5.651   3.432  14.921 -0.6046 -0.9650 -0.8309
12132TIP3   OH257810   1.544   1.726   0.527  0.1085 -0.3888 -0.1729
12132TIP3    H157811   1.532   1.663   0.598  2.1177  1.1537  1.6773
12132TIP3    H257812   1.633   1.710   0.496 -0.7902 -1.1813 -2.6117
12133TIP3   OH257813   1.328   0.811   5.601  0.1910 -0.0040  0.4526
12133TIP3    H157814   1.260   0.875   5.582  0.8779  0.7914  0.6467
12133TIP3    H257815   1.386   0.813   5.525  0.4045 -0.1340  0.6090
12134TIP3   OH257816   6.299   3.997  16.933  0.3208 -0.1720 -0.0647
12134TIP3    H157817   6.345   4.045  17.003  1.0431 -1.6884  0.5354
12134TIP3    H257818   6.208   3.992  16.964  0.3317  0.4131  0.0793
12135TIP3   OH257819   2.006   1.230   1.229  0.2802 -0.0204  0.5756
12135TIP3    H157820   2.080   1.288   1.248 -0.2141 -0.2307  3.6721
12135TIP3    H257821   1.928   1.282   1.253 -0.4980 -0.4829 -0.8043
12136TIP3   OH257822   1.622   4.800  10.806  0.1938  0.3264 -0.0528
12136TIP3    H157823   1.685   4.777  10.737  0.6413  1.2462  0.0250
12136TIP3    H257824   1.677   4.820  10.882 -0.2767 -0.2472  0.4395
12137TIP3   OH257825   3.641   5.996  13.794  0.0883  0.1764  0.4952
12137TIP3    H157826   3.610   5.925  13.851  0.6758  1.0498  1.9586
12137TIP3    H257827   3.594   5.983  13.712 -1.7024 -0.4411  1.5582
12138TIP3   OH257828   6.303   6.732  10.503  0.0465 -0.6380  0.0528
12138TIP3    H157829   6.262   6.798  10.446 -0.8734 -1.0537  0.2043
12138TIP3    H257830   6.388   6.769  10.526 -0.6744  0.7586  0.5848
12139TIP3   OH257831   0.100   5.122  14.738 -0.1824  0.4926  0.2649
12139TIP3    H157832   0.110   5.161  14.651  1.0061 -0.7809 -0.2124
12139TIP3    H257833   0.112   5.028  14.723 -0.0252  0.2481  1.7935
12140TIP3   OH257834   1.570   3.053  16.727  0.1574 -0.1481 -0.6081
12140TIP3    H157835   1.571   3.089  16.638  1.8637  1.3786 -0.0246
12140TIP3    H257836   1.535   3.124  16.781  2.1116  0.1531  0.3561
12141TIP3   OH257837   3.649   0.032  16.610 -0.2187 -0.2940  0.1880
12141TIP3    H157838   3.584   0.055  16.543 -0.5937  1.1446  1.0267
12141TIP3    H257839   3.624   0.083  16.687  2.4467  1.0685  0.2663
12142TIP3   OH257840   6.124   5.711   4.948 -0.4427 -0.4604  0.3833
12142TIP3    H157841   6.089   5.797   4.972 -1.8269 -0.3224 -1.8067
12142TIP3    H257842   6.136   5.665   5.031  1.7763  2.3106  1.7519
12143TIP3   OH257843   3.996   1.532   6.407  0.1241 -0.7983 -0.0722
12143TIP3    H157844   3.995   1.437   6.417 -1.5978 -0.9572 -1.2512
12143TIP3    H257845   3.903   1.556   6.403  0.5257  0.6238 -2.1499
12144TIP3   OH257846   0.751   1.953  16.458 -0.1439  0.2762  0.2895
12144TIP3    H157847   0.691   2.025  16.478 -0.6718  0.0906 -0.5536
12144TIP3    H257848   0.695   1.884  16.424  0.1961 -1.0335  2.2169
12145TIP3   OH257849   3.021   1.709   6.009 -0.0965  0.1483  0.5545
12145TIP3    H157850   2.947   1.709   5.949  0.5907  0.0470 -0.3144
12145TIP3    H257851   3.006   1.633   6.066 -0.4643 -0.1032  0.1267
12146TIP3   OH257852   5.853   6.021   2.521  0.2273 -0.1269 -0.3326
12146TIP3    H157853   5.825   6.056   2.606  1.9517  1.3005 -0.2953
12146TIP3    H257854   5.832   5.928   2.526  0.6083 -0.1629  1.8237
12147TIP3   OH257855   5.904   4.330   3.216  0.1537  0.5041  0.0830
12147TIP3    H157856   5.842   4.317   3.287  1.8946 -3.7098  1.1106
12147TIP3    H257857   5.870   4.406   3.168 -4.4893 -0.1997  1.7701
12148TIP3   OH257858   3.988   6.110  12.257 -0.3624 -0.4405  0.3463
12148TIP3    H157859   4.040   6.188  12.273 -1.1950  0.3992 -0.8856
12148TIP3    H257860   4.033   6.065  12.186 -0.3651 -0.6141  0.4544
12149TIP3   OH257861   6.408   3.571   3.842  0.2728 -0.0724  0.0876
12149TIP3    H157862   6.439   3.580   3.752  0.1634 -2.7060 -0.2982
12149TIP3    H257863   6.488   3.557   3.893  0.1852 -1.1769 -0.0425
12150TIP3   OH257864   2.838   3.554   4.467 -0.5458 -0.0531 -0.2051
12150TIP3    H157865   2.931   3.575   4.460 -0.6526  0.4617 -0.0682
12150TIP3    H257866   2.800   3.590   4.387 -0.0757 -3.3624 -2.1028
12151TIP3   OH257867   3.663   0.204   2.634 -0.5597  0.4794 -0.6293
12151TIP3    H157868   3.600   0.140   2.666 -0.0962 -0.2036 -1.0468
12151TIP3    H257869   3.702   0.163   2.557  0.4483  0.8482 -0.3349
12152TIP3   OH257870   1.112   0.359  11.621 -0.1633  0.0546  0.1258
12152TIP3    H157871   1.138   0.358  11.529  2.2066 -2.9282  0.6573
12152TIP3    H257872   1.172   0.420  11.663 -0.1056  0.1227 -0.0581
12153TIP3   OH257873   3.388   5.016   2.680 -0.4000 -0.1219 -0.8355
12153TIP3    H157874   3.333   5.092   2.698 -1.4341 -1.1011  0.3948
12153TIP3    H257875   3.467   5.031   2.731 -0.8529 -0.1364 -0.1150
12154TIP3   OH257876   1.274   5.080   4.832 -0.5627 -0.0809  0.2742
12154TIP3    H157877   1.261   4.988   4.809 -0.1931  0.1019 -0.7130
12154TIP3    H257878   1.351   5.080   4.888  0.0802 -0.2660 -0.5967
12155TIP3   OH257879   1.643   2.663  15.276  0.5391 -0.5126  0.3596
12155TIP3    H157880   1.700   2.704  15.341  0.1667 -1.7559  1.5378
12155TIP3    H257881   1.564   2.717  15.275  0.2472 -0.8809  1.5298
12156TIP3   OH257882   3.578   5.387   2.265  0.6983  0.4958  0.4122
12156TIP3    H157883   3.663   5.356   2.297  2.6092  0.3104 -4.1012
12156TIP3    H257884   3.598   5.469   2.220 -1.6742  0.8433 -0.1270
12157TIP3   OH257885   0.216   4.363  15.635  0.3070  0.4608 -0.0053
12157TIP3    H157886   0.131   4.406  15.641  0.3685  0.3822  2.0516
12157TIP3    H257887   0.247   4.384  15.546 -2.0065  0.1168 -0.9689
12158TIP3   OH257888   4.462   6.732   4.349 -0.1973  0.1411 -0.1340
12158TIP3    H157889   4.397   6.713   4.417 -0.2384 -0.7401 -0.3972
12158TIP3    H257890   4.536   6.676   4.371 -0.7578 -1.2565 -1.5846
12159TIP3   OH257891   3.236   1.776  10.989  0.5584  0.5195 -0.1332
12159TIP3    H157892   3.171   1.799  10.922 -0.6563  0.7057  1.0884
12159TIP3    H257893   3.262   1.859  11.027  1.1894  0.4031 -0.2886
12160TIP3   OH257894   0.848   6.065   2.300 -0.0636 -0.7388  0.2082
12160TIP3    H157895   0.863   6.017   2.381  0.5833  0.0551  0.5790
12160TIP3    H257896   0.901   6.019   2.235  0.7726 -0.3705  0.6198
12161TIP3   OH257897   2.522   0.675   1.459 -0.0463  0.1257 -0.7887
12161TIP3    H157898   2.448   0.616   1.445 -1.7010  1.8942  0.0734
12161TIP3    H257899   2.573   0.634   1.529 -1.7530  0.1843  0.5505
12162TIP3   OH257900   2.628   2.490  15.131 -0.2052 -0.0489 -0.5163
12162TIP3    H157901   2.603   2.576  15.165  1.0365 -0.1163  0.6244
12162TIP3    H257902   2.650   2.506  15.039  1.2106  1.1190 -0.0140
12163TIP3   OH257903   4.391   5.875  13.942  0.2595 -0.6348  0.7841
12163TIP3    H157904   4.474   5.921  13.947  0.5173 -1.1202  1.0920
12163TIP3    H257905   4.394   5.828  13.859 -0.1895  0.2300  0.2563
12164TIP3   OH257906   3.179   1.361  12.164  0.4850  0.5663  0.1209
12164TIP3    H157907   3.099   1.410  12.184  0.7097  1.5750 -1.2742
12164TIP3    H257908   3.176   1.285  12.222 -2.0456 -0.0165 -0.6111
12165TIP3   OH257909   6.590   2.131  11.262 -0.8339  0.6694 -0.7274
12165TIP3    H157910   6.530   2.069  11.219 -0.8741 -1.1389  1.7067
12165TIP3    H257911   6.639   2.077  11.324  1.5996  2.5406 -0.8968
12166TIP3   OH257912   1.110   2.406  16.133 -0.3161 -0.3856 -0.1206
12166TIP3    H157913   1.022   2.431  16.160 -0.3855 -0.9752  0.2204
12166TIP3    H257914   1.117   2.314  16.156  1.2532  0.2318  2.2513
12167TIP3   OH257915   0.035   3.336   3.093  0.1002  0.3307  0.1131
12167TIP3    H157916   0.081   3.328   3.009  0.0717  1.0714  0.0131
12167TIP3    H257917   0.104   3.339   3.159  0.2854  2.3160 -0.1063
12168TIP3   OH257918   4.311   0.707  11.641  0.4299  0.1457 -0.7139
12168TIP3    H157919   4.270   0.621  11.629  0.9520 -0.0870 -0.8502
12168TIP3    H257920   4.357   0.699  11.725 -1.2423  0.9845  0.3523
12169TIP3   OH257921   5.265   0.606  14.573  0.3039  0.7338  0.0079
12169TIP3    H157922   5.229   0.586  14.659 -2.4300 -0.5462 -1.3326
12169TIP3    H257923   5.338   0.544  14.562 -0.2988 -0.1281  0.7989
12170TIP3   OH257924   0.549   2.061  14.133 -0.3198 -0.2193 -0.3016
12170TIP3    H157925   0.547   2.065  14.037 -1.2257  0.9197 -0.2525
12170TIP3    H257926   0.517   2.146  14.162 -0.9236 -0.8620  1.0260
12171TIP3   OH257927   0.284   2.175  12.195  0.2932  0.0329 -0.1880
12171TIP3    H157928   0.218   2.144  12.258  1.5280 -2.3846  0.0464
12171TIP3    H257929   0.335   2.097  12.175  2.8419  1.7196 -0.6702
12172TIP3   OH257930   4.862   3.710   2.474 -0.6507  0.0293 -0.4760
12172TIP3    H157931   4.820   3.675   2.552  0.2422 -2.4798 -1.0205
12172TIP3    H257932   4.851   3.642   2.408  3.1774 -0.3456 -0.9684
12173TIP3   OH257933   6.393   4.660   1.965 -0.0480  0.0858 -0.1456
12173TIP3    H157934   6.461   4.654   2.032  0.2672 -0.7112 -0.5189
12173TIP3    H257935   6.437   4.700   1.890  0.0064 -0.3749 -0.3664
12174TIP3   OH257936   2.640   5.489  15.126 -0.3613  0.1554 -0.2756
12174TIP3    H157937   2.630   5.496  15.031  0.2981  1.0054 -0.3056
12174TIP3    H257938   2.570   5.543  15.161 -0.1555  0.4498 -0.3080
12175TIP3   OH257939   5.897   5.716   3.158 -0.3476  0.5548  0.3727
12175TIP3    H157940   5.829   5.649   3.159  0.3162 -0.1354  0.2525
12175TIP3    H257941   5.971   5.675   3.113 -0.1486  1.5935 -0.2774
12176TIP3   OH257942   0.991   1.086   2.198  0.9447 -0.6244  0.0387
12176TIP3    H157943   0.934   1.089   2.121  0.3304  1.8850  0.4944
12176TIP3    H257944   1.049   1.161   2.188  1.2584 -0.5953  1.7219
12177TIP3   OH257945   5.858   4.844   3.659  0.0805  0.6782 -0.2921
12177TIP3    H157946   5.906   4.917   3.619 -0.9942  1.0633 -0.9032
12177TIP3    H257947   5.906   4.826   3.740  0.0852  2.3901  0.1249
12178TIP3   OH257948   2.197   1.901   3.427 -0.0729  0.4281 -0.2925
12178TIP3    H157949   2.183   1.980   3.479 -0.5156 -0.5209  1.0993
12178TIP3    H257950   2.291   1.900   3.408  0.3881  0.0685  1.7888
12179TIP3   OH257951   3.642   6.405  12.914  0.1446  0.5197 -0.6559
12179TIP3    H157952   3.726   6.443  12.940  2.4553 -2.2890 -3.2378
12179TIP3    H257953   3.603   6.472  12.857 -0.4009  2.6280  2.0075
12180TIP3   OH257954   0.025   2.865   5.518  0.4451  0.0898 -0.2402
12180TIP3    H157955   0.003   2.896   5.430 -0.4560  1.3727  0.4007
12180TIP3    H257956   0.089   2.928   5.550  0.8193 -0.4138  0.0136
12181TIP3   OH257957   2.068   5.288  14.231  0.5130 -0.5374  0.1047
12181TIP3    H157958   2.068   5.233  14.152 -0.4547  1.3242 -1.2730
12181TIP3    H257959   2.146   5.343  14.222 -0.2250  0.4816 -0.1665
12182TIP3   OH257960   2.507   1.119   4.802  0.1449  0.7981 -0.1840
12182TIP3    H157961   2.592   1.083   4.776 -0.3710 -1.4642  1.0168
12182TIP3    H257962   2.528   1.205   4.838  1.7403  0.8875 -1.2394
12183TIP3   OH257963   1.326   4.834   2.366  0.6020 -0.0191 -0.3539
12183TIP3    H157964   1.388   4.901   2.336 -0.7840  1.9805  0.9829
12183TIP3    H257965   1.345   4.824   2.459  0.2362 -0.9068 -0.3667
12184TIP3   OH257966   1.278   3.362  11.729  1.0327 -0.0200  0.1065
12184TIP3    H157967   1.316   3.300  11.667 -0.6675 -0.8640 -0.1469
12184TIP3    H257968   1.198   3.394  11.686  1.0639  1.1855  0.8838
12185TIP3   OH257969   3.624   4.217   1.462 -0.2593  0.0987 -0.2358
12185TIP3    H157970   3.587   4.140   1.418  0.7798  0.4900 -1.8593
12185TIP3    H257971   3.556   4.284   1.453 -2.4642 -1.2601  3.6945
12186TIP3   OH257972   0.044   1.149   4.675 -0.7054  0.1805  0.2678
12186TIP3    H157973   0.076   1.197   4.751  2.0152  0.0424 -0.6827
12186TIP3    H257974   0.122   1.106   4.639 -1.9918 -0.2658 -2.2124
12187TIP3   OH257975   2.040   1.402   0.951 -0.0095  0.3940  0.6911
12187TIP3    H157976   2.130   1.388   0.982 -0.7979  0.1765  3.0934
12187TIP3    H257977   2.045   1.386   0.856  2.2271 -0.8945  0.9377
12188TIP3   OH257978   0.945   4.785   0.489 -0.1276  0.5015 -0.1338
12188TIP3    H157979   0.922   4.737   0.410 -1.6438  0.6564  0.1770
12188TIP3    H257980   0.978   4.718   0.549  4.1630  0.7492 -1.8615
12189TIP3   OH257981   3.633   5.142   3.845 -1.0100 -0.8662  0.2785
12189TIP3    H157982   3.611   5.133   3.752  1.9062 -1.0874 -0.4915
12189TIP3    H257983   3.585   5.220   3.873  0.0127  0.8155 -2.1888
12190TIP3   OH257984   4.150   0.736  15.779 -0.0355 -0.6756 -0.0361
12190TIP3    H157985   4.207   0.802  15.817  0.2648  1.0311 -3.1169
12190TIP3    H257986   4.067   0.746  15.826  0.2059  1.4895  0.0420
12191TIP3   OH257987   6.042   0.635  12.576 -0.0697  0.3351 -0.4419
12191TIP3    H157988   6.133   0.656  12.598  0.5610 -2.8199  0.5506
12191TIP3    H257989   6.046   0.607  12.485  0.2802 -1.1276 -0.0032
12192TIP3   OH257990   5.202   3.063   2.458 -0.5886 -0.0849 -0.2658
12192TIP3    H157991   5.127   3.069   2.399 -0.2050 -1.1053 -0.8741
12192TIP3    H257992   5.273   3.104   2.410 -0.4539 -0.2521 -0.2102
12193TIP3   OH257993   1.330   2.156   0.996  0.5411  0.0647  0.5437
12193TIP3    H157994   1.256   2.217   0.991 -0.7664 -1.4962 -0.0035
12193TIP3    H257995   1.402   2.208   1.032 -0.1155  2.2655 -1.1634
12194TIP3   OH257996   6.397   6.587  15.681  0.3908 -0.1618  0.1093
12194TIP3    H157997   6.327   6.653  15.675  1.1929  0.7792  0.8865
12194TIP3    H257998   6.374   6.535  15.758 -0.1458 -0.6978 -0.4004
12195TIP3   OH257999   0.138   5.859   1.020 -0.2384 -0.6380 -0.4828
12195TIP3    H158000   0.154   5.814   0.937  0.9920 -1.8801  0.3858
12195TIP3    H258001   0.184   5.806   1.086 -1.3099  0.2263  1.0261
12196TIP3   OH258002   6.053   1.840   3.678  0.0375 -0.1706  0.2044
12196TIP3    H158003   6.006   1.782   3.617  1.6902 -2.5011  0.9901
12196TIP3    H258004   6.002   1.921   3.677 -0.7057 -0.4978 -3.2943
12197TIP3   OH258005   4.367   2.912   1.832  0.8206 -0.2559  0.1057
12197TIP3    H158006   4.401   3.001   1.819  0.8101 -0.1588  0.7271
12197TIP3    H258007   4.415   2.879   1.908 -1.2944  0.3463  1.8217
12198TIP3   OH258008   3.877   4.258  13.353  0.2177 -0.3173 -0.4393
12198TIP3    H158009   3.826   4.188  13.394 -0.9829 -1.1354 -3.1113
12198TIP3    H258010   3.930   4.215  13.287  1.9685  0.9680  0.0322
12199TIP3   OH258011   5.625   0.380  11.346  0.3668 -0.4306  0.1728
12199TIP3    H158012   5.701   0.429  11.315 -0.3960  0.6434 -0.0550
12199TIP3    H258013   5.566   0.447  11.381 -1.2375 -1.0228 -1.2764
12200TIP3   OH258014   5.667   4.725   4.299 -0.5825 -0.1118 -0.0297
12200TIP3    H158015   5.700   4.771   4.222  1.2526 -0.5344  0.4467
12200TIP3    H258016   5.587   4.771   4.323 -0.1326  1.2387 -1.0343
12201TIP3   OH258017   5.995   5.616   3.810  0.0528 -0.3526  0.0506
12201TIP3    H158018   6.045   5.693   3.834 -0.7945  0.1790  0.1337
12201TIP3    H258019   5.999   5.559   3.887  1.7095 -0.9602 -0.4406
12202TIP3   OH258020   5.260   4.916  15.357 -0.1312  0.2666  0.2688
12202TIP3    H158021   5.204   4.992  15.375 -0.0679  0.8577 -1.7774
12202TIP3    H258022   5.212   4.866  15.291 -0.4215 -1.8105  1.9562
12203TIP3   OH258023   0.883   0.168   1.667  0.4912  0.3499 -0.5424
12203TIP3    H158024   0.935   0.088   1.663 -1.4455 -0.9337 -1.5443
12203TIP3    H258025   0.795   0.141   1.643 -0.6719  2.4427  0.9825
12204TIP3   OH258026   1.717   3.940   6.188 -0.2789  0.0159  0.6943
12204TIP3    H158027   1.743   3.849   6.201 -0.3478  0.0620  1.1718
12204TIP3    H258028   1.789   3.992   6.225 -0.2304  0.1537  0.4072
12205TIP3   OH258029   0.554   3.829  14.268 -0.5741 -0.0439 -0.2427
12205TIP3    H158030   0.606   3.815  14.189  2.3710  0.7862  1.3809
12205TIP3    H258031   0.604   3.786  14.337 -1.0666  2.3244  1.7362
12206TIP3   OH258032   4.377   0.938  15.621 -0.6227  0.4231 -0.4155
12206TIP3    H158033   4.338   0.967  15.704  1.0470 -0.5187  0.7589
12206TIP3    H258034   4.435   0.866  15.646 -0.3385 -0.1144 -2.4722
12207TIP3   OH258035   2.695   0.845  15.297 -0.0634  0.5898 -0.1851
12207TIP3    H158036   2.714   0.827  15.204 -0.5749 -1.9310  0.1178
12207TIP3    H258037   2.604   0.872  15.298 -0.2142  0.1058 -0.3852
12208TIP3   OH258038   0.201   0.033  11.281 -0.1002 -0.0554  0.1467
12208TIP3    H158039   0.279  -0.021  11.266 -0.2066 -0.0108 -0.6080
12208TIP3    H258040   0.205   0.100  11.213 -1.1192 -0.4098 -0.2766
12209TIP3   OH258041   2.721   6.753   0.214 -0.1986 -0.1911  0.0305
12209TIP3    H158042   2.716   6.793   0.300 -0.1298 -0.9694  0.4081
12209TIP3    H258043   2.707   6.660   0.230  1.9452 -0.6565 -0.5354
12210TIP3   OH258044   3.894   1.894  13.544  0.5518  0.1776  0.2503
12210TIP3    H158045   3.957   1.890  13.616  1.4240 -1.5257 -0.5486
12210TIP3    H258046   3.947   1.917  13.467 -0.2634  1.3435  0.0098
12211TIP3   OH258047   5.263   3.284   5.612  0.1577 -0.1229 -0.0568
12211TIP3    H158048   5.325   3.353   5.633  1.2657 -1.0758 -0.0886
12211TIP3    H258049   5.251   3.237   5.695 -0.8612  0.2965  0.0516
12212TIP3   OH258050   5.583   5.429   1.532 -0.4639  0.1464 -0.0541
12212TIP3    H158051   5.598   5.498   1.467 -0.9587  1.1991  0.9171
12212TIP3    H258052   5.522   5.368   1.489  2.2867 -1.3968 -2.0735
12213TIP3   OH258053   5.710   1.935   4.741 -0.4346  0.0103 -0.0980
12213TIP3    H158054   5.700   1.851   4.695 -1.0528  0.0239  0.0038
12213TIP3    H258055   5.715   2.000   4.671  1.4656 -0.2174 -0.2426
12214TIP3   OH258056   5.988   2.223  11.383 -0.1533  0.6614 -0.1281
12214TIP3    H158057   6.049   2.287  11.345 -1.0723  1.3067 -0.5463
12214TIP3    H258058   5.996   2.146  11.327  0.1543  0.7960 -0.2753
12215TIP3   OH258059   4.920   6.678   5.713  0.5544  0.3377 -0.3575
12215TIP3    H158060   4.987   6.734   5.752 -0.2953  0.4276  1.0261
12215TIP3    H258061   4.849   6.737   5.692 -0.5603 -0.2335  1.5838
12216TIP3   OH258062   6.031   1.499  16.849 -0.7311 -0.0461  0.3657
12216TIP3    H158063   6.023   1.507  16.754 -0.5751  0.3376  0.3842
12216TIP3    H258064   6.023   1.405  16.865 -0.3252 -0.1623 -0.0698
12217TIP3   OH258065   1.190   2.800   0.042  0.2479  0.2733 -0.1145
12217TIP3    H158066   1.203   2.868   0.108 -0.5291  0.6396 -0.3251
12217TIP3    H258067   1.250   2.824  -0.029  1.5639 -0.4839  0.7088
12218TIP3   OH258068   0.071   4.015  14.008 -0.1579  0.4316  0.2187
12218TIP3    H158069   0.116   3.932  13.991 -0.1105  0.5645 -0.3349
12218TIP3    H258070   0.129   4.082  13.972  0.2743  0.7968  1.5463
12219TIP3   OH258071   2.884   5.165   4.768 -0.6376 -0.3657 -0.0658
12219TIP3    H158072   2.946   5.134   4.703 -0.4132  0.3885 -0.2163
12219TIP3    H258073   2.867   5.089   4.824  1.6480 -0.1905  0.9746
12220TIP3   OH258074   6.459   1.425   4.808  0.3672 -0.4370  0.7117
12220TIP3    H158075   6.369   1.456   4.804  0.6016  0.1356 -1.0205
12220TIP3    H258076   6.451   1.329   4.805 -0.1979 -0.4150  1.3225
12221TIP3   OH258077   1.840   4.494   0.292 -0.4924  0.2077 -0.0922
12221TIP3    H158078   1.767   4.504   0.230 -1.3897  0.6332  1.0021
12221TIP3    H258079   1.915   4.530   0.245 -1.1057  0.3564 -1.0029
12222TIP3   OH258080   3.347   0.665   5.550  0.3697  0.0405 -0.1610
12222TIP3    H158081   3.278   0.619   5.598  1.1863 -1.4959 -0.4134
12222TIP3    H258082   3.361   0.613   5.471  0.8884  1.0703 -0.7644
12223TIP3   OH258083   2.385   0.872   3.964 -0.2922  0.1833 -0.1005
12223TIP3    H158084   2.470   0.900   3.997 -0.3038 -0.9395  0.9185
12223TIP3    H258085   2.377   0.915   3.878 -0.3441  3.3312  1.3472
12224TIP3   OH258086   2.299   6.162   2.163  0.6094  0.3588  0.3252
12224TIP3    H158087   2.359   6.192   2.231  0.8140  1.6614 -0.3892
12224TIP3    H258088   2.212   6.184   2.196  0.8184  4.3130 -1.2065
12225TIP3   OH258089   6.765   4.846   4.036 -0.5456 -0.1444  0.8321
12225TIP3    H158090   6.846   4.877   4.076 -1.2461  1.5279  1.0226
12225TIP3    H258091   6.727   4.788   4.102 -0.5146  0.7099  1.6172
12226TIP3   OH258092   5.836   6.560   0.089  0.4602  0.1338 -0.3487
12226TIP3    H158093   5.811   6.505   0.015  0.9438  0.0026 -0.4209
12226TIP3    H258094   5.782   6.528   0.161  0.3876 -0.1139 -0.5087
12227TIP3   OH258095   4.801   4.530   2.611 -0.2078 -0.0557  0.2551
12227TIP3    H158096   4.861   4.456   2.613  0.1986  0.2886  0.9520
12227TIP3    H258097   4.733   4.504   2.550  0.0568 -0.9111  0.3203
12228TIP3   OH258098   3.582   4.988  13.218  0.1904  0.1222 -0.0126
12228TIP3    H158099   3.621   5.075  13.219 -0.1512  0.3344  2.6759
12228TIP3    H258100   3.656   4.928  13.204  1.1433  0.6708  2.2534
12229TIP3   OH258101   1.911   0.780  11.654  0.1225 -0.1326 -0.7132
12229TIP3    H158102   1.822   0.764  11.685 -0.1430 -2.8277 -2.5046
12229TIP3    H258103   1.900   0.838  11.578 -0.1253 -0.5308 -0.9835
12230TIP3   OH258104   6.104   5.522   4.719 -0.0825  0.2286  0.2145
12230TIP3    H158105   6.111   5.601   4.773 -0.3467 -0.0964  0.7344
12230TIP3    H258106   6.190   5.480   4.725  0.7747  1.5276 -1.7613
12231TIP3   OH258107   6.360   2.550   0.230 -0.2122 -0.0044  0.4340
12231TIP3    H158108   6.288   2.608   0.202  0.4591  0.4277 -0.4319
12231TIP3    H258109   6.331   2.516   0.315 -1.1491  0.6796  0.4082
12232TIP3   OH258110   1.415   0.521  11.390  0.1056 -0.3439 -0.0664
12232TIP3    H158111   1.433   0.543  11.481 -0.0719 -0.9040  0.1104
12232TIP3    H258112   1.400   0.426  11.391 -2.1190 -0.0624 -0.2864
12233TIP3   OH258113   0.229   5.487   2.015  0.3639  0.1212 -0.4510
12233TIP3    H158114   0.194   5.525   2.096 -1.4382 -1.1173 -0.6008
12233TIP3    H258115   0.291   5.420   2.045  1.2172  1.0206 -0.1520
12234TIP3   OH258116   3.217   3.312  14.139  0.2716 -0.1610 -0.1336
12234TIP3    H158117   3.215   3.276  14.228 -0.7289 -0.4336 -0.2457
12234TIP3    H258118   3.292   3.371  14.138  0.8743 -0.8943  0.5992
12235TIP3   OH258119   1.143   4.867   4.641  0.5295  0.5478  0.9399
12235TIP3    H158120   1.060   4.872   4.593  1.0573 -0.8776 -0.1942
12235TIP3    H258121   1.210   4.883   4.575  1.2458 -0.7661  1.3026
12236TIP3   OH258122   2.320   5.054   1.111  0.3209  0.3147  0.0021
12236TIP3    H158123   2.397   5.033   1.163  0.8614  1.6395 -0.2134
12236TIP3    H258124   2.355   5.092   1.030 -0.5113 -1.4879 -1.2586
12237TIP3   OH258125   0.959   1.408   1.229 -0.3827 -0.0233 -0.2055
12237TIP3    H158126   1.032   1.409   1.291 -1.1732 -1.7311  0.8246
12237TIP3    H258127   0.884   1.441   1.279 -0.7660 -0.2788 -0.5950
12238TIP3   OH258128   4.955   3.884   3.582 -0.5738  0.3253  0.0538
12238TIP3    H158129   4.994   3.936   3.652  0.0894  0.2494 -0.2570
12238TIP3    H258130   5.029   3.838   3.542 -0.9360  0.4305 -0.7488
12239TIP3   OH258131   4.010   5.221  11.952  0.3679 -0.4966 -0.0826
12239TIP3    H158132   3.956   5.252  11.880  0.9870  1.0493  0.0711
12239TIP3    H258133   4.044   5.137  11.922 -0.0186 -0.2536 -1.2681
12240TIP3   OH258134   5.206   1.278  11.394 -0.0711 -0.5921  0.0800
12240TIP3    H158135   5.150   1.223  11.448 -0.6604 -0.6077 -0.5361
12240TIP3    H258136   5.211   1.233  11.310 -0.5177  0.2579 -0.4141
12241TIP3   OH258137   2.842   4.886  12.863 -0.0138  1.0329  0.8577
12241TIP3    H158138   2.786   4.963  12.873 -0.2684  1.2330 -1.4632
12241TIP3    H258139   2.931   4.920  12.871  0.0687  2.3386 -3.0616
12242TIP3   OH258140   6.697   3.191   5.357  0.3218  0.7977 -0.1092
12242TIP3    H158141   6.716   3.107   5.314  2.7732  0.9291  0.5477
12242TIP3    H258142   6.779   3.240   5.350  0.0364  1.8025  2.5013
12243TIP3   OH258143   1.961   5.072   2.813 -0.1013  0.4983 -0.5949
12243TIP3    H158144   1.867   5.058   2.799 -0.0765  1.1733 -1.5548
12243TIP3    H258145   1.966   5.147   2.872 -0.1731  0.7725 -0.9306
12244TIP3   OH258146   5.593   0.683   3.938 -0.6309  0.2607  0.5799
12244TIP3    H158147   5.500   0.685   3.913  0.1395 -1.1300 -2.9243
12244TIP3    H258148   5.640   0.665   3.857  2.5500 -1.6403  2.6017
12245TIP3   OH258149   1.249   0.141  14.423  0.0612 -0.0965  0.6089
12245TIP3    H158150   1.233   0.048  14.405 -1.8105  0.0040  1.4507
12245TIP3    H258151   1.181   0.187  14.374  2.1043  1.0391 -1.3355
12246TIP3   OH258152   6.656   4.042   2.273 -0.3428  0.0157  0.2941
12246TIP3    H158153   6.640   3.989   2.195  0.6784  1.6128 -1.0720
12246TIP3    H258154   6.578   4.095   2.282 -0.7524 -0.6554  0.7955
12247TIP3   OH258155   2.156   4.176  10.929 -0.2212 -0.4194  0.1613
12247TIP3    H158156   2.220   4.236  10.966 -0.4470 -0.5127  0.7132
12247TIP3    H258157   2.108   4.229  10.865 -1.4427  0.4358  1.7285
12248TIP3   OH258158   0.999   4.893   2.368 -0.6806 -0.0585  0.0564
12248TIP3    H158159   1.089   4.912   2.341 -0.9556  0.3082 -0.6302
12248TIP3    H258160   1.007   4.866   2.460  0.3042 -1.4445 -0.3970
12249TIP3   OH258161   2.481   3.313  16.600 -0.2935 -0.5749  0.1777
12249TIP3    H158162   2.547   3.307  16.531 -1.1544  0.7673 -0.7776
12249TIP3    H258163   2.520   3.263  16.673  1.6509 -0.0720 -0.4469
12250TIP3   OH258164   0.308   4.569  14.465 -0.0577  0.8342 -0.4118
12250TIP3    H158165   0.272   4.493  14.511  0.2910  0.9245  0.0110
12250TIP3    H258166   0.279   4.557  14.374 -2.6786  1.7824  0.1860
12251TIP3   OH258167   5.475   1.685  12.381 -0.4490  0.0861  0.3283
12251TIP3    H158168   5.493   1.755  12.318 -1.2994  1.6497  1.7284
12251TIP3    H258169   5.402   1.636  12.342  0.4327 -0.3332 -0.8701
12252TIP3   OH258170   1.409   1.332  15.944 -0.6453  0.0553 -0.0211
12252TIP3    H158171   1.380   1.275  15.872  1.3265 -0.6951 -0.2897
12252TIP3    H258172   1.382   1.285  16.023 -1.2506 -0.0033 -0.2554
12253TIP3   OH258173   0.512   2.507  14.810 -0.0573  0.6387  0.3374
12253TIP3    H158174   0.491   2.596  14.836 -0.4441  0.6959 -0.1526
12253TIP3    H258175   0.427   2.463  14.803  0.1749  0.0075  1.3381
12254TIP3   OH258176   6.551   3.333  12.698 -0.0849 -0.0069 -0.0446
12254TIP3    H158177   6.532   3.281  12.776  3.2288 -0.2105  0.7734
12254TIP3    H258178   6.606   3.405  12.731  0.2416  0.6957 -2.0054
12255TIP3   OH258179   3.665   1.554   5.192 -0.1193 -0.1345  0.1285
12255TIP3    H158180   3.605   1.567   5.266 -0.6712  1.5815 -0.5555
12255TIP3    H258181   3.741   1.509   5.230 -0.1100  1.2625  1.9133
12256TIP3   OH258182   6.175   5.229  15.685  0.5504 -0.4768 -0.0338
12256TIP3    H158183   6.139   5.154  15.636 -1.4234 -0.0396  0.6302
12256TIP3    H258184   6.144   5.215  15.775  0.2717  1.0369  0.1247
12257TIP3   OH258185   0.516   2.785   3.029  0.1138 -0.0652 -0.0214
12257TIP3    H158186   0.535   2.872   2.994  1.5491 -1.1376 -2.0567
12257TIP3    H258187   0.596   2.735   3.015 -0.8284 -1.8660  0.7203
12258TIP3   OH258188   5.949   5.995  16.561  0.2684 -0.5730  0.2640
12258TIP3    H158189   6.034   5.972  16.598 -0.3189 -0.6321  1.6590
12258TIP3    H258190   5.969   6.050  16.486  1.5590 -1.3394  0.0268
12259TIP3   OH258191   1.405   5.006  13.394 -0.0388  0.0520  0.2254
12259TIP3    H158192   1.373   5.053  13.317 -0.3587  0.6895  0.7337
12259TIP3    H258193   1.426   5.075  13.458 -0.8490 -0.4848  1.1097
12260TIP3   OH258194   6.466   2.978  13.621 -0.4643  0.2057 -0.3177
12260TIP3    H158195   6.504   2.986  13.533 -1.3569 -0.8185 -0.8201
12260TIP3    H258196   6.478   2.885  13.644 -0.3523  0.4347  0.6003
12261TIP3   OH258197   3.074   1.821  14.666  0.3963  0.2742  0.1187
12261TIP3    H158198   3.002   1.761  14.684 -0.1260  1.0169  0.5405
12261TIP3    H258199   3.034   1.907  14.663  0.7223  0.4325 -2.8303
12262TIP3   OH258200   5.091   2.811  15.379 -0.7063 -1.3790  0.4440
12262TIP3    H158201   5.038   2.733  15.364 -0.8331 -1.2163  0.0311
12262TIP3    H258202   5.029   2.884  15.374 -0.2599 -1.0686 -1.4168
12263TIP3   OH258203   6.497   0.081  13.147 -0.2606 -0.1579  0.4166
12263TIP3    H158204   6.560   0.139  13.103 -0.7886  0.7839  0.8689
12263TIP3    H258205   6.439   0.052  13.077 -0.4625  0.4906  0.3090
12264TIP3   OH258206   3.575   0.721   2.482  0.4017  0.1435  0.1509
12264TIP3    H158207   3.481   0.723   2.500  0.1903  1.8881 -0.8748
12264TIP3    H258208   3.595   0.630   2.463 -1.4450  0.0013 -1.3394
12265TIP3   OH258209   0.871   4.827  14.961  0.2311 -0.5911 -0.2058
12265TIP3    H158210   0.817   4.844  15.039 -0.1719  1.2172 -0.8388
12265TIP3    H258211   0.808   4.803  14.893 -0.0369  2.4995 -1.2271
12266TIP3   OH258212   2.507   0.826  16.698 -0.4657  0.9625  0.1603
12266TIP3    H158213   2.542   0.818  16.787  1.4634  2.4522 -0.4047
12266TIP3    H258214   2.581   0.856  16.645 -1.3124 -0.7700 -2.1727
12267TIP3   OH258215   1.306   5.611  14.846 -0.1914  0.3090 -0.0157
12267TIP3    H158216   1.371   5.596  14.915 -0.8469 -0.3774  0.4697
12267TIP3    H258217   1.275   5.700  14.862 -0.8928 -0.1094  1.0779
12268TIP3   OH258218   3.118   3.937   3.409  0.2211 -0.4328  0.6896
12268TIP3    H158219   3.210   3.916   3.423  0.5321  1.6820  2.3445
12268TIP3    H258220   3.071   3.880   3.470  0.4617 -1.1274  0.2355
12269TIP3   OH258221   5.552   6.079   1.665  0.1893 -0.0469 -0.4653
12269TIP3    H158222   5.553   6.170   1.637  0.1018  0.0830 -0.0625
12269TIP3    H258223   5.597   6.080   1.750 -0.4702 -0.2549 -0.1102
12270TIP3   OH258224   1.455   6.183  15.987  0.4361 -0.0570 -0.9540
12270TIP3    H158225   1.426   6.142  15.905 -2.5270 -1.0195  0.4604
12270TIP3    H258226   1.421   6.272  15.982  2.7677  0.8740 -1.9233
12271TIP3   OH258227   4.799   3.911  12.002 -0.1543 -0.2842  0.2289
12271TIP3    H158228   4.723   3.928  11.946  0.0447  0.0441  0.0538
12271TIP3    H258229   4.870   3.963  11.963 -0.4050  1.2680  1.6940
12272TIP3   OH258230   2.637   3.012   3.380  0.0480 -0.3066  0.4368
12272TIP3    H158231   2.688   2.933   3.398  1.5657  0.2316 -1.1757
12272TIP3    H258232   2.551   2.980   3.355  1.0137 -1.5698 -1.4805
12273TIP3   OH258233   4.735   1.947  14.388 -0.2791  0.1638  0.2141
12273TIP3    H158234   4.661   1.909  14.435  0.3088 -1.6357 -0.2092
12273TIP3    H258235   4.749   2.032  14.430  0.3601 -1.3999  3.5281
12274TIP3   OH258236   3.734   4.816  12.330  0.1200 -0.3558 -0.4790
12274TIP3    H158237   3.802   4.818  12.397 -0.1776  0.6362 -0.1889
12274TIP3    H258238   3.733   4.905  12.295 -1.3109 -0.2355 -0.1805
12275TIP3   OH258239   1.283   6.070   2.623 -0.1360 -0.1255  0.1446
12275TIP3    H158240   1.306   6.161   2.602  1.0614 -0.3018  0.6111
12275TIP3    H258241   1.364   6.033   2.658 -0.7207 -1.2702  0.3077
12276TIP3   OH258242   0.944   6.315  11.055 -0.2736 -0.2754 -0.0303
12276TIP3    H158243   0.885   6.370  11.106 -0.5004 -0.3781 -0.1775
12276TIP3    H258244   0.912   6.323  10.965  0.3132  0.1589 -0.2127
12277TIP3   OH258245   5.273   3.614   2.591  0.0085 -0.2203 -0.2079
12277TIP3    H158246   5.192   3.664   2.598  0.3652  0.2409  0.7619
12277TIP3    H258247   5.257   3.553   2.519 -2.4071 -2.3224  1.8837
12278TIP3   OH258248   5.276   5.603  13.440 -0.1577  0.6101 -0.1426
12278TIP3    H158249   5.181   5.597  13.427 -0.0142  0.4297 -1.1751
12278TIP3    H258250   5.302   5.517  13.472 -0.5868  1.2062  1.9759
12279TIP3   OH258251   6.188   0.113   6.503 -0.3783  0.0993  0.0852
12279TIP3    H158252   6.127   0.186   6.514  1.0595  0.9640  3.5753
12279TIP3    H258253   6.149   0.041   6.551  1.3185  0.7891  2.7504
12280TIP3   OH258254   3.564   3.749  13.052 -0.6275 -0.2010 -0.0076
12280TIP3    H158255   3.563   3.655  13.070 -3.9266 -0.3962 -0.5211
12280TIP3    H258256   3.560   3.755  12.957 -2.7028  0.3183  0.0550
12281TIP3   OH258257   0.311   5.760  15.818 -0.6135  0.5350  0.6232
12281TIP3    H158258   0.314   5.768  15.722  2.4459  0.6055  0.6352
12281TIP3    H258259   0.360   5.680  15.836 -2.6262 -0.4344  2.1130
12282TIP3   OH258260   4.099   5.922  16.941  0.3607  0.2642 -0.1934
12282TIP3    H158261   4.017   5.958  16.976 -0.8435  0.0759 -2.6365
12282TIP3    H258262   4.093   5.828  16.959  0.0095  0.2420 -0.4115
12283TIP3   OH258263   4.556   6.688  15.601  0.7797  0.2044  0.0347
12283TIP3    H158264   4.463   6.679  15.623 -0.1664 -0.0383 -3.4216
12283TIP3    H258265   4.564   6.778  15.568  1.9630  0.4359  0.8759
12284TIP3   OH258266   0.653   5.420   4.439  0.2660 -0.4273 -0.1642
12284TIP3    H158267   0.573   5.472   4.432  1.2204  0.9364 -1.4949
12284TIP3    H258268   0.623   5.329   4.427 -1.2153 -0.0585  0.5790
12285TIP3   OH258269   3.242   5.634  11.449 -0.1781 -0.3850 -0.6391
12285TIP3    H158270   3.313   5.655  11.510  0.2429 -1.3500 -0.7797
12285TIP3    H258271   3.222   5.717  11.406 -1.1678  0.5399  1.5020
12286TIP3   OH258272   5.640   3.861  14.083  0.3566  0.2730  0.1700
12286TIP3    H158273   5.558   3.901  14.114  0.4360  0.3373  0.2933
12286TIP3    H258274   5.665   3.800  14.152 -1.2038 -2.0328 -1.1705
12287TIP3   OH258275   5.545   0.389  10.992  0.2586 -0.3162 -0.0307
12287TIP3    H158276   5.634   0.419  10.978  0.3340 -0.0305  0.9514
12287TIP3    H258277   5.492   0.469  10.992  0.2387 -0.3111  0.9913
12288TIP3   OH258278   0.633   6.242   5.342 -0.0607 -0.3147 -0.3201
12288TIP3    H158279   0.679   6.205   5.418  0.4777 -0.8342 -0.8882
12288TIP3    H258280   0.667   6.193   5.267  0.3990  1.0742 -1.0624
12289TIP3   OH258281   6.400   4.435  15.035  0.3795 -0.4545  0.2284
12289TIP3    H158282   6.379   4.382  15.112 -1.5221  2.5865  2.0347
12289TIP3    H258283   6.386   4.526  15.064  1.4273  0.9746 -3.2015
12290TIP3   OH258284   0.049   2.639   2.825 -0.1096 -0.3720 -0.4668
12290TIP3    H158285   0.136   2.677   2.821  0.4806 -1.5882  0.2951
12290TIP3    H258286   0.031   2.630   2.919 -0.8995 -0.4985 -0.6180
12291TIP3   OH258287   3.667   4.743  13.834 -0.2193  0.0820 -0.4168
12291TIP3    H158288   3.675   4.818  13.892 -0.3301  0.3204 -0.7078
12291TIP3    H258289   3.699   4.774  13.749  2.7847 -1.0933  0.1828
12292TIP3   OH258290   3.416   0.742  10.991 -0.0806 -0.0435 -0.4302
12292TIP3    H158291   3.499   0.745  10.942  0.5441 -2.0925  0.3919
12292TIP3    H258292   3.362   0.680  10.942 -0.5594  0.1320 -0.1225
12293TIP3   OH258293   4.144   0.847   2.862 -0.2340  0.4913 -0.9763
12293TIP3    H158294   4.146   0.881   2.773  1.3411  1.0203 -0.7748
12293TIP3    H258295   4.197   0.909   2.912  2.2288 -1.8486 -0.4618
12294TIP3   OH258296   5.679   3.392   3.597  0.1327  0.5495 -0.0621
12294TIP3    H158297   5.751   3.448   3.568 -1.1378  2.4329  0.2185
12294TIP3    H258298   5.614   3.453   3.632  0.2270 -1.3065  3.9140
12295TIP3   OH258299   6.591   5.724  11.960 -0.4092  0.3354  0.2569
12295TIP3    H158300   6.506   5.684  11.975  1.6284 -3.8728  2.1877
12295TIP3    H258301   6.629   5.675  11.888  1.1412  0.7881  0.7250
12296TIP3   OH258302   2.337   6.598  13.670  0.2755 -0.0437 -0.4285
12296TIP3    H158303   2.365   6.659  13.739 -1.4961  0.8804 -0.4728
12296TIP3    H258304   2.312   6.654  13.597 -0.6949 -0.8499 -0.7383
12297TIP3   OH258305   5.485   0.270  12.213 -0.3159 -0.4961 -0.5960
12297TIP3    H158306   5.505   0.363  12.222 -0.6032 -0.5425  0.7979
12297TIP3    H258307   5.566   0.230  12.182  0.3254 -0.0098  0.4248
12298TIP3   OH258308   4.192   2.454  11.803 -0.3676  0.7510 -0.4071
12298TIP3    H158309   4.255   2.391  11.838 -1.0445 -0.3311 -1.0810
12298TIP3    H258310   4.116   2.402  11.779 -0.8897  1.8027 -1.1413
12299TIP3   OH258311   3.686   4.155   3.706 -0.6422 -0.3893 -0.4140
12299TIP3    H158312   3.746   4.129   3.775 -0.7206  0.4947  0.0076
12299TIP3    H258313   3.662   4.245   3.728 -2.0644 -0.6906 -0.6124
12300TIP3   OH258314   4.131   3.006  12.974 -0.4863  0.1353  0.0094
12300TIP3    H158315   4.046   3.019  12.931 -0.0887  1.2004 -0.4836
12300TIP3    H258316   4.141   2.911  12.978 -1.7244 -0.0167  0.1280
12301TIP3   OH258317   4.744   5.617   0.816  0.0794 -0.2190  0.0132
12301TIP3    H158318   4.816   5.675   0.790  0.7615 -2.0924 -2.7603
12301TIP3    H258319   4.787   5.538   0.847 -0.7614 -0.9592 -0.6549
12302TIP3   OH258320   3.688   4.308   2.778 -0.4480 -0.2673  0.5244
12302TIP3    H158321   3.727   4.335   2.861  0.4160 -0.5444  0.2189
12302TIP3    H258322   3.603   4.273   2.802 -0.6548  0.6342  1.1709
12303TIP3   OH258323   6.196   0.479   1.747  0.0022 -0.1262 -0.1125
12303TIP3    H158324   6.162   0.515   1.829  0.8850 -0.4183  0.3986
12303TIP3    H258325   6.124   0.490   1.685  0.4442  3.2528 -0.2356
12304TIP3   OH258326   0.622   5.947  13.164  0.0649  0.5975 -0.5167
12304TIP3    H158327   0.673   5.875  13.126  0.3058  0.9276 -0.8233
12304TIP3    H258328   0.640   5.942  13.258 -1.0504 -0.6363 -0.3404
12305TIP3   OH258329   6.136   0.276   4.898  0.0758  0.3697 -0.5718
12305TIP3    H158330   6.068   0.208   4.902  1.2333 -0.9264 -1.8647
12305TIP3    H258331   6.176   0.275   4.985 -0.7995  0.3756 -0.1479
12306TIP3   OH258332   2.248   2.067  12.584 -0.1469  0.0289  0.2681
12306TIP3    H158333   2.199   2.060  12.666  2.4390 -2.6902  1.7540
12306TIP3    H258334   2.315   2.133  12.601 -1.3394  1.5785 -0.7490
12307TIP3   OH258335   0.087   5.407   5.158 -0.4603  0.7226 -0.0784
12307TIP3    H158336   0.073   5.466   5.083 -1.6040  0.4896 -0.0705
12307TIP3    H258337   0.106   5.466   5.231  0.4246  0.9672 -0.4916
12308TIP3   OH258338   0.106   6.057  12.153  0.1145 -0.2488  0.0668
12308TIP3    H158339   0.118   5.993  12.223  0.8313 -0.2639 -0.0576
12308TIP3    H258340   0.185   6.048  12.099 -0.0976  0.2575 -0.3357
12309TIP3   OH258341   4.845   0.919  10.638  0.3527  0.5456 -0.2972
12309TIP3    H158342   4.754   0.895  10.617  0.3067 -1.6427  1.8981
12309TIP3    H258343   4.894   0.837  10.629  2.4034  1.8811 -2.4061
12310TIP3   OH258344   3.217   6.193  13.455  0.5135 -0.0701  0.1776
12310TIP3    H158345   3.135   6.176  13.502  1.3413 -0.0813  1.6925
12310TIP3    H258346   3.238   6.110  13.413 -0.0328 -0.1937  0.1405
12311TIP3   OH258347   4.200   4.790   1.147  0.2116 -0.1358  0.9866
12311TIP3    H158348   4.259   4.767   1.074 -1.2037 -0.8391  0.0187
12311TIP3    H258349   4.193   4.709   1.198 -2.1770 -1.0361 -0.5760
12312TIP3   OH258350   2.176   2.090   0.465  0.1785 -0.0624 -0.0315
12312TIP3    H158351   2.270   2.105   0.471  0.1126  1.0567 -1.2804
12312TIP3    H258352   2.163   2.056   0.377 -0.7500  1.5603 -0.5774
12313TIP3   OH258353   4.476   2.199  15.259  0.0387  0.6604 -0.4712
12313TIP3    H158354   4.530   2.275  15.280  2.9488 -1.3386  0.0294
12313TIP3    H258355   4.415   2.191  15.333  2.6053  0.1606  1.7854
12314TIP3   OH258356   3.188   4.080   0.401 -0.3264  0.1150  0.3851
12314TIP3    H158357   3.158   4.001   0.356 -0.6337  0.0619  0.6855
12314TIP3    H258358   3.121   4.098   0.467 -0.9215  1.3410 -0.5013
12315TIP3   OH258359   3.605   2.944  12.062  0.6816 -0.5000  0.2846
12315TIP3    H158360   3.683   2.889  12.062  1.2689  0.3020  1.1563
12315TIP3    H258361   3.615   3.001  11.986  0.3276 -1.2206 -0.3147
12316TIP3   OH258362   2.929   3.833   4.222  0.0385 -0.6341  0.3256
12316TIP3    H158363   2.963   3.895   4.159 -0.4690 -0.3632  0.3116
12316TIP3    H258364   2.944   3.873   4.308 -1.0067 -0.1138  0.2818
12317TIP3   OH258365   2.628   2.152  15.521 -0.2887  0.0965  0.0029
12317TIP3    H158366   2.713   2.195  15.531 -1.4373  2.4510  0.5671
12317TIP3    H258367   2.565   2.217  15.553 -2.4444 -0.9227 -1.8994
12318TIP3   OH258368   5.657   3.379  15.799  0.0074  0.6482 -0.1551
12318TIP3    H158369   5.751   3.363  15.790  0.1982  0.1159  2.0193
12318TIP3    H258370   5.618   3.292  15.807 -0.0831  0.8432  2.8882
12319TIP3   OH258371   2.987   5.437  10.966 -0.2760 -0.3712 -0.5592
12319TIP3    H158372   3.057   5.467  10.908  0.1182 -1.0174 -0.4318
12319TIP3    H258373   2.908   5.441  10.912 -0.6425  2.7817  0.0159
12320TIP3   OH258374   3.530   4.318   1.751 -0.2736 -0.0190 -0.0217
12320TIP3    H158375   3.491   4.250   1.695  2.0748 -1.1522 -0.3959
12320TIP3    H258376   3.607   4.348   1.702  1.2510 -0.2950  2.1034
12321TIP3   OH258377   1.983   3.290   2.229 -0.2965  0.1462 -0.2826
12321TIP3    H158378   1.975   3.197   2.205  2.0027  0.1410 -1.2916
12321TIP3    H258379   1.995   3.336   2.146  0.5431  1.0876  0.3389
12322TIP3   OH258380   3.681   3.724  14.707 -0.3338  0.2699 -0.0852
12322TIP3    H158381   3.709   3.688  14.623  2.3416  0.1810  0.7314
12322TIP3    H258382   3.650   3.812  14.687  0.7468  0.4373 -1.1146
12323TIP3   OH258383   1.324   0.787  17.034 -0.0945 -0.0872  1.0189
12323TIP3    H158384   1.294   0.872  17.003  0.0929 -1.0922 -2.2001
12323TIP3    H258385   1.251   0.728  17.020  0.8266 -1.0708  0.2233
12324TIP3   OH258386   3.061   6.342  12.202 -0.4892  0.9800  0.5702
12324TIP3    H158387   3.040   6.345  12.108 -1.8112  0.1855  0.8277
12324TIP3    H258388   3.022   6.261  12.233 -0.8742  1.6847  2.0039
12325TIP3   OH258389   3.556   2.040   0.861 -0.4016  0.4119 -0.4634
12325TIP3    H158390   3.479   1.996   0.898  0.9984 -2.4931 -0.6389
12325TIP3    H258391   3.570   1.998   0.776  1.8495  0.1521 -0.0424
12326TIP3   OH258392   2.819   5.871  12.484  0.5436 -0.0192  0.7534
12326TIP3    H158393   2.909   5.844  12.462  0.2017 -0.0606 -0.6287
12326TIP3    H258394   2.767   5.792  12.472  0.2426  0.1124  1.1632
12327TIP3   OH258395   3.763   2.559  16.926 -0.0728 -0.3098  0.5094
12327TIP3    H158396   3.851   2.591  16.905 -0.9665  1.7213 -0.3795
12327TIP3    H258397   3.758   2.474  16.881  0.8115  0.3861 -1.0155
12328TIP3   OH258398   4.620   2.636   5.089 -0.2258 -0.0714 -0.3431
12328TIP3    H158399   4.607   2.693   5.165 -1.1600  0.1033 -0.6269
12328TIP3    H258400   4.551   2.570   5.097  2.2074 -2.6773  1.3084
12329TIP3   OH258401   0.133   3.968  14.996  0.0695 -0.0321 -0.2681
12329TIP3    H158402   0.098   4.004  15.077 -0.8263  0.6813 -0.9405
12329TIP3    H258403   0.210   4.020  14.977  0.4943 -0.4426  0.3051
12330TIP3   OH258404   4.489   1.882  15.441 -0.2165  0.0852 -0.1595
12330TIP3    H158405   4.459   1.956  15.388 -0.3655  0.7307  0.8015
12330TIP3    H258406   4.409   1.850  15.484 -0.0422 -0.2210 -0.0647
12331TIP3   OH258407   0.528   2.127   6.506  0.1033 -0.7519 -0.3749
12331TIP3    H158408   0.533   2.032   6.509  0.5391 -0.7245 -0.1892
12331TIP3    H258409   0.440   2.147   6.539  0.3850 -1.0466  0.5946
12332TIP3   OH258410   4.942   0.287   4.494  0.1453  0.3334  0.2934
12332TIP3    H158411   4.914   0.273   4.584 -0.3133 -0.0403  0.0989
12332TIP3    H258412   4.906   0.212   4.446 -0.6548  1.1564 -0.4245
12333TIP3   OH258413   6.336   6.654  11.534 -0.6418  0.1602 -0.0506
12333TIP3    H158414   6.249   6.690  11.515 -1.4605 -1.0805  1.1659
12333TIP3    H258415   6.320   6.584  11.597  1.3870  0.8084  1.2932
12334TIP3   OH258416   3.316   6.643   0.453 -0.0546 -0.7819  0.1310
12334TIP3    H158417   3.227   6.678   0.463  0.2806  0.7903 -1.7328
12334TIP3    H258418   3.305   6.565   0.400 -0.4451 -1.5605  1.3013
12335TIP3   OH258419   2.936   4.914  11.721  0.0259 -0.3853 -0.2355
12335TIP3    H158420   3.013   4.967  11.699 -0.6411  0.3043 -0.9687
12335TIP3    H258421   2.868   4.943  11.660 -0.6723 -1.3515  0.0533
12336TIP3   OH258422   0.530   0.483  11.680 -0.4341  0.0129  0.1213
12336TIP3    H158423   0.555   0.575  11.681 -1.5349  0.3474 -0.9025
12336TIP3    H258424   0.567   0.447  11.760 -1.2105  1.6723  1.2851
12337TIP3   OH258425   0.945   5.754  15.997 -0.0336 -0.4753  0.2849
12337TIP3    H158426   0.894   5.767  15.917  0.3936 -1.9989 -0.2619
12337TIP3    H258427   1.033   5.782  15.975 -0.5868  2.3415  1.2892
12338TIP3   OH258428   1.010   2.180   2.291  0.5660  0.2922  0.3996
12338TIP3    H158429   0.928   2.134   2.272  0.9298 -0.6058  0.9342
12338TIP3    H258430   1.023   2.168   2.385  1.9582 -0.6912  0.1209
12339TIP3   OH258431   1.484   1.170   4.538 -0.2352  0.1870 -0.0435
12339TIP3    H158432   1.465   1.131   4.623  0.0688 -0.8659 -0.4458
12339TIP3    H258433   1.407   1.152   4.484 -0.0013 -0.0685 -0.2984
12340TIP3   OH258434   5.009   6.491   1.430 -0.2821 -0.4052  0.0849
12340TIP3    H158435   4.938   6.499   1.368 -0.6826  1.2628  0.7007
12340TIP3    H258436   5.065   6.422   1.394 -0.7047  0.2197 -1.8853
12341TIP3   OH258437   5.150   6.260   6.549  0.1510  0.3396 -0.0042
12341TIP3    H158438   5.191   6.175   6.565 -1.4722 -0.1721  1.8016
12341TIP3    H258439   5.219   6.324   6.567  0.6377 -0.5363  1.3710
12342TIP3   OH258440   0.393   6.303  15.951 -0.0266 -0.8686  0.3266
12342TIP3    H158441   0.333   6.308  15.877  0.6594 -0.6078 -0.2162
12342TIP3    H258442   0.359   6.231  16.005 -1.9858  0.5185  1.0665
12343TIP3   OH258443   0.126   5.084  16.285  0.5354 -0.5337  0.1929
12343TIP3    H158444   0.084   5.071  16.200 -1.1741 -0.0529  0.9209
12343TIP3    H258445   0.216   5.109  16.264  0.1287 -0.3563 -1.4702
12344TIP3   OH258446   2.139   6.557   2.517 -0.0775 -0.3290 -0.3194
12344TIP3    H158447   2.061   6.610   2.531 -0.0662 -0.5527  0.6795
12344TIP3    H258448   2.127   6.481   2.574  0.9695 -0.2508  0.0377
12345TIP3   OH258449   5.128   1.332  16.979  0.8864  0.1546  0.3228
12345TIP3    H158450   5.162   1.243  16.970  1.5232  0.3150  1.0608
12345TIP3    H258451   5.154   1.359  17.067 -0.4191  0.6021  0.5921
12346TIP3   OH258452   6.444   5.047  13.573 -0.0292 -0.5289  0.1439
12346TIP3    H158453   6.440   5.120  13.512  1.6798  0.7302  1.4451
12346TIP3    H258454   6.517   4.993  13.543 -0.1649 -0.7470  0.1996
12347TIP3   OH258455   0.515   1.073  15.881 -0.8470  0.1336  0.2721
12347TIP3    H158456   0.563   1.013  15.938 -1.7484 -1.5685 -0.6844
12347TIP3    H258457   0.472   1.134  15.942  0.9427  0.5282  1.2194
12348TIP3   OH258458   5.224   4.810   4.769 -0.3978 -0.5499 -0.1704
12348TIP3    H158459   5.194   4.722   4.747 -0.2517 -0.8191  0.6869
12348TIP3    H258460   5.313   4.799   4.801 -0.7464 -0.2279  0.9481
12349TIP3   OH258461   3.457   1.258  10.782  0.3572  0.8981  0.2375
12349TIP3    H158462   3.373   1.281  10.742 -0.6598 -1.8840  0.5129
12349TIP3    H258463   3.437   1.186  10.842  2.8106  0.7232  0.9890
12350TIP3   OH258464   6.303   6.736   5.751 -1.1286 -0.6587 -0.5492
12350TIP3    H158465   6.323   6.812   5.805 -1.4472 -0.7531 -0.2952
12350TIP3    H258466   6.214   6.710   5.777 -0.5353 -1.9335  0.3400
12351TIP3   OH258467   4.165   0.048   0.510  0.3853 -0.1620 -0.2099
12351TIP3    H158468   4.071   0.038   0.496  0.2919 -0.4000  0.5076
12351TIP3    H258469   4.197   0.090   0.431 -0.4910  0.8995 -0.0332
12352TIP3   OH258470   2.944   4.754  11.090 -0.3818 -0.8926 -0.3567
12352TIP3    H158471   2.893   4.742  11.010  0.9650  0.0548 -1.4300
12352TIP3    H258472   3.035   4.756  11.059  0.1213  0.3268  1.0894
12353TIP3   OH258473   1.446   4.496   2.455  0.2780 -0.3923  0.3308
12353TIP3    H158474   1.506   4.567   2.477  0.2765 -0.8006  1.7459
12353TIP3    H258475   1.363   4.521   2.495  0.2350 -1.1099  0.7076
12354TIP3   OH258476   4.392   0.597  11.387  0.5025 -0.0138  0.4566
12354TIP3    H158477   4.475   0.582  11.433 -0.2294 -0.0332  1.8150
12354TIP3    H258478   4.336   0.638  11.452 -0.9296 -1.0295 -0.0972
12355TIP3   OH258479   6.057   5.424   3.132  0.2552  0.1947  0.0020
12355TIP3    H158480   5.964   5.443   3.119  0.3358  0.6722  0.1095
12355TIP3    H258481   6.074   5.347   3.077  0.2216  1.2285 -1.5324
12356TIP3   OH258482   2.329   6.054  11.968  0.1575  0.1127 -0.4248
12356TIP3    H158483   2.239   6.084  11.963 -0.2817 -1.3432 -3.2669
12356TIP3    H258484   2.368   6.082  11.885  1.4573 -1.7564 -0.5058
12357TIP3   OH258485   3.353   3.924  13.880 -0.5912  0.1321 -0.8998
12357TIP3    H158486   3.442   3.961  13.884 -0.6362  0.2048  2.0332
12357TIP3    H258487   3.307   3.965  13.953 -2.9520 -0.2393 -2.0801
12358TIP3   OH258488   2.687   3.935  17.133  0.0567  0.7100 -0.3393
12358TIP3    H158489   2.630   3.993  17.082 -1.9601 -0.7877  0.0672
12358TIP3    H258490   2.642   3.850  17.131  2.4722 -0.6393 -0.2027
12359TIP3   OH258491   5.583   4.452  17.049  0.5090  0.0363  0.1825
12359TIP3    H158492   5.647   4.393  17.011  2.2866  1.2203  1.1826
12359TIP3    H258493   5.633   4.529  17.075 -1.7780  2.3214 -1.6393
12360TIP3   OH258494   0.655   0.059   4.913 -0.0416  0.1668  0.5197
12360TIP3    H158495   0.636   0.101   4.997 -2.5569  0.4182 -0.0942
12360TIP3    H258496   0.571   0.025   4.883  0.9069 -0.5298 -1.5887
12361TIP3   OH258497   2.159   2.506  14.790  0.3894  0.3947 -0.6542
12361TIP3    H158498   2.138   2.473  14.703  0.0426  1.2711 -0.9195
12361TIP3    H258499   2.228   2.448  14.823  0.6643  0.1775 -1.5942
12362TIP3   OH258500   2.478   2.387  15.564 -0.1791 -0.0432  0.7009
12362TIP3    H158501   2.488   2.443  15.641  3.0571  0.4523  0.0793
12362TIP3    H258502   2.411   2.430  15.511 -0.2037  1.3591  1.8089
12363TIP3   OH258503   1.611   5.176  16.841 -0.3084 -0.0304  0.0761
12363TIP3    H158504   1.598   5.085  16.870  1.2385 -0.8124 -1.4468
12363TIP3    H258505   1.635   5.167  16.748 -1.5713  2.0580 -0.5105
12364TIP3   OH258506   5.547   1.272   4.355  0.8685 -0.3914  0.5391
12364TIP3    H158507   5.558   1.246   4.447 -0.9124  0.0205  0.9045
12364TIP3    H258508   5.557   1.367   4.356 -2.6756  0.1342  1.0276
12365TIP3   OH258509   0.681   6.727  16.626  0.5622  0.3870  0.3997
12365TIP3    H158510   0.637   6.646  16.600  0.7087 -0.0929  1.5875
12365TIP3    H258511   0.724   6.758  16.546 -0.1133 -0.3071 -0.2406
12366TIP3   OH258512   1.015   1.963   0.328  0.3052 -0.6942 -1.2968
12366TIP3    H158513   0.960   2.040   0.339 -0.6352 -1.1677 -2.4524
12366TIP3    H258514   1.031   1.932   0.417  0.1489  0.4531 -0.8569
12367TIP3   OH258515   2.842   2.717   2.645 -0.7246 -0.2070  0.5694
12367TIP3    H158516   2.885   2.774   2.708 -0.5498 -0.9901  1.1782
12367TIP3    H258517   2.799   2.650   2.698 -2.0785  0.1161 -0.0577
12368TIP3   OH258518   5.215   3.509  11.051 -0.0459  0.1756 -0.0836
12368TIP3    H158519   5.271   3.561  10.994 -1.2767  1.7553  0.0849
12368TIP3    H258520   5.134   3.496  11.002 -1.0354  1.3490  1.1553
12369TIP3   OH258521   3.768   6.154   4.959  0.1075  0.0663  0.2075
12369TIP3    H158522   3.797   6.245   4.965  0.0435 -0.0018  2.4234
12369TIP3    H258523   3.674   6.159   4.941  0.1919  0.4292 -0.1284
12370TIP3   OH258524   0.260   2.820   0.417  0.0166 -0.0907  0.6797
12370TIP3    H158525   0.202   2.859   0.352 -1.4761 -2.6990  0.2927
12370TIP3    H258526   0.338   2.875   0.415 -2.0585  3.1147  0.6488
12371TIP3   OH258527   5.534   4.564  15.003 -0.0626  0.2834  0.0058
12371TIP3    H158528   5.484   4.483  14.996  0.6895 -0.1532 -0.4928
12371TIP3    H258529   5.473   4.633  14.977 -1.1422  0.0605  1.7963
12372TIP3   OH258530   3.085   5.627   2.804  0.3555 -0.3269 -0.4523
12372TIP3    H158531   3.071   5.557   2.868  2.6451 -0.0772  0.3946
12372TIP3    H258532   3.169   5.667   2.829 -0.3358  2.0302 -1.5511
12373TIP3   OH258533   5.504   0.411   0.756 -0.1491  0.2640  0.4655
12373TIP3    H158534   5.574   0.430   0.694 -0.5390  1.3144  0.3256
12373TIP3    H258535   5.424   0.441   0.712 -0.5397  0.1838  1.1085
12374TIP3   OH258536   2.853   3.919  15.074 -0.2146 -0.2009  0.6260
12374TIP3    H158537   2.898   3.838  15.050 -1.1094 -0.3302 -0.7731
12374TIP3    H258538   2.803   3.897  15.153  0.1806 -0.7823  0.7138
12375TIP3   OH258539   5.673   3.141   1.652  0.3799 -0.4562 -0.4588
12375TIP3    H158540   5.757   3.151   1.697  0.2749  1.8167 -0.6890
12375TIP3    H258541   5.609   3.139   1.722  0.5008 -0.9378 -0.3516
12376TIP3   OH258542   5.677   4.879  10.921 -0.2316  0.4648  0.2477
12376TIP3    H158543   5.609   4.945  10.926 -3.4583 -2.4185 -1.2305
12376TIP3    H258544   5.720   4.896  10.837 -1.0759  0.7000 -0.1530
12377TIP3   OH258545   4.767   6.559  10.749 -0.6381  0.5426 -0.5346
12377TIP3    H158546   4.776   6.638  10.696  1.6414  0.1111 -0.8749
12377TIP3    H258547   4.854   6.543  10.783 -0.4323 -3.1090 -2.3234
12378TIP3   OH258548   2.897   1.326  11.864  0.0857  0.3232  0.3302
12378TIP3    H158549   2.814   1.337  11.819  0.8053  2.3959 -0.6288
12378TIP3    H258550   2.927   1.416  11.881  2.0177 -0.3595  0.8308
12379TIP3   OH258551   4.450   0.457   0.417 -0.3447 -0.8143  0.0934
12379TIP3    H158552   4.399   0.521   0.467 -1.3756 -1.8800  0.4323
12379TIP3    H258553   4.539   0.465   0.454 -0.6108 -0.0759  0.6069
12380TIP3   OH258554   6.400   1.625  15.177  0.1883 -0.2940  0.1945
12380TIP3    H158555   6.397   1.594  15.086  1.4081 -0.3862  0.1678
12380TIP3    H258556   6.463   1.568  15.219 -0.4605 -0.3257  1.1449
12381TIP3   OH258557   4.556   1.171  11.966 -0.2254  0.1317 -0.0046
12381TIP3    H158558   4.535   1.086  11.926  1.3358 -0.7561  0.9639
12381TIP3    H258559   4.632   1.154  12.021 -0.2036  2.0646  0.6532
12382TIP3   OH258560   6.694   4.564  17.038  0.2363  0.5550 -0.0065
12382TIP3    H158561   6.734   4.478  17.051 -2.1730 -0.3863  1.9525
12382TIP3    H258562   6.724   4.615  17.113  0.9353  1.1585 -0.6846
12383TIP3   OH258563   6.351   5.777  13.346 -0.0877 -0.1989 -0.6838
12383TIP3    H158564   6.352   5.766  13.442  0.6880 -0.5945 -0.7281
12383TIP3    H258565   6.407   5.853  13.330 -1.5854  0.9378 -0.7208
12384TIP3   OH258566   3.773   3.188  15.065  0.0248 -0.1787 -0.3337
12384TIP3    H158567   3.679   3.171  15.055 -0.6021  1.8747  1.1656
12384TIP3    H258568   3.808   3.108  15.102 -1.1343 -0.9763 -0.8781
12385TIP3   OH258569   6.635   1.526  15.329  0.3739 -0.0466  0.7066
12385TIP3    H158570   6.671   1.513  15.242 -2.1716  2.3085 -0.8484
12385TIP3    H258571   6.669   1.611  15.357  0.4608 -0.3724  1.6294
12386TIP3   OH258572   1.769   5.376  11.096  0.0897 -0.4882 -0.0271
12386TIP3    H158573   1.775   5.287  11.131 -0.0436 -0.5686 -0.2046
12386TIP3    H258574   1.734   5.365  11.008  0.1681 -0.2666 -0.0888
12387TIP3   OH258575   0.529   5.156   6.172 -0.5148  0.0085 -0.5907
12387TIP3    H158576   0.541   5.086   6.236 -1.4621  0.2005 -0.1875
12387TIP3    H258577   0.565   5.120   6.091  1.3383  0.0323  0.1905
12388TIP3   OH258578   5.169   1.859  14.866 -0.0918  0.0251 -0.0201
12388TIP3    H158579   5.225   1.795  14.824  0.4533 -0.7653  1.8124
12388TIP3    H258580   5.088   1.812  14.884 -0.7164  0.6544 -1.0516
12389TIP3   OH258581   4.579   5.932  16.481 -0.2773  0.0992  0.4654
12389TIP3    H158582   4.604   6.017  16.445  1.3578 -0.8521 -0.8032
12389TIP3    H258583   4.656   5.902  16.529 -0.5676 -0.9594  0.3029
12390TIP3   OH258584   2.350   2.393  14.958  0.4903  0.1922 -0.1673
12390TIP3    H158585   2.285   2.329  14.988 -0.4784  0.1921 -2.1393
12390TIP3    H258586   2.330   2.472  15.008  0.3848 -0.4343  0.8110
12391TIP3   OH258587   0.647   4.183  11.990  0.6682  0.0014 -0.2745
12391TIP3    H158588   0.692   4.116  12.042  0.1472  1.1382  1.7385
12391TIP3    H258589   0.637   4.143  11.904  2.3320 -1.6442  0.2196
12392TIP3   OH258590   3.279   2.421  13.027  0.5468 -0.5860  0.3490
12392TIP3    H158591   3.319   2.498  12.987  1.1677 -1.6664 -1.1878
12392TIP3    H258592   3.267   2.359  12.955  0.5338 -2.1310  1.6097
12393TIP3   OH258593   6.548   4.985   5.090 -0.1272 -0.0622 -0.1741
12393TIP3    H158594   6.533   4.915   5.026 -0.6128 -1.1314  1.0551
12393TIP3    H258595   6.558   4.939   5.173  1.6612  1.2070  0.3728
12394TIP3   OH258596   3.826   3.386  14.768  0.1729 -0.0566 -0.2716
12394TIP3    H158597   3.880   3.387  14.847  2.2863  0.7282 -1.6654
12394TIP3    H258598   3.815   3.293  14.748 -0.5121 -0.2721  0.9804
12395TIP3   OH258599   5.119   3.607   4.544  0.1081 -0.0796  0.0356
12395TIP3    H158600   5.054   3.640   4.606  1.0062  2.5078 -0.2955
12395TIP3    H258601   5.170   3.543   4.595 -0.8220  0.0483  1.1607
12396TIP3   OH258602   2.586   0.273  15.860 -0.6654 -0.6101 -0.3862
12396TIP3    H158603   2.557   0.332  15.790  0.2891 -1.3235 -1.4154
12396TIP3    H258604   2.646   0.212  15.817  1.6415  0.2154  1.4337
12397TIP3   OH258605   5.639   2.958   0.070  0.0014 -0.1996  0.2477
12397TIP3    H158606   5.720   2.908   0.058 -0.4952 -0.4014 -3.2630
12397TIP3    H258607   5.665   3.049   0.061  0.2909  0.0283  2.7065
12398TIP3   OH258608   6.536   3.009   6.501  0.2376 -0.7791 -0.5685
12398TIP3    H158609   6.541   3.102   6.523 -0.8558 -1.4267  3.0921
12398TIP3    H258610   6.624   2.986   6.471  1.1219  0.9998  0.5003
12399TIP3   OH258611   4.120   0.444  13.341  0.0559  0.6134 -0.0969
12399TIP3    H158612   4.196   0.475  13.293  1.7096  1.8969  3.0993
12399TIP3    H258613   4.140   0.352  13.361 -0.4705  0.1865 -1.4006
12400TIP3   OH258614   4.416   5.526  10.636  0.4923  0.3309 -0.3493
12400TIP3    H158615   4.362   5.596  10.674 -0.1450 -0.4592  0.2275
12400TIP3    H258616   4.409   5.539  10.541  0.0040  0.7676 -0.2567
12401TIP3   OH258617   6.552   6.710   0.534 -0.0038  0.4486  0.1559
12401TIP3    H158618   6.530   6.775   0.467 -1.6648  0.2504  0.4600
12401TIP3    H258619   6.523   6.751   0.616  1.1753  0.3140  0.6453
12402TIP3   OH258620   3.577   5.025   5.017 -0.0732 -0.1405 -0.0031
12402TIP3    H158621   3.621   5.004   4.934  2.6135  1.5926  0.8439
12402TIP3    H258622   3.597   4.950   5.074 -1.7187 -1.2187 -0.7474
12403TIP3   OH258623   5.669   0.314   4.515  0.5585  0.1526 -0.5058
12403TIP3    H158624   5.759   0.309   4.482  0.6652  0.4083 -0.2672
12403TIP3    H258625   5.638   0.400   4.488 -0.1867 -0.5378 -1.9744
12404TIP3   OH258626   4.301   2.310  14.820  0.4786  0.7084 -0.1507
12404TIP3    H158627   4.278   2.272  14.905  2.2934  1.3885  0.7112
12404TIP3    H258628   4.247   2.263  14.757  0.3868 -1.0970  1.1897
12405TIP3   OH258629   5.767   1.295   0.961  0.4449 -0.3565 -0.3845
12405TIP3    H158630   5.837   1.230   0.967  1.8375  0.9721 -1.3543
12405TIP3    H258631   5.784   1.354   1.035 -0.4147 -0.7091  0.1052
12406TIP3   OH258632   2.083   6.215   0.434 -0.4203 -0.3328 -0.1884
12406TIP3    H158633   2.126   6.148   0.381  0.2743 -0.6335  0.7444
12406TIP3    H258634   2.140   6.227   0.509 -1.2292  0.3262  0.3371
12407TIP3   OH258635   1.935   1.579   4.015 -0.0380 -0.1076 -0.2027
12407TIP3    H158636   1.875   1.625   3.957 -0.4174 -0.9574 -0.4932
12407TIP3    H258637   1.976   1.512   3.960  1.5577  0.7525 -0.1430
12408TIP3   OH258638   0.816   0.057   6.118  0.0400  0.1876  0.3356
12408TIP3    H158639   0.791  -0.013   6.058  1.8569  0.8519 -1.2955
12408TIP3    H258640   0.908   0.075   6.097  0.3132  1.4625  2.3314
12409TIP3   OH258641   3.040   3.706   1.464  0.5398  0.1350  0.2403
12409TIP3    H158642   3.013   3.738   1.550 -0.7143  3.1893 -1.1120
12409TIP3    H258643   2.969   3.648   1.437 -0.7047  1.6273  0.1006
12410TIP3   OH258644   0.100   5.613  16.973 -0.1893  0.1028 -0.4160
12410TIP3    H158645   0.009   5.595  16.999 -0.0210 -0.4195 -0.1600
12410TIP3    H258646   0.109   5.708  16.980 -0.7448  0.1657 -0.5363
12411TIP3   OH258647   1.156   6.435  15.104 -0.6958  0.1049  0.3234
12411TIP3    H158648   1.170   6.358  15.049  0.3823 -0.3683  1.2207
12411TIP3    H258649   1.061   6.436  15.119 -0.7490 -0.9324  0.1433
12412TIP3   OH258650   2.220   4.931  13.726  0.0972  0.5194 -0.1227
12412TIP3    H158651   2.192   4.934  13.634  0.8916  1.1327 -0.3548
12412TIP3    H258652   2.261   4.845  13.735 -2.4689 -0.7284  0.4314
12413TIP3   OH258653   0.258   0.737   3.411  0.3030  0.5820  0.0551
12413TIP3    H158654   0.270   0.818   3.362  1.0716  0.0172 -0.7232
12413TIP3    H258655   0.209   0.680   3.352  0.4165  0.2206  0.3023
12414TIP3   OH258656   1.918   2.081  12.219 -0.2965 -0.7609  0.3833
12414TIP3    H158657   1.939   2.050  12.308  3.9298  0.6586  0.0942
12414TIP3    H258658   1.977   2.031  12.163  0.6867  1.8123 -0.9967
12415TIP3   OH258659   4.574   6.135   3.892 -0.0602  0.2682 -0.1125
12415TIP3    H158660   4.630   6.058   3.885 -1.1795 -0.6050  0.2865
12415TIP3    H258661   4.607   6.181   3.969  0.4066  0.0112 -0.1562
12416TIP3   OH258662   5.547   5.419  15.610 -0.0943  0.4659  0.5393
12416TIP3    H158663   5.557   5.326  15.628  1.4003  0.2922 -0.8624
12416TIP3    H258664   5.633   5.457  15.632  0.2275  1.0054 -1.4656
12417TIP3   OH258665   5.116   3.556  12.673 -0.2303 -0.2551  0.0067
12417TIP3    H158666   5.113   3.520  12.585  0.7018 -0.6109  0.1153
12417TIP3    H258667   5.039   3.520  12.716 -0.0635 -1.0015 -0.3079
12418TIP3   OH258668   2.643   1.506   2.192  0.5186 -0.5485 -0.2147
12418TIP3    H158669   2.681   1.578   2.143 -1.8720  0.7886 -0.2781
12418TIP3    H258670   2.619   1.545   2.277  0.6601 -1.6970  0.3768
12419TIP3   OH258671   1.026   5.201   2.329  0.5198  0.2652 -0.8574
12419TIP3    H158672   0.952   5.178   2.273 -0.0957  0.9035 -0.3334
12419TIP3    H258673   1.099   5.214   2.269 -0.3000  1.6802 -1.6099
12420TIP3   OH258674   1.931   0.891   0.517 -0.3862  0.3536 -0.4154
12420TIP3    H158675   1.855   0.918   0.465 -0.7814  1.1906  0.5646
12420TIP3    H258676   1.922   0.939   0.600  0.4457 -0.6316  0.2701
12421TIP3   OH258677   1.207   1.132   5.768  0.3740 -0.0971  0.2381
12421TIP3    H158678   1.173   1.222   5.770  1.8563  0.5669 -1.5956
12421TIP3    H258679   1.171   1.095   5.688  0.9222 -0.6562  0.2455
12422TIP3   OH258680   1.974   1.784   4.832 -0.1257  0.3640  0.0852
12422TIP3    H158681   1.932   1.718   4.776 -2.4187  0.5491  1.4669
12422TIP3    H258682   1.915   1.859   4.830  1.4249  1.6542  0.1537
12423TIP3   OH258683   6.111   1.388   3.377  0.4977 -0.1711 -0.3585
12423TIP3    H158684   6.169   1.324   3.336  0.6616 -0.6184  0.5572
12423TIP3    H258685   6.127   1.469   3.328  0.7183 -0.6789 -1.1446
12424TIP3   OH258686   2.802   2.740  14.622 -0.5062  0.4039  0.1976
12424TIP3    H158687   2.848   2.658  14.602  2.7874  1.8540  1.0928
12424TIP3    H258688   2.712   2.725  14.593  0.4847 -2.7104 -1.7531
12425TIP3   OH258689   5.549   2.375  10.698 -0.2046  0.1428  0.1058
12425TIP3    H158690   5.643   2.371  10.682  0.6475  1.5727  3.8217
12425TIP3    H258691   5.523   2.283  10.708  0.9265 -0.2270 -0.1899
12426TIP3   OH258692   0.251   0.977   5.289 -0.0638 -0.0390  0.6916
12426TIP3    H158693   0.227   1.068   5.306  1.8474  0.9522 -1.3522
12426TIP3    H258694   0.347   0.976   5.288 -0.0281 -1.8146 -0.4398
12427TIP3   OH258695   3.811   2.836   5.448 -0.4944 -0.0973  0.3599
12427TIP3    H158696   3.873   2.889   5.398 -0.7559 -0.0230  0.1076
12427TIP3    H258697   3.762   2.787   5.382 -1.3241  0.5327  0.4827
12428TIP3   OH258698   0.468   4.692  14.690  0.0031 -0.1660 -0.0929
12428TIP3    H158699   0.419   4.630  14.635  0.2146  0.5183 -1.0802
12428TIP3    H258700   0.401   4.737  14.741 -0.2620 -0.3897 -0.2396
12429TIP3   OH258701   1.214   2.359  15.084 -0.3074 -0.3632 -0.0756
12429TIP3    H158702   1.227   2.274  15.125 -1.5870 -0.4450  0.2008
12429TIP3    H258703   1.144   2.400  15.135  0.9505  1.2887  0.4397
12430TIP3   OH258704   5.663   4.285   5.193  0.0325 -0.4676  0.8984
12430TIP3    H158705   5.703   4.283   5.280 -1.5326  1.1688  1.7078
12430TIP3    H258706   5.573   4.311   5.209 -0.0766  0.6894 -1.3034
12431TIP3   OH258707   0.150   1.737  12.810  0.3711 -0.4780 -0.5364
12431TIP3    H158708   0.101   1.791  12.873  0.6573 -0.5544 -0.2434
12431TIP3    H258709   0.086   1.673  12.779  0.1332 -0.2181 -0.5876
12432TIP3   OH258710   1.818   5.430  15.777 -0.0256 -0.3801 -0.1331
12432TIP3    H158711   1.844   5.452  15.867 -2.4685  0.7457  0.3765
12432TIP3    H258712   1.842   5.338  15.768  1.2205 -0.2413  1.3020
12433TIP3   OH258713   6.061   3.832   4.748 -0.2941  0.0511 -0.2261
12433TIP3    H158714   6.109   3.769   4.801 -0.3427 -0.9374 -1.3234
12433TIP3    H258715   6.015   3.779   4.683  1.1863  1.2788 -2.4317
12434TIP3   OH258716   0.350   5.651  16.931  0.2292  0.7906  0.0818
12434TIP3    H158717   0.256   5.636  16.939  0.2845  0.7121  0.6589
12434TIP3    H258718   0.381   5.577  16.878  0.5446 -1.5170  3.1674
12435TIP3   OH258719   4.028   1.287   0.807 -0.4297  0.9177  0.1142
12435TIP3    H158720   3.960   1.352   0.822 -2.1721 -0.1988 -2.1373
12435TIP3    H258721   3.989   1.204   0.836  0.5042  0.4451  0.0587
12436TIP3   OH258722   3.609   2.195  11.840 -0.3488  0.0464  0.0654
12436TIP3    H158723   3.610   2.154  11.927 -2.3676 -2.2298 -0.8602
12436TIP3    H258724   3.519   2.227  11.830 -0.1547  0.2622 -1.1619
12437TIP3   OH258725   0.416   4.924   4.297 -0.3290  0.3734  0.4293
12437TIP3    H158726   0.429   4.835   4.329 -0.1977  0.4330  0.5424
12437TIP3    H258727   0.503   4.952   4.267  0.0573  1.1298  2.0967
12438TIP3   OH258728   3.097   6.670   0.984  0.7595  0.0256  0.3548
12438TIP3    H158729   3.190   6.692   0.985  0.4184  1.6532 -0.4222
12438TIP3    H258730   3.094   6.575   0.997  2.3896  0.2378  2.9093
12439TIP3   OH258731   0.308   5.288   4.676 -0.3301  0.1460 -0.2290
12439TIP3    H158732   0.294   5.200   4.709  0.8769  0.0857  0.1735
12439TIP3    H258733   0.401   5.305   4.691 -0.4720  1.3656 -0.5907
12440TIP3   OH258734   1.617   3.290  17.129  0.1084 -0.0179  0.6540
12440TIP3    H158735   1.637   3.290  17.222  0.1099  0.7372  0.6537
12440TIP3    H258736   1.538   3.343  17.121  0.3129  0.2202  0.1832
12441TIP3   OH258737   3.299   1.383  15.728  0.3799  0.3791  0.3857
12441TIP3    H158738   3.260   1.380  15.640  0.8201  1.4898  0.1357
12441TIP3    H258739   3.378   1.329  15.721  0.1227  0.0150  0.2551
12442TIP3   OH258740   4.378   6.520   0.303 -0.4890  0.1786 -0.0324
12442TIP3    H158741   4.407   6.480   0.221 -1.6356  1.2921 -1.0123
12442TIP3    H258742   4.323   6.454   0.344 -2.0991  0.5724 -1.4730
12443TIP3   OH258743   6.353   4.205  16.035  0.1167  0.4294 -0.3395
12443TIP3    H158744   6.428   4.263  16.018  0.9888  0.3455  2.6050
12443TIP3    H258745   6.278   4.264  16.040  0.2275  0.7156 -1.7836
12444TIP3   OH258746   6.711   0.767  11.849 -0.3492 -0.1809  0.4252
12444TIP3    H158747   6.777   0.735  11.787 -0.6186  2.8699 -1.6500
12444TIP3    H258748   6.761   0.807  11.919  0.0444  0.7490 -0.3651
12445TIP3   OH258749   2.824   3.319   3.930  0.1143 -0.6336 -0.3522
12445TIP3    H158750   2.830   3.260   3.855 -0.9252  0.2706 -1.1834
12445TIP3    H258751   2.913   3.352   3.942  1.1591 -3.6968  1.3038
12446TIP3   OH258752   5.057   2.555  16.119  0.1387  0.3903 -0.8410
12446TIP3    H158753   5.108   2.570  16.199  0.5841 -0.2780 -0.9950
12446TIP3    H258754   5.074   2.633  16.065  2.2053 -0.4671 -1.5091
12447TIP3   OH258755   3.295   2.066  14.961  0.3344  0.6546 -0.1038
12447TIP3    H158756   3.249   2.047  15.042 -0.1846 -0.8920 -0.7301
12447TIP3    H258757   3.299   1.982  14.915  0.9924  1.4075 -1.4858
12448TIP3   OH258758   2.497   2.771  11.270 -0.5564 -0.3062  0.2140
12448TIP3    H158759   2.450   2.814  11.342  0.4493  0.7242  0.2734
12448TIP3    H258760   2.431   2.761  11.201 -0.9737  0.7739  0.4407
12449TIP3   OH258761   3.085   2.706  11.469 -0.2631  0.6974  0.2293
12449TIP3    H158762   3.123   2.792  11.486 -1.4982  1.4058 -0.4685
12449TIP3    H258763   3.063   2.707  11.376  0.2323 -0.6113  0.0626
12450TIP3   OH258764   2.044   4.978   0.419  0.5044 -0.3329 -0.0035
12450TIP3    H158765   1.960   5.004   0.457  0.2545 -0.2975 -0.5715
12450TIP3    H258766   2.102   5.053   0.436 -0.0649  0.3923 -1.1534
12451TIP3   OH258767   6.164   5.907  15.032 -0.2563  0.3188  0.5599
12451TIP3    H158768   6.245   5.915  14.982 -0.3324  0.1646  0.4104
12451TIP3    H258769   6.101   5.963  14.986 -0.7148 -0.8672 -0.3342
12452TIP3   OH258770   2.933   2.745   5.301  0.0647  0.5517 -0.5895
12452TIP3    H158771   2.956   2.739   5.208  3.2630  1.0896  0.0386
12452TIP3    H258772   2.929   2.654   5.331  2.9282  0.3569 -0.5328
12453TIP3   OH258773   0.932   0.420  14.503 -0.0656 -0.2247 -0.0936
12453TIP3    H158774   0.956   0.465  14.422  1.2314  0.8359  0.8488
12453TIP3    H258775   0.945   0.327  14.483  0.0619  0.0052 -1.1479
12454TIP3   OH258776   1.908   2.813  13.939 -0.2124  0.2265  0.0437
12454TIP3    H158777   1.953   2.798  14.022  0.4005  0.2603 -0.2806
12454TIP3    H258778   1.977   2.835  13.877 -0.8696  2.4074  0.0144
12455TIP3   OH258779   6.228   1.685  12.673 -0.0072 -0.1883  0.0903
12455TIP3    H158780   6.137   1.660  12.692 -0.5256  0.9024 -0.8308
12455TIP3    H258781   6.248   1.753  12.737  0.2439 -0.5882  0.4385
12456TIP3   OH258782   5.433   5.092  16.039 -0.3527  0.3887 -0.2913
12456TIP3    H158783   5.388   5.156  16.094 -4.6251 -2.3371 -0.1914
12456TIP3    H258784   5.395   5.104  15.952 -0.5844 -1.3341 -0.4618
12457TIP3   OH258785   5.518   1.151  17.151 -0.0987  0.5157 -0.1931
12457TIP3    H158786   5.445   1.097  17.182 -1.0291  2.3738  0.9785
12457TIP3    H258787   5.580   1.151  17.224  0.6337 -0.2500 -0.8071
12458TIP3   OH258788   3.589   4.705   5.994  0.0439  0.0179  0.2769
12458TIP3    H158789   3.598   4.752   6.076  0.9999 -1.7483  1.2552
12458TIP3    H258790   3.579   4.613   6.020  2.2889 -0.8595 -1.5665
12459TIP3   OH258791   2.950   1.144   4.145  0.1340  0.5072 -0.3099
12459TIP3    H158792   3.040   1.113   4.157 -0.3916 -0.7911  0.4185
12459TIP3    H258793   2.895   1.070   4.169 -1.1491  0.4493 -3.0908
12460TIP3   OH258794   3.306   5.056   1.552 -0.2255 -0.1299  0.0960
12460TIP3    H158795   3.384   5.010   1.583  0.4053  0.4026 -0.7012
12460TIP3    H258796   3.268   4.997   1.486 -0.2975 -0.2091  0.2057
12461TIP3   OH258797   3.823   0.754   2.646 -0.3124  0.7803 -0.0589
12461TIP3    H158798   3.745   0.747   2.590 -0.0593 -0.6722 -0.2682
12461TIP3    H258799   3.886   0.804   2.593  0.6114 -2.1622 -1.9640
12462TIP3   OH258800   6.426   0.751   1.840 -0.0424  0.0661  0.3307
12462TIP3    H158801   6.470   0.824   1.883  0.7055  0.9878 -1.8443
12462TIP3    H258802   6.340   0.785   1.815 -0.0062 -0.0465  0.0433
12463TIP3   OH258803   3.746   3.814   4.106 -0.0797  0.1364 -0.5464
12463TIP3    H158804   3.673   3.771   4.151 -0.3281  2.3833  1.3715
12463TIP3    H258805   3.721   3.813   4.014 -1.5724 -0.9062 -0.1692
12464TIP3   OH258806   0.906   6.568  14.736  0.2169 -0.6265  0.3707
12464TIP3    H158807   0.947   6.482  14.745 -0.9442 -1.0724  1.7779
12464TIP3    H258808   0.921   6.611  14.820 -0.8433 -0.2010  0.3648
12465TIP3   OH258809   6.501   1.957  13.569 -0.2136 -0.3521  0.2035
12465TIP3    H158810   6.520   1.914  13.652 -1.3467  0.1508  0.7299
12465TIP3    H258811   6.545   2.042  13.575 -0.3767 -0.2769  0.3282
12466TIP3   OH258812   5.546   3.458  12.244 -0.1165  0.2505  0.0993
12466TIP3    H158813   5.533   3.547  12.212  1.6196  0.7837  0.7570
12466TIP3    H258814   5.518   3.402  12.171 -0.1652  1.3625 -0.7536
12467TIP3   OH258815   1.231   1.922   2.222 -0.0115  0.6572  0.1420
12467TIP3    H158816   1.274   1.951   2.141  1.1002  0.1203  0.5136
12467TIP3    H258817   1.137   1.927   2.203  0.2082  1.8518 -0.7068
12468TIP3   OH258818   1.623   3.231   0.794 -0.0282 -0.0766 -0.0308
12468TIP3    H158819   1.550   3.292   0.797 -0.1195 -0.2342  1.2842
12468TIP3    H258820   1.672   3.247   0.875  1.3324 -0.0544 -0.8200
12469TIP3   OH258821   0.164   0.852  12.044  0.7830  0.2014 -0.5394
12469TIP3    H158822   0.213   0.914  12.099  0.5349  0.5518 -0.7095
12469TIP3    H258823   0.231   0.793  12.010  0.9194 -0.1355  0.2802
12470TIP3   OH258824   3.585   5.410  12.936  0.9364 -0.2654 -0.0755
12470TIP3    H158825   3.496   5.435  12.961  1.5492  0.0504  2.0456
12470TIP3    H258826   3.577   5.319  12.908  0.1418 -0.7278  1.5193
12471TIP3   OH258827   6.605   3.938  13.269  0.0452  0.4686 -0.1918
12471TIP3    H158828   6.610   3.952  13.364 -0.4934  0.0773 -0.1009
12471TIP3    H258829   6.526   3.985  13.242 -1.3229 -1.6102 -0.0051
12472TIP3   OH258830   4.134   0.816  12.175  0.3032  0.2402 -0.6876
12472TIP3    H158831   4.158   0.843  12.086  1.9439  1.0261 -0.0449
12472TIP3    H258832   4.043   0.845  12.185  0.7964  2.2031 -1.3571
12473TIP3   OH258833   6.140   0.030  14.249 -0.4128 -0.1458 -0.4213
12473TIP3    H158834   6.069   0.021  14.312 -0.1389  0.9010  0.0635
12473TIP3    H258835   6.217   0.051  14.303  0.1737 -0.8138 -0.9724
12474TIP3   OH258836   6.534   5.104   2.651 -0.0578 -0.7506  0.2644
12474TIP3    H158837   6.612   5.154   2.677  0.0484 -0.1732 -1.0555
12474TIP3    H258838   6.502   5.065   2.732 -1.3311  3.0967  1.8415
12475TIP3   OH258839   5.225   0.490  16.168 -0.1679  0.5079  0.1772
12475TIP3    H158840   5.260   0.449  16.247  0.3192  0.3001 -0.1393
12475TIP3    H258841   5.182   0.569  16.198  1.0020  1.0277  0.5272
12476TIP3   OH258842   1.586   6.487  13.718  0.4059 -0.2144  0.0952
12476TIP3    H158843   1.666   6.530  13.689  0.1556 -0.1748 -0.5559
12476TIP3    H258844   1.616   6.412  13.769  0.8645 -0.3659 -0.3899
12477TIP3   OH258845   4.065   4.144  11.472 -0.5092 -0.2883 -0.3456
12477TIP3    H158846   4.097   4.059  11.444 -0.9133 -0.6016  0.1320
12477TIP3    H258847   4.066   4.140  11.567  0.7311  0.7165 -0.2884
12478TIP3   OH258848   0.733   4.211   0.684  0.0339  0.1213  0.0375
12478TIP3    H158849   0.665   4.276   0.703 -0.4114 -0.5537  0.8395
12478TIP3    H258850   0.764   4.233   0.596 -0.7212  0.8752 -0.0513
12479TIP3   OH258851   6.389   4.013  15.870  0.8113 -0.3866  0.0075
12479TIP3    H158852   6.396   3.939  15.931  0.2379 -1.0775 -0.7451
12479TIP3    H258853   6.374   4.089  15.927 -1.6426 -1.2812  0.7118
12480TIP3   OH258854   3.570   5.126   4.390 -0.5138 -0.3159  0.3233
12480TIP3    H158855   3.526   5.154   4.309  0.3019 -0.1776 -0.0822
12480TIP3    H258856   3.539   5.188   4.456 -0.6928 -0.0272 -0.0250
12481TIP3   OH258857   3.400   5.418  11.943  0.5515  0.4393  0.1816
12481TIP3    H158858   3.340   5.390  11.874  1.4375 -1.3337  0.0804
12481TIP3    H258859   3.467   5.468  11.898 -0.6293  2.1692  0.2550
12482TIP3   OH258860   4.692   3.516  13.783 -0.1093  0.3067  0.0248
12482TIP3    H158861   4.648   3.589  13.739  0.3526  0.0229 -0.9300
12482TIP3    H258862   4.783   3.545  13.791  0.2579 -0.4711 -1.0894
12483TIP3   OH258863   4.466   5.023   2.692 -0.2509  0.1083  0.3543
12483TIP3    H158864   4.408   4.978   2.752 -0.4948  0.5579  0.4642
12483TIP3    H258865   4.407   5.061   2.626  0.0676 -1.1486 -0.7095
12484TIP3   OH258866   0.749   4.675  13.396 -0.4263 -0.1370  0.9539
12484TIP3    H158867   0.758   4.757  13.348 -0.2909  0.8642  2.6358
12484TIP3    H258868   0.712   4.614  13.332 -0.6389  1.2521 -0.3002
12485TIP3   OH258869   1.750   1.397   1.766  0.2488  0.4281  0.1424
12485TIP3    H158870   1.659   1.372   1.777  0.9578 -3.3167 -1.0498
12485TIP3    H258871   1.797   1.347   1.833  1.6065  0.7815 -0.5070
12486TIP3   OH258872   3.207   4.777  11.061  0.0554  0.3266  0.2792
12486TIP3    H158873   3.279   4.795  11.121 -1.7874  0.8179  2.4644
12486TIP3    H258874   3.195   4.859  11.013  0.1631  0.6272  0.7633
12487TIP3   OH258875   5.539   2.206   1.445 -0.4937  0.2035  0.2958
12487TIP3    H158876   5.600   2.144   1.406 -2.6742 -2.1852  0.4057
12487TIP3    H258877   5.507   2.162   1.524 -1.3547  1.9423  0.9781
12488TIP3   OH258878   1.405   1.342  14.904 -0.0888 -0.0571 -0.0967
12488TIP3    H158879   1.484   1.397  14.903  0.4181 -0.7625 -0.5440
12488TIP3    H258880   1.429   1.266  14.851 -1.2147 -0.0980 -0.5778
12489TIP3   OH258881   2.484   1.733  11.307  0.1955 -0.3281 -0.8062
12489TIP3    H158882   2.436   1.751  11.227  1.0393 -1.2409 -1.5458
12489TIP3    H258883   2.574   1.762  11.288  0.1493  0.5372  0.2303
12490TIP3   OH258884   3.949   1.358   5.076 -0.0306 -0.0778 -0.0312
12490TIP3    H158885   3.932   1.330   5.166 -0.2677 -1.3143 -0.4390
12490TIP3    H258886   4.040   1.332   5.059 -0.3558 -0.9547 -0.5227
12491TIP3   OH258887   6.757   3.395  13.867  0.1706 -0.3062 -0.1087
12491TIP3    H158888   6.748   3.427  13.957 -1.3544 -0.8348 -0.0377
12491TIP3    H258889   6.711   3.461  13.814 -1.1866 -1.2855 -0.1904
12492TIP3   OH258890   0.652   1.708  13.319 -0.1969  0.5523  0.3977
12492TIP3    H158891   0.698   1.763  13.383 -3.5461  1.2293  2.4375
12492TIP3    H258892   0.605   1.770  13.263 -0.2345 -0.1622 -0.3886
12493TIP3   OH258893   0.717   3.489  12.740  0.1758 -0.3357  0.0557
12493TIP3    H158894   0.718   3.395  12.753 -0.5324 -0.4267 -0.5187
12493TIP3    H258895   0.668   3.523  12.815  0.5261 -0.4065  0.3218
12494TIP3   OH258896   4.193   5.558  11.215  0.2786  0.2750  0.0033
12494TIP3    H158897   4.209   5.600  11.131 -0.5457 -0.0003 -0.3059
12494TIP3    H258898   4.159   5.471  11.192 -2.5740  1.1595  0.5540
12495TIP3   OH258899   0.436   1.948   0.683  0.6472  0.3828  0.4367
12495TIP3    H158900   0.460   2.024   0.629 -0.6778  2.0293  2.0556
12495TIP3    H258901   0.352   1.919   0.646  1.0174 -0.1497 -0.0043
12496TIP3   OH258902   4.344   2.808  16.646  0.4666 -0.5436  0.6361
12496TIP3    H158903   4.404   2.735  16.655 -0.1297 -0.9276  1.6033
12496TIP3    H258904   4.401   2.884  16.630  1.0454 -1.3102 -1.1942
12497TIP3   OH258905   3.997   0.142   1.108 -0.0455  0.1201 -0.4213
12497TIP3    H158906   4.026   0.094   1.186  2.2290 -0.5900 -1.6147
12497TIP3    H258907   4.018   0.234   1.127  0.5372 -0.0556 -0.1804
12498TIP3   OH258908   4.673   0.677   6.108 -1.0173 -0.1630 -0.5724
12498TIP3    H158909   4.586   0.660   6.145 -0.8175 -1.5079 -0.6714
12498TIP3    H258910   4.709   0.590   6.090 -0.0315  0.3972 -1.4275
12499TIP3   OH258911   6.586   6.744   4.485  0.5362  0.0086 -0.1547
12499TIP3    H158912   6.659   6.744   4.424  0.2622 -2.3174 -0.5959
12499TIP3    H258913   6.570   6.836   4.506  2.4333  0.6528 -1.4071
12500TIP3   OH258914   3.099   6.177   0.126  0.8207 -0.2059  0.6203
12500TIP3    H158915   3.089   6.083   0.114 -1.5255  0.0875 -0.2384
12500TIP3    H258916   3.194   6.191   0.125  1.2271 -2.5360  0.7899
12501TIP3   OH258917   5.688   5.895  11.623 -0.2906 -0.1561 -0.1711
12501TIP3    H158918   5.777   5.891  11.589  1.0453 -0.4528  2.9850
12501TIP3    H258919   5.662   5.803  11.632 -0.6454 -0.0821 -0.4266
12502TIP3   OH258920   3.895   5.227  15.295  0.4165 -0.4064  0.0320
12502TIP3    H158921   3.978   5.190  15.264 -0.3249 -0.6358 -1.8182
12502TIP3    H258922   3.919   5.314  15.328  1.4134 -0.4941 -0.4066
12503TIP3   OH258923   1.536   6.656   0.400  0.2313 -0.1271 -1.0476
12503TIP3    H158924   1.607   6.719   0.387  0.7103 -0.3690  0.2714
12503TIP3    H258925   1.542   6.597   0.324  1.5116 -0.2016 -0.9039
12504TIP3   OH258926   1.865   0.143  15.660 -0.3855  0.2492 -0.0813
12504TIP3    H158927   1.894   0.054  15.678  1.7985  1.1000  0.9150
12504TIP3    H258928   1.851   0.145  15.566  0.3787 -0.9191 -0.2366
12505TIP3   OH258929   4.910   3.657   4.717 -0.6753 -0.0188  0.0142
12505TIP3    H158930   4.854   3.678   4.642 -1.0243  1.2007  0.5922
12505TIP3    H258931   4.874   3.708   4.789  0.4537 -0.1576  0.7018
12506TIP3   OH258932   3.078   4.633  11.966  0.1902  0.1187 -0.0449
12506TIP3    H158933   3.123   4.654  11.884 -0.0533 -1.4720 -0.6362
12506TIP3    H258934   3.141   4.657  12.035  0.5050  1.2268 -0.6992
12507TIP3   OH258935   3.381   6.426   5.273  0.4831 -0.4524  0.0015
12507TIP3    H158936   3.418   6.506   5.236  0.7247 -0.0500  1.0647
12507TIP3    H258937   3.435   6.356   5.239  0.3574 -0.1494 -0.8336
12508TIP3   OH258938   5.326   1.282  15.438  0.3938 -0.1545  0.1097
12508TIP3    H158939   5.330   1.261  15.345 -0.5261 -1.3259  0.3188
12508TIP3    H258940   5.403   1.338  15.453  0.0780  0.7823 -1.5093
12509TIP3   OH258941   3.661   3.689   3.277  0.3006 -0.3201  0.3980
12509TIP3    H158942   3.628   3.599   3.272  1.8785 -0.9319  0.2853
12509TIP3    H258943   3.707   3.702   3.194 -0.3694  0.8016  0.1845
12510TIP3   OH258944   1.889   1.151  15.810  0.1481  0.4052  0.6075
12510TIP3    H158945   1.859   1.125  15.897 -1.0242 -2.1068 -0.4404
12510TIP3    H258946   1.961   1.092  15.791  0.1021  0.6258 -0.2930
12511TIP3   OH258947   3.488   4.098  13.252 -0.2760 -0.3214 -0.0303
12511TIP3    H158948   3.575   4.132  13.235 -1.1321  3.1568  1.6445
12511TIP3    H258949   3.496   4.003  13.239  3.5255 -0.0690 -0.5819
12512TIP3   OH258950   3.801   6.588   0.913  0.1364 -0.3233  0.7345
12512TIP3    H158951   3.753   6.528   0.857  0.5703 -1.3231  1.4084
12512TIP3    H258952   3.756   6.672   0.902  1.1318 -0.0592 -2.2969
12513TIP3   OH258953   5.882   1.527   4.845  0.3069  0.6349 -0.3417
12513TIP3    H158954   5.877   1.622   4.855  0.5968  0.5540  0.5999
12513TIP3    H258955   5.815   1.493   4.904 -0.1895  0.2653 -1.0963
12514TIP3   OH258956   0.711   4.580   5.542  0.3797 -0.2657 -0.6269
12514TIP3    H158957   0.719   4.490   5.509 -3.4215 -0.9205 -0.1929
12514TIP3    H258958   0.669   4.571   5.627  0.9418  1.9128 -0.0597
12515TIP3   OH258959   0.984   4.804  12.855 -0.2029  0.0538 -0.5772
12515TIP3    H158960   1.056   4.844  12.904  0.8940  0.3367 -2.3179
12515TIP3    H258961   0.946   4.876  12.805  0.1633 -0.5863 -1.8198
12516TIP3   OH258962   1.298   5.899  15.691  0.0180  0.1639  0.0154
12516TIP3    H158963   1.213   5.898  15.736 -0.6926 -0.6049 -1.2965
12516TIP3    H258964   1.283   5.850  15.610  1.6150  0.3747 -0.4361
12517TIP3   OH258965   3.847   0.241   5.105 -0.4621  0.2925  0.2100
12517TIP3    H158966   3.841   0.164   5.048  0.2487 -1.7107  2.6602
12517TIP3    H258967   3.938   0.269   5.097 -0.7969  1.1213 -0.9194
12518TIP3   OH258968   5.217   6.778  11.633  0.5280 -0.5905 -0.1871
12518TIP3    H158969   5.274   6.724  11.578 -0.1104 -1.3325 -0.1405
12518TIP3    H258970   5.237   6.750  11.722  0.7018 -0.2475 -0.1192
12519TIP3   OH258971   2.504   6.496  16.773  0.4587 -0.2211 -0.5419
12519TIP3    H158972   2.575   6.462  16.828 -1.3184 -0.4259  1.7915
12519TIP3    H258973   2.528   6.587  16.757  1.7417 -0.5684 -0.7159
12520TIP3   OH258974   1.347   6.250  15.716  0.3330  0.1402  0.0259
12520TIP3    H158975   1.290   6.325  15.733 -1.6581 -1.6250  1.9000
12520TIP3    H258976   1.372   6.259  15.624 -1.6060  1.9387 -0.4098
12521TIP3   OH258977   5.600   2.666  10.777  0.6972  0.1037 -0.4251
12521TIP3    H158978   5.606   2.573  10.754  0.2335 -0.1632  0.4610
12521TIP3    H258979   5.534   2.668  10.847 -2.1190  1.5712 -2.9038
12522TIP3   OH258980   5.774   0.325   4.172  0.4221 -0.0933 -0.1019
12522TIP3    H158981   5.765   0.419   4.157 -2.3030 -0.2639  0.0225
12522TIP3    H258982   5.798   0.289   4.086 -0.8765  0.4920 -0.7408
12523TIP3   OH258983   3.988   5.935   0.776 -0.0448  0.0973  0.1715
12523TIP3    H158984   4.083   5.929   0.760 -0.1255 -1.0641  0.0615
12523TIP3    H258985   3.975   6.026   0.802  0.9160  0.6199 -1.0170
12524TIP3   OH258986   6.103   1.080  13.995  0.2924 -0.4852 -0.8149
12524TIP3    H158987   6.112   1.105  14.088 -1.6383  0.5943 -0.8477
12524TIP3    H258988   6.051   1.000  13.997  0.5885 -0.6813 -0.9557
12525TIP3   OH258989   4.632   6.245   4.539 -0.0211  0.0079 -0.2138
12525TIP3    H158990   4.715   6.259   4.586 -0.1553  1.0091 -0.2494
12525TIP3    H258991   4.587   6.179   4.591 -0.7114  1.9573  1.8533
12526TIP3   OH258992   0.114   2.208  11.980 -0.0891 -0.5728  0.6722
12526TIP3    H158993   0.095   2.301  11.962  1.7880 -0.3633 -0.5144
12526TIP3    H258994   0.179   2.210  12.050  0.2035 -0.9663  0.4165
12527TIP3   OH258995   4.029   6.559   4.838  0.4167  0.2267  0.2080
12527TIP3    H158996   4.019   6.611   4.758 -1.1876 -2.2232 -1.2830
12527TIP3    H258997   4.066   6.621   4.901  1.4367  2.3680 -2.2809
12528TIP3   OH258998   5.985   4.644  13.028 -0.3710 -0.0533  0.0922
12528TIP3    H158999   6.075   4.613  13.036 -1.0190 -2.2027 -0.3323
12528TIP3    H259000   5.973   4.702  13.103  0.9616 -0.7518  0.8841
12529TIP3   OH259001   4.078   1.991  13.130  0.2142  0.2980  0.6101
12529TIP3    H159002   4.107   2.083  13.131 -0.9308  0.6731  2.4053
12529TIP3    H259003   4.002   1.991  13.071  2.6485 -0.3869 -2.8121
12530TIP3   OH259004   1.781   6.193   3.735 -0.5169 -0.5977  0.1940
12530TIP3    H159005   1.843   6.192   3.807 -0.4707  0.1440  0.1794
12530TIP3    H259006   1.833   6.175   3.657 -0.3314 -0.1036  0.1973
12531TIP3   OH259007   4.923   3.725  11.631 -0.1465 -0.2592 -0.1776
12531TIP3    H159008   4.980   3.661  11.672  0.1325 -0.3759 -0.7347
12531TIP3    H259009   4.915   3.796  11.695 -0.1024 -0.6506  0.2607
12532TIP3   OH259010   4.996   1.848  16.468  0.5441 -0.5994  0.1067
12532TIP3    H159011   5.067   1.802  16.513  0.6197 -0.7407 -0.1586
12532TIP3    H259012   4.983   1.800  16.386  0.8957  0.0844 -0.3629
12533TIP3   OH259013   3.157   3.832   2.691 -0.1167 -0.3551  0.1609
12533TIP3    H159014   3.155   3.810   2.784  0.2716  0.2098  0.3074
12533TIP3    H259015   3.123   3.922   2.687 -1.3735 -0.8313 -0.3882
12534TIP3   OH259016   5.005   4.991   3.400 -0.1461 -0.9698 -0.1632
12534TIP3    H159017   5.054   4.991   3.318 -0.6207  0.5184 -0.4907
12534TIP3    H259018   4.920   4.953   3.377 -1.1280  1.4809 -0.9976
12535TIP3   OH259019   1.217   3.182  15.673 -0.1058 -0.7932  0.0860
12535TIP3    H159020   1.226   3.219  15.761 -4.7872 -4.3762  2.5314
12535TIP3    H259021   1.292   3.124  15.663 -0.4385 -1.7952  2.7126
12536TIP3   OH259022   5.305   3.700  16.594  0.3260 -0.4634 -0.6643
12536TIP3    H159023   5.227   3.694  16.539 -0.3968 -0.1907  0.3115
12536TIP3    H259024   5.320   3.794  16.606  2.2771 -0.3916 -2.8322
12537TIP3   OH259025   4.526   5.228  13.719 -0.5615 -0.1915 -0.3296
12537TIP3    H159026   4.489   5.151  13.676  1.2066 -1.2534 -0.0751
12537TIP3    H259027   4.536   5.202  13.811 -0.6093  0.6058 -0.0895
12538TIP3   OH259028   2.264   6.307  16.490 -0.2285  0.2188  0.2004
12538TIP3    H159029   2.236   6.219  16.465  2.5515 -1.1116  1.3399
12538TIP3    H259030   2.309   6.341  16.413 -0.5559  0.3196  0.0499
12539TIP3   OH259031   4.802   0.549  14.773  0.3969 -0.1597 -0.2542
12539TIP3    H159032   4.771   0.606  14.843 -0.6445 -1.7213  0.6210
12539TIP3    H259033   4.832   0.470  14.818  1.5980 -0.4211 -1.4370
12540TIP3   OH259034   3.447   4.398  13.665  0.3723  0.6739 -0.4451
12540TIP3    H159035   3.394   4.460  13.714 -0.3275  0.5105 -0.9820
12540TIP3    H259036   3.393   4.319  13.660  0.8071  0.3869 -0.6996
12541TIP3   OH259037   2.732   2.295   2.538  0.2072  0.4395 -0.2120
12541TIP3    H159038   2.795   2.280   2.608  0.3547 -0.2186 -0.4742
12541TIP3    H259039   2.650   2.258   2.571 -0.2145  1.8665  0.3867
12542TIP3   OH259040   6.577   6.506  13.969  0.3122  0.2285  0.0505
12542TIP3    H159041   6.571   6.558  13.888 -3.0796 -0.4138 -0.2468
12542TIP3    H259042   6.574   6.571  14.039  0.3502  0.6541 -0.3352
12543TIP3   OH259043   6.263   4.071  16.421  0.1671  0.0105  0.3552
12543TIP3    H159044   6.280   4.018  16.498 -0.0655  0.3180  0.6247
12543TIP3    H259045   6.345   4.070  16.371 -0.3819 -2.1398 -0.6091
12544TIP3   OH259046   3.586   1.657  16.285 -0.5194  0.2399 -0.5608
12544TIP3    H159047   3.529   1.597  16.332 -0.8357 -0.4577 -1.7979
12544TIP3    H259048   3.669   1.655  16.334 -1.1788  0.3996  0.5895
12545TIP3   OH259049   0.035   3.592   0.692  0.6426  1.2132 -0.0089
12545TIP3    H159050   0.023   3.596   0.786  0.3670  1.0864 -0.0395
12545TIP3    H259051   0.127   3.615   0.679  0.5018  1.9463  0.2376
12546TIP3   OH259052   1.525   2.436  12.581 -0.5750 -0.3433 -0.2181
12546TIP3    H159053   1.485   2.511  12.625 -1.1070  1.0313 -2.8524
12546TIP3    H259054   1.564   2.472  12.502 -0.0997 -2.7455 -1.1718
12547TIP3   OH259055   1.793   0.723  11.904 -0.3055  0.1107 -0.1501
12547TIP3    H159056   1.830   0.687  11.985 -1.5893 -0.6221  0.1407
12547TIP3    H259057   1.843   0.803  11.889 -0.2259  0.4302  1.5536
12548TIP3   OH259058   6.483   2.601  16.126 -0.2294 -0.0572 -0.5673
12548TIP3    H159059   6.532   2.661  16.183 -0.0822  0.7944 -1.5625
12548TIP3    H259060   6.521   2.515  16.144  0.3394  0.3151  0.0592
12549TIP3   OH259061   4.301   2.511   5.547 -0.1150  0.1170  0.3895
12549TIP3    H159062   4.240   2.569   5.502  0.5092  1.7767  1.6178
12549TIP3    H259063   4.269   2.506   5.637  0.4664 -0.5801  0.5694
12550TIP3   OH259064   0.404   3.189  11.598  0.1969 -0.2530  0.1777
12550TIP3    H159065   0.491   3.161  11.570 -0.5685 -0.9431 -1.6899
12550TIP3    H259066   0.372   3.117  11.653  0.2818 -0.6437 -0.2761
12551TIP3   OH259067   6.214   5.300   1.011 -0.4635  0.4358 -0.0722
12551TIP3    H159068   6.223   5.236   0.939 -0.6765 -0.4110  0.6361
12551TIP3    H259069   6.227   5.248   1.090 -0.2191  1.3681  0.5064
12552TIP3   OH259070   6.252   1.171  16.565 -0.0449 -0.1740 -0.0001
12552TIP3    H159071   6.267   1.238  16.497  2.2434 -0.7009 -0.0959
12552TIP3    H259072   6.314   1.194  16.634 -1.9848  0.0471  1.7499
12553TIP3   OH259073   6.107   4.490  15.031 -0.4317  0.5559 -0.0133
12553TIP3    H159074   6.058   4.460  15.107 -2.7264  1.8405 -0.8821
12553TIP3    H259075   6.162   4.561  15.063 -2.2087  1.8405  0.3000
12554TIP3   OH259076   3.110   2.827  12.369 -0.7077  0.7616 -0.5695
12554TIP3    H159077   3.111   2.919  12.341 -1.8930  1.2854  0.9375
12554TIP3    H259078   3.017   2.807  12.382 -0.4263 -0.4881 -0.3463
12555TIP3   OH259079   4.573   1.895   2.415 -0.6175  0.7774  0.0149
12555TIP3    H159080   4.559   1.826   2.351  0.5285  2.4737 -2.2155
12555TIP3    H259081   4.606   1.850   2.493  2.5136 -1.0382 -2.1675
12556TIP3   OH259082   4.326   3.213   1.302  0.4672  0.2627  0.4102
12556TIP3    H159083   4.420   3.205   1.316  0.2960 -0.2181  1.3544
12556TIP3    H259084   4.296   3.275   1.368 -0.0857 -0.6767  1.0641
12557TIP3   OH259085   6.405   1.537  12.373  0.1427 -0.3193 -0.3112
12557TIP3    H159086   6.434   1.482  12.300 -0.8369 -0.1465 -0.8578
12557TIP3    H259087   6.478   1.536  12.435  1.9470  1.3132 -2.2521
12558TIP3   OH259088   3.951   4.418   4.362  0.0543  0.0039 -0.4733
12558TIP3    H159089   4.021   4.482   4.368 -0.6552  0.6617  1.1647
12558TIP3    H259090   3.878   4.466   4.322 -0.4657  0.2306  0.7226
12559TIP3   OH259091   5.085   5.278  15.104 -0.2551 -0.5575 -0.0989
12559TIP3    H159092   5.053   5.366  15.121  3.8803  2.0695 -3.9240
12559TIP3    H259093   5.162   5.269  15.160  0.5270 -0.8296 -1.1849
12560TIP3   OH259094   2.724   4.589   1.935 -0.6208  0.2558 -0.6011
12560TIP3    H159095   2.781   4.613   2.008  0.3073 -1.7087 -0.6166
12560TIP3    H259096   2.710   4.671   1.887 -0.1785  1.3221  1.0169
12561TIP3   OH259097   1.414   3.124  15.388  0.2891 -0.3403  0.0692
12561TIP3    H159098   1.398   3.071  15.310  0.2768  0.8094 -0.7221
12561TIP3    H259099   1.451   3.206  15.355 -1.8829  1.1239  1.0587
12562TIP3   OH259100   2.760   5.474   3.095  0.1174 -0.3679 -0.2881
12562TIP3    H159101   2.755   5.407   3.164 -2.1139  0.2745  0.2707
12562TIP3    H259102   2.675   5.470   3.051  0.2045  1.5565 -0.7439
12563TIP3   OH259103   3.375   1.866   4.757 -0.3668  0.6156 -0.1515
12563TIP3    H159104   3.382   1.863   4.661 -0.6945  1.5076 -0.2096
12563TIP3    H259105   3.284   1.844   4.774 -0.4577  1.0411 -0.0806
12564TIP3   OH259106   0.886   6.561  12.488 -0.6178  0.0948 -0.5558
12564TIP3    H159107   0.867   6.469  12.504 -0.7123  0.5871  2.8716
12564TIP3    H259108   0.978   6.572  12.510 -0.6961  0.8801 -0.5775
12565TIP3   OH259109   6.656   5.806  15.601 -0.2941  0.3092 -0.3088
12565TIP3    H159110   6.616   5.837  15.682  1.3842 -0.6039  0.9397
12565TIP3    H259111   6.612   5.723  15.583  1.9445 -1.5729  2.0036
12566TIP3   OH259112   5.384   3.627  11.228 -0.4871 -0.5608  0.4359
12566TIP3    H159113   5.304   3.587  11.193 -0.9813 -0.4401  1.3893
12566TIP3    H259114   5.354   3.707  11.271  0.2328 -0.1957  0.2788
12567TIP3   OH259115   4.469   4.502   0.756  0.3440  0.7284 -0.8621
12567TIP3    H159116   4.393   4.445   0.747  1.6543 -1.0131 -1.4231
12567TIP3    H259117   4.446   4.562   0.828  0.2508 -2.9142  2.4926
12568TIP3   OH259118   4.865   4.591  11.841 -0.6351  0.3782 -0.0130
12568TIP3    H159119   4.867   4.521  11.907 -0.6553 -0.2210 -0.6417
12568TIP3    H259120   4.803   4.655  11.876 -2.9397 -1.2882 -0.8023
12569TIP3   OH259121   3.893   4.740  16.394  0.2632  0.3005  0.0655
12569TIP3    H159122   3.893   4.824  16.440 -0.7998 -0.6369  1.8902
12569TIP3    H259123   3.972   4.696  16.424 -0.7896 -0.5994  1.6277
12570TIP3   OH259124   4.812   5.272  13.686 -0.5407  0.1670  0.4781
12570TIP3    H159125   4.750   5.201  13.702  0.3439 -0.6074  0.5837
12570TIP3    H259126   4.793   5.336  13.755  0.3054 -1.1250  1.9898
12571TIP3   OH259127   0.525   5.307  12.147  0.3421 -0.3156 -0.1490
12571TIP3    H159128   0.487   5.336  12.065 -0.2330  1.4324  0.6955
12571TIP3    H259129   0.604   5.360  12.158 -0.5592  0.8071  1.2766
12572TIP3   OH259130   6.066   3.750  16.020 -0.1736  0.0649  0.1273
12572TIP3    H159131   6.035   3.674  16.068 -0.3599 -0.6632 -1.0908
12572TIP3    H259132   6.161   3.741  16.019  0.0142  1.2123  2.1136
12573TIP3   OH259133   2.360   1.473   3.158  0.1583 -0.1261 -0.0535
12573TIP3    H159134   2.447   1.452   3.193 -0.4870  1.2336  2.5848
12573TIP3    H259135   2.363   1.566   3.139 -0.2998 -0.3652 -1.4365
12574TIP3   OH259136   6.253   4.211  14.308 -0.0338  0.6443 -0.1973
12574TIP3    H159137   6.254   4.215  14.212 -1.8668  1.8051 -0.2218
12574TIP3    H259138   6.305   4.286  14.335 -0.0298  0.6826 -0.3096
12575TIP3   OH259139   5.108   2.123   2.130  0.6515  0.3296  0.4444
12575TIP3    H159140   5.055   2.152   2.056  0.9154  3.0656  1.2297
12575TIP3    H259141   5.056   2.145   2.207  0.6204 -1.9758  1.1507
12576TIP3   OH259142   1.873   4.249  12.361 -0.5461 -0.3389  0.0183
12576TIP3    H159143   1.791   4.277  12.319  0.2395  0.1000 -1.2774
12576TIP3    H259144   1.848   4.169  12.409 -2.3311  1.2795  1.9996
12577TIP3   OH259145   0.561   3.587  12.264 -0.1386  0.0890 -0.0697
12577TIP3    H159146   0.468   3.570  12.253  0.0415 -1.4111  0.4347
12577TIP3    H259147   0.580   3.561  12.354  1.0804 -1.4189 -0.7011
12578TIP3   OH259148   2.996   2.860   1.880 -0.2258  0.3482 -0.1574
12578TIP3    H159149   3.085   2.896   1.888  0.6870 -1.8443  0.0982
12578TIP3    H259150   2.986   2.845   1.786 -1.2617  2.6562 -0.5002
12579TIP3   OH259151   5.668   4.430   4.247  0.4053  0.0665 -0.5799
12579TIP3    H159152   5.711   4.501   4.294  0.6829  0.6827 -1.7121
12579TIP3    H259153   5.582   4.465   4.224 -0.2351 -0.6994  0.5678
12580TIP3   OH259154   4.354   2.488  14.217 -0.1315 -0.4220 -0.9246
12580TIP3    H159155   4.336   2.406  14.171 -1.7263  0.3590 -1.7801
12580TIP3    H259156   4.270   2.513  14.255  0.3143  0.8293 -0.7025
12581TIP3   OH259157   2.639   5.082  12.275 -0.1782  0.3324  0.3852
12581TIP3    H159158   2.600   5.010  12.325  0.0828  0.6253  1.0192
12581TIP3    H259159   2.684   5.040  12.202 -0.4971 -0.1066  0.4409
12582TIP3   OH259160   0.355   1.699   0.308  0.2155  0.2442 -0.1822
12582TIP3    H159161   0.362   1.735   0.220 -0.2968 -0.2591 -0.4431
12582TIP3    H259162   0.374   1.606   0.298 -0.1496  0.1214  0.1806
12583TIP3   OH259163   3.425   5.973  14.860 -0.4001 -0.1924  0.3366
12583TIP3    H159164   3.420   5.883  14.829  1.2075  1.0128 -4.2577
12583TIP3    H259165   3.347   6.016  14.823  0.5556  0.9300 -0.4742
12584TIP3   OH259166   5.003   4.085   4.681  0.2900 -0.7113  0.4804
12584TIP3    H159167   5.063   4.128   4.620  0.3604  0.2119  1.1870
12584TIP3    H259168   4.959   4.018   4.628  0.8024 -0.3487 -0.4234
12585TIP3   OH259169   3.214   4.988   2.273  0.0025  0.2993  0.1875
12585TIP3    H159170   3.281   4.971   2.339 -0.3553 -0.9568  0.2657
12585TIP3    H259171   3.141   5.026   2.321  0.4022  1.0665  0.2055
12586TIP3   OH259172   0.274   6.627   2.865  0.1923  0.4204  0.1036
12586TIP3    H159173   0.237   6.681   2.934 -0.0199  0.5704 -0.1235
12586TIP3    H259174   0.201   6.573   2.835  0.3566  0.1433  0.2016
12587TIP3   OH259175   2.350   5.909   5.585  0.1139  0.3708 -0.3244
12587TIP3    H159176   2.352   5.996   5.624  0.2660 -1.0579  3.1424
12587TIP3    H259177   2.283   5.861   5.633 -0.0957 -1.4400 -2.2448
12588TIP3   OH259178   3.047   2.334   2.024 -0.0866  0.0866 -0.4297
12588TIP3    H159179   2.982   2.305   1.960  0.0754 -1.2227 -0.0281
12588TIP3    H259180   2.995   2.372   2.095 -0.2700  1.5083 -1.2803
12589TIP3   OH259181   0.473   3.152  12.777 -0.8387 -0.5250 -0.1982
12589TIP3    H159182   0.451   3.201  12.698  1.4599  0.2207 -0.4627
12589TIP3    H259183   0.471   3.061  12.750  0.1355 -0.2678 -1.2133
12590TIP3   OH259184   1.191   0.580   1.143 -0.0948  0.1797  0.0962
12590TIP3    H159185   1.116   0.520   1.148  0.2605 -0.3716 -0.9046
12590TIP3    H259186   1.164   0.657   1.193 -1.0212 -0.3379  0.4089
12591TIP3   OH259187   0.862   5.741  11.912  0.0112 -0.2542 -0.1579
12591TIP3    H159188   0.788   5.754  11.851  0.8314 -0.3735 -1.2122
12591TIP3    H259189   0.824   5.691  11.984 -0.6612 -1.5329 -1.3297
12592TIP3   OH259190   5.997   0.373  14.962  0.2720  0.3108  0.4627
12592TIP3    H159191   5.973   0.339  14.876  1.5194  0.8187 -0.1189
12592TIP3    H259192   5.914   0.403  15.001 -0.5260 -1.3546  0.1086
12593TIP3   OH259193   1.694   4.506   3.162  0.1458 -0.0239  0.0802
12593TIP3    H159194   1.779   4.510   3.207  0.4150  3.6021 -0.4457
12593TIP3    H259195   1.715   4.524   3.070 -1.0634 -0.7817 -0.3633
12594TIP3   OH259196   1.784   0.494   1.652  0.5903  0.0818 -0.0976
12594TIP3    H159197   1.848   0.542   1.600 -0.1612  0.2218 -0.9230
12594TIP3    H259198   1.715   0.470   1.590  0.6811 -1.6241  0.3932
12595TIP3   OH259199   2.650   3.253   4.944  0.5086 -0.1680  0.5102
12595TIP3    H159200   2.699   3.334   4.933 -1.4144  1.3636  2.2594
12595TIP3    H259201   2.614   3.259   5.033 -1.1142 -2.1380  0.0632
12596TIP3   OH259202   6.429   4.944  14.815 -0.3631  0.3319  0.2715
12596TIP3    H159203   6.363   5.013  14.812 -2.0138 -1.2156 -0.1162
12596TIP3    H259204   6.385   4.867  14.781  0.9161 -1.3553  2.2167
12597TIP3   OH259205   0.529   1.294  12.778 -0.5100  0.5002 -0.3995
12597TIP3    H159206   0.557   1.322  12.866 -1.5225 -1.1564  0.5004
12597TIP3    H259207   0.542   1.372  12.723  2.2886  0.9427  0.7008
12598TIP3   OH259208   5.757   4.415  13.091  0.6736 -0.2102 -0.3204
12598TIP3    H159209   5.783   4.447  13.177  0.1782 -0.1718 -0.1836
12598TIP3    H259210   5.766   4.492  13.034  0.3320 -0.0525 -0.1643
12599TIP3   OH259211   3.550   1.118   0.077 -0.1870 -0.3713 -0.2730
12599TIP3    H159212   3.469   1.133   0.125 -1.3900 -2.5410 -1.5001
12599TIP3    H259213   3.619   1.127   0.143 -1.5799 -0.7412  1.2957
12600TIP3   OH259214   6.572   3.761   2.844 -0.6019  0.1201 -0.3640
12600TIP3    H159215   6.568   3.780   2.750 -0.6980 -0.7080 -0.5382
12600TIP3    H259216   6.665   3.751   2.862 -0.6160 -0.2368 -0.4837
12601TIP3   OH259217   4.504   0.689   2.599 -0.1940  0.0396 -0.1232
12601TIP3    H159218   4.411   0.688   2.577 -0.2437 -2.4826 -0.0807
12601TIP3    H259219   4.513   0.625   2.670  1.6536 -0.2192 -0.5289
12602TIP3   OH259220   6.064   2.438   2.646  0.3264  0.0074  0.1620
12602TIP3    H159221   6.091   2.388   2.723  1.6598 -0.7284 -0.7548
12602TIP3    H259222   6.114   2.519   2.652 -0.8121  0.6922  0.9149
12603TIP3   OH259223   4.379   3.972   0.995 -0.2023  0.1642 -0.0607
12603TIP3    H159224   4.406   3.918   1.069  0.1928  0.2702 -0.1211
12603TIP3    H259225   4.325   3.915   0.941 -1.1536  0.3179  0.7101
12604TIP3   OH259226   6.487   6.041   0.367 -0.1616 -0.4892 -0.0948
12604TIP3    H159227   6.463   6.007   0.453  1.2985 -0.6368  0.2757
12604TIP3    H259228   6.427   6.115   0.354  0.2796  0.2106  1.5265
12605TIP3   OH259229   1.445   0.310   3.065  0.4140 -0.2290 -0.0725
12605TIP3    H159230   1.529   0.323   3.111  0.4175 -1.1537  0.2066
12605TIP3    H259231   1.454   0.361   2.985  1.8782 -1.4989 -0.7928
12606TIP3   OH259232   4.808   3.165   0.074  0.2050 -0.4539  0.4892
12606TIP3    H159233   4.737   3.180   0.136 -1.5627 -1.5426 -1.1450
12606TIP3    H259234   4.805   3.071   0.057  1.0791 -0.2823 -0.7379
12607TIP3   OH259235   4.367   1.150   2.611 -0.3615 -0.0660  1.0223
12607TIP3    H159236   4.424   1.223   2.589 -2.0768  1.3928  1.1354
12607TIP3    H259237   4.426   1.081   2.640  1.3493  1.1472  0.5770
12608TIP3   OH259238   4.314   2.901  14.811  0.3361 -0.3906 -0.1053
12608TIP3    H159239   4.237   2.854  14.778 -0.2740 -0.1890  0.9899
12608TIP3    H259240   4.389   2.854  14.773 -0.3024 -0.0454 -1.9208
12609TIP3   OH259241   2.699   0.022   2.696 -0.5529 -0.6909  0.3937
12609TIP3    H159242   2.667   0.038   2.608 -1.1367  0.4609  0.7998
12609TIP3    H259243   2.716  -0.073   2.699  1.1202 -0.5219 -1.4725
12610TIP3   OH259244   6.752   1.727  13.846  0.0357  0.0351  0.3062
12610TIP3    H159245   6.676   1.731  13.789 -0.9210 -1.8152  1.3515
12610TIP3    H259246   6.827   1.742  13.788 -1.0921  5.4014 -0.2784
12611TIP3   OH259247   5.640   6.720   3.103  0.1825 -0.5669 -0.0664
12611TIP3    H159248   5.615   6.790   3.041 -0.0176  1.3698  2.0828
12611TIP3    H259249   5.557   6.693   3.142  0.4076 -1.1188  0.0279
12612TIP3   OH259250   2.376   2.026  14.939  0.4145 -0.7468 -0.4390
12612TIP3    H159251   2.462   1.988  14.925  0.7482 -0.5388  0.8850
12612TIP3    H259252   2.356   2.007  15.031  0.0704  1.2045 -0.0702
12613TIP3   OH259253   5.378   5.914   4.340  0.3263 -0.0853  0.1801
12613TIP3    H159254   5.337   5.994   4.305  1.3587  0.0373 -0.7866
12613TIP3    H259255   5.312   5.879   4.400 -1.2602  0.0614 -1.3830
12614TIP3   OH259256   0.308   2.912   6.162  0.5992 -0.6834 -0.0926
12614TIP3    H159257   0.382   2.948   6.210  0.1262 -0.1139  0.2310
12614TIP3    H259258   0.331   2.924   6.070  2.2621 -3.2857 -0.1209
12615TIP3   OH259259   0.009   2.602  15.054 -0.1515  0.0365  0.2656
12615TIP3    H159260   0.051   2.688  15.054 -1.5224  0.7204  0.0144
12615TIP3    H259261   0.070   2.545  15.007 -0.1993  1.3607 -1.4759
12616TIP3   OH259262   0.164   4.109  13.345  0.2754  0.2233  0.0068
12616TIP3    H159263   0.128   4.125  13.433 -0.2243  0.8391 -0.3074
12616TIP3    H259264   0.182   4.015  13.344 -0.6547  0.0261  0.4263
12617TIP3   OH259265   5.645   2.868  11.046  0.0449 -0.2723  0.0851
12617TIP3    H159266   5.594   2.828  11.117 -0.1809 -2.3171 -1.1398
12617TIP3    H259267   5.579   2.904  10.987  0.2520  2.2627  1.2837
12618TIP3   OH259268   2.934   0.500   5.251  0.3786 -0.0047  0.1200
12618TIP3    H159269   2.958   0.407   5.247  1.8529  0.3852 -0.6868
12618TIP3    H259270   2.943   0.523   5.344 -0.7045 -0.8237  0.4455
12619TIP3   OH259271   6.313   5.559   1.279  0.3232  0.3613  0.3801
12619TIP3    H159272   6.388   5.500   1.278 -0.8212 -1.1637 -1.1534
12619TIP3    H259273   6.352   5.647   1.281  2.0891 -0.3858  1.2059
12620TIP3   OH259274   0.056   6.210   0.527 -0.1030 -0.3248  0.1956
12620TIP3    H159275  -0.027   6.256   0.520 -0.8961 -1.4859  1.4014
12620TIP3    H259276   0.065   6.161   0.445  0.0278  0.7678 -0.4602
12621TIP3   OH259277   1.407   5.071  15.473  0.3834  0.5268 -0.3553
12621TIP3    H159278   1.371   5.092  15.559 -0.9444  0.9178 -0.9896
12621TIP3    H259279   1.376   4.983  15.455  0.6421  0.4551 -0.4465
12622TIP3   OH259280   2.803   1.685  11.812 -0.0893  0.3348  0.2032
12622TIP3    H159281   2.762   1.720  11.733  0.7803  0.0701 -0.3820
12622TIP3    H259282   2.845   1.604  11.783 -2.6977 -1.7070  1.6649
12623TIP3   OH259283   3.974   1.226  11.540 -0.1583 -0.0025  0.3972
12623TIP3    H159284   4.014   1.310  11.563 -0.2648 -0.2458  1.5093
12623TIP3    H259285   4.045   1.178  11.496  0.3461  0.1098  1.0755
12624TIP3   OH259286   5.288   3.520  16.026  0.4971 -0.3580  0.1597
12624TIP3    H159287   5.240   3.589  16.071 -1.3384 -3.5854  3.7429
12624TIP3    H259288   5.237   3.504  15.946 -0.0311  1.1838  0.1532
12625TIP3   OH259289   2.907   2.040   4.472 -0.0539  0.1729  0.5618
12625TIP3    H159290   2.930   2.079   4.388 -0.2911  1.0215  0.8877
12625TIP3    H259291   2.836   2.094   4.506  0.2950  0.0735  1.4897
12626TIP3   OH259292   1.777   1.105   3.563 -0.4753  0.3367 -0.0903
12626TIP3    H159293   1.767   1.123   3.657  0.7612 -0.4314  0.2154
12626TIP3    H259294   1.870   1.117   3.546 -0.5587 -0.2895 -1.0561
12627TIP3   OH259295   5.962   0.325  14.350  0.2728 -0.3026  0.1888
12627TIP3    H159296   5.945   0.418  14.339  0.4653 -0.4042 -1.2370
12627TIP3    H259297   5.883   0.290  14.392  0.7268  0.6888  1.9670
12628TIP3   OH259298   5.198   3.497  13.911  0.1486  0.0038  0.4893
12628TIP3    H159299   5.216   3.531  13.823 -2.1516 -0.3279 -0.1681
12628TIP3    H259300   5.266   3.537  13.965  0.2497  2.0888 -1.0224
12629TIP3   OH259301   0.028   4.457   4.000 -0.0245  0.4617 -0.3772
12629TIP3    H159302  -0.037   4.481   4.067  0.1245  0.6282 -0.2914
12629TIP3    H259303  -0.021   4.458   3.918  0.0692  1.4443 -0.4263
12630TIP3   OH259304   0.952   3.156  10.882  0.7975 -0.4954  0.8258
12630TIP3    H159305   0.926   3.236  10.928  0.3843  0.4504 -0.9367
12630TIP3    H259306   0.873   3.102  10.884  0.4762 -0.0549  0.4258
12631TIP3   OH259307   0.666   0.422  14.168 -0.0838 -0.5094 -0.2071
12631TIP3    H159308   0.736   0.463  14.218 -0.3497 -1.4120  0.9569
12631TIP3    H259309   0.586   0.445  14.215 -0.7571  1.3963 -2.1003
12632TIP3   OH259310   5.707   4.129   3.851 -0.4526  0.2966  0.1451
12632TIP3    H159311   5.659   4.071   3.910 -1.7912 -0.9531 -2.0419
12632TIP3    H259312   5.658   4.211   3.852 -1.0205 -0.0415  0.0449
12633TIP3   OH259313   5.410   6.201   4.597  0.2243  0.5462 -0.3349
12633TIP3    H159314   5.429   6.289   4.565 -0.5436  0.3143 -1.4956
12633TIP3    H259315   5.428   6.144   4.523 -0.1238 -0.1851  0.1274
12634TIP3   OH259316   1.327   2.851   0.724 -0.2416  0.1338 -0.3050
12634TIP3    H159317   1.318   2.945   0.709 -0.4358 -0.0623 -1.5198
12634TIP3    H259318   1.281   2.810   0.650  0.3574 -0.9125 -0.1178
12635TIP3   OH259319   3.300   5.377   6.299  0.5290 -0.4422 -0.1373
12635TIP3    H159320   3.379   5.393   6.350  0.6438  0.1566 -0.4910
12635TIP3    H259321   3.245   5.323   6.356  1.0456 -0.5722  0.2446
12636TIP3   OH259322   5.338   5.490  12.616 -0.8197  0.3484 -0.2639
12636TIP3    H159323   5.427   5.482  12.582 -0.5782 -0.7427  0.5458
12636TIP3    H259324   5.332   5.422  12.683 -1.4993  1.9270  1.3552
12637TIP3   OH259325   3.836   3.534   5.069  0.2231 -0.0675 -0.2106
12637TIP3    H159326   3.846   3.451   5.115  1.7202  0.6417  0.8104
12637TIP3    H259327   3.925   3.560   5.046 -0.2542  1.0556 -0.8955
12638TIP3   OH259328   0.606   6.612  13.897  0.1444 -0.3440  0.4608
12638TIP3    H159329   0.531   6.669  13.914 -1.7598 -1.8401 -2.2115
12638TIP3    H259330   0.573   6.547  13.834  3.7080 -1.0805 -0.8521
12639TIP3   OH259331   5.049   1.593   5.962 -0.2205  0.3594 -0.0852
12639TIP3    H159332   5.110   1.658   5.930 -2.8674  2.0580 -2.1540
12639TIP3    H259333   4.991   1.575   5.888 -1.5193 -2.0431  1.3479
12640TIP3   OH259334   5.820   2.661  12.424  0.1232 -0.1783 -0.4756
12640TIP3    H159335   5.839   2.720  12.496  1.1692  0.7477 -1.4832
12640TIP3    H259336   5.724   2.654  12.424  0.0931  0.0048  0.8190
12641TIP3   OH259337   6.007   1.942   6.121  0.6941 -0.2269 -0.0309
12641TIP3    H159338   6.076   1.929   6.187  0.3937  1.0663  0.5734
12641TIP3    H259339   5.926   1.945   6.172  0.5699  2.0748 -0.2429
12642TIP3   OH259340   4.480   5.020   1.998 -0.1233  0.4118  0.7425
12642TIP3    H159341   4.437   4.957   2.056 -0.9665  0.2450 -0.0277
12642TIP3    H259342   4.412   5.042   1.934  0.8634  0.3715 -0.3438
12643TIP3   OH259343   3.706   1.461  13.271  0.3355  0.0668  0.0758
12643TIP3    H159344   3.663   1.485  13.189  0.5012 -0.1010 -0.0616
12643TIP3    H259345   3.702   1.540  13.325  0.4047  0.2357 -0.1676
12644TIP3   OH259346   5.211   0.822   4.193 -0.2101  0.2327  0.3772
12644TIP3    H159347   5.121   0.848   4.213 -0.4537 -0.3614  0.0993
12644TIP3    H259348   5.210   0.726   4.203  0.5025  0.2635  0.7984
12645TIP3   OH259349   5.609   0.908   4.233 -0.2989  0.0814  0.1576
12645TIP3    H159350   5.654   0.980   4.189 -0.6061 -0.4999 -1.1636
12645TIP3    H259351   5.516   0.926   4.220 -0.4645  0.7469  2.0055
12646TIP3   OH259352   3.324   0.315   6.443  0.2988  0.0614 -0.3177
12646TIP3    H159353   3.385   0.275   6.380  0.4457  0.8282 -0.6773
12646TIP3    H259354   3.362   0.294   6.529  0.1819 -0.8572 -0.4761
12647TIP3   OH259355   5.983   4.686  16.139 -0.4714  0.2545 -0.2793
12647TIP3    H159356   5.919   4.640  16.085  1.1843 -0.8219 -1.3982
12647TIP3    H259357   5.948   4.678  16.228 -1.1549 -1.6388 -0.6650
12648TIP3   OH259358   2.126   5.926   5.221 -0.0722 -0.3131  0.2381
12648TIP3    H159359   2.121   5.850   5.163 -0.7985  0.3699 -0.6188
12648TIP3    H259360   2.039   5.932   5.260 -0.7402  1.2994 -1.3342
12649TIP3   OH259361   6.646   5.878   5.572 -0.3494 -0.8822 -0.0869
12649TIP3    H159362   6.652   5.800   5.516 -1.7979 -0.5499 -0.7395
12649TIP3    H259363   6.682   5.948   5.518  0.4068 -0.9764  0.2828
12650TIP3   OH259364   3.794   6.218  13.498 -0.1676  1.0041 -0.3846
12650TIP3    H159365   3.782   6.263  13.582 -1.1404 -0.9447  0.5707
12650TIP3    H259366   3.885   6.188  13.500 -1.2139 -2.6637  1.9839
12651TIP3   OH259367   5.962   3.445  13.311 -0.6270  0.0387  0.7004
12651TIP3    H159368   5.891   3.389  13.340  0.0175 -0.3492  1.5583
12651TIP3    H259369   6.038   3.387  13.305 -0.4322  0.3848 -0.4916
12652TIP3   OH259370   2.875   2.522  12.898 -0.2926  0.8705  0.7123
12652TIP3    H159371   2.961   2.543  12.935 -0.7518  1.9673  1.1927
12652TIP3    H259372   2.842   2.605  12.864 -1.3962  0.5864  1.0378
12653TIP3   OH259373   3.354   4.306   1.402  0.1188  0.0118 -0.2622
12653TIP3    H159374   3.364   4.350   1.318  1.3571  1.7711  0.7390
12653TIP3    H259375   3.339   4.214   1.379  1.0396  0.3223 -2.3882
12654TIP3   OH259376   5.984   6.295  14.439 -0.1170  0.2113  0.0250
12654TIP3    H159377   5.990   6.352  14.363 -1.9615  0.7347  0.2144
12654TIP3    H259378   6.073   6.292  14.474  0.2501  2.1237 -0.6063
12655TIP3   OH259379   5.165   6.440  14.135 -1.1860 -0.0297 -0.0453
12655TIP3    H159380   5.095   6.503  14.116 -0.3509  1.9241  2.6381
12655TIP3    H259381   5.246   6.490  14.124 -0.4448 -0.8945  1.1461
12656TIP3   OH259382   3.572   3.447  13.215 -0.6005 -0.2642  0.0475
12656TIP3    H159383   3.483   3.416  13.194 -0.4127 -1.5760  1.0424
12656TIP3    H259384   3.629   3.376  13.185 -0.2076 -1.4927  3.2302
12657TIP3   OH259385   6.319   6.522   1.775 -0.0911  0.3148  0.3201
12657TIP3    H159386   6.302   6.608   1.813  0.1636  0.3365  0.3803
12657TIP3    H259387   6.401   6.532   1.727  0.5200 -0.1827  1.2342
12658TIP3   OH259388   4.555   0.142  12.425  0.2729  0.1849 -0.3886
12658TIP3    H159389   4.544   0.202  12.499 -1.1935  1.0093 -1.2244
12658TIP3    H259390   4.642   0.105  12.437  0.6781  1.4640  0.9036
12659TIP3   OH259391   1.745   2.247   5.901  0.0993 -0.3824  0.2375
12659TIP3    H159392   1.787   2.262   5.985  0.7915 -0.6897 -0.0446
12659TIP3    H259393   1.722   2.334   5.870  1.3386 -0.1162 -0.0026
12660TIP3   OH259394   4.080   4.523  16.432 -0.2476 -0.2313  0.0420
12660TIP3    H159395   4.137   4.598  16.414  0.2298 -0.3073  1.1693
12660TIP3    H259396   4.088   4.468  16.354 -0.5997  0.8742 -0.7962
12661TIP3   OH259397   0.718   1.517  10.529 -0.0800  0.4367 -0.1365
12661TIP3    H159398   0.739   1.439  10.478  1.1087  0.3914  0.3890
12661TIP3    H259399   0.717   1.487  10.620 -2.1702  0.5098 -0.0656
12662TIP3   OH259400   1.441   0.789   6.135 -0.2305 -0.1305  0.0528
12662TIP3    H159401   1.434   0.812   6.228 -1.2117 -1.8926  0.4565
12662TIP3    H259402   1.367   0.834   6.094  0.2085  0.6566  0.1057
12663TIP3   OH259403   4.149   1.196  12.215  0.2881 -0.1149  0.6151
12663TIP3    H159404   4.134   1.177  12.123 -0.4837 -2.1939  1.1253
12663TIP3    H259405   4.061   1.210  12.252  0.3837 -1.5378  1.4541
12664TIP3   OH259406   4.669   1.322   5.352 -0.6348 -0.1074  0.9519
12664TIP3    H159407   4.577   1.308   5.373 -0.5661 -1.5914  0.3154
12664TIP3    H259408   4.669   1.352   5.261 -0.4739 -0.3619  0.8674
12665TIP3   OH259409   5.925   5.948   4.972  0.3802  0.5245 -0.1387
12665TIP3    H159410   5.987   6.017   4.949 -0.3254  1.1860 -0.0886
12665TIP3    H259411   5.858   5.952   4.904  0.1102  0.1724  0.1060
12666TIP3   OH259412   4.883   5.229  17.010  0.1234 -0.1098 -0.1009
12666TIP3    H159413   4.908   5.148  17.053  1.0434  0.9967  1.5336
12666TIP3    H259414   4.885   5.295  17.079 -1.5355  1.1487 -1.1802
12667TIP3   OH259415   3.541   0.953  14.676 -0.6833 -0.3116 -0.3719
12667TIP3    H159416   3.517   0.945  14.768 -3.2154 -2.6240 -1.0748
12667TIP3    H259417   3.523   0.866  14.639  0.9521  0.3165 -2.9122
12668TIP3   OH259418   0.538   3.454   2.269  0.2098 -0.4869  0.5073
12668TIP3    H159419   0.449   3.447   2.302  0.6240 -1.5154  1.4776
12668TIP3    H259420   0.533   3.520   2.200 -1.1653 -0.0555  0.9832
12669TIP3   OH259421   3.696   1.625   1.161  0.2070  0.1091  0.3344
12669TIP3    H159422   3.725   1.699   1.108 -1.8189  2.4520  2.2495
12669TIP3    H259423   3.767   1.612   1.225  0.6581  0.2449 -0.1332
12670TIP3   OH259424   6.661   5.725   4.426 -0.8596  0.2916  0.8102
12670TIP3    H159425   6.670   5.800   4.485 -3.1665 -1.0863  3.1382
12670TIP3    H259426   6.578   5.685   4.451  0.6249 -3.5609  0.3697
12671TIP3   OH259427   5.485   2.940   2.302  0.1523  0.3631  0.1097
12671TIP3    H159428   5.460   3.033   2.302 -0.8753  0.0922  0.0863
12671TIP3    H259429   5.410   2.895   2.263  0.6754 -0.4756  0.0565
12672TIP3   OH259430   0.649   0.241   0.185 -0.5469  0.2970  0.1763
12672TIP3    H159431   0.739   0.224   0.156 -0.6899 -0.5180  0.1654
12672TIP3    H259432   0.657   0.313   0.248 -0.1530  1.7003 -1.4104
12673TIP3   OH259433   6.276   1.591  13.110  0.4148 -0.3208 -0.0780
12673TIP3    H159434   6.209   1.577  13.043  1.2361 -0.2808 -0.9315
12673TIP3    H259435   6.236   1.652  13.171 -1.3862 -2.4771  1.0147
12674TIP3   OH259436   5.482   0.609   5.599 -0.2041  0.0526 -0.2434
12674TIP3    H159437   5.459   0.675   5.665 -2.2398  1.2530 -2.0133
12674TIP3    H259438   5.434   0.531   5.626  0.1664  0.0813  0.5062
12675TIP3   OH259439   3.058   3.209  11.868 -0.3686  0.2910 -0.0457
12675TIP3    H159440   3.097   3.133  11.826 -0.2039  0.1183  0.4109
12675TIP3    H259441   3.130   3.248  11.918 -0.5044  0.6207 -0.1031
12676TIP3   OH259442   1.124   3.104  15.050  0.0171  0.1952  0.2849
12676TIP3    H159443   1.086   3.191  15.062  1.3849  0.8712 -0.0245
12676TIP3    H259444   1.166   3.108  14.964  2.4271  0.1896  1.3664
12677TIP3   OH259445   6.414   1.954  15.187 -0.2435  0.2750 -0.0055
12677TIP3    H159446   6.503   1.923  15.171 -0.6932 -0.4362 -1.2921
12677TIP3    H259447   6.419   2.049  15.173  0.2661  0.2069 -0.2983
12678TIP3   OH259448   5.680   4.973  16.110  0.1252 -0.2339 -0.4578
12678TIP3    H159449   5.607   5.010  16.060  0.8201 -0.1651 -1.4635
12678TIP3    H259450   5.655   4.983  16.201  0.3177  2.8531 -0.6528
12679TIP3   OH259451   0.772   0.066  16.208  0.1920 -0.0247  0.0551
12679TIP3    H159452   0.690   0.106  16.238  0.9027  0.4345  1.4686
12679TIP3    H259453   0.752  -0.027  16.205  0.1004 -0.1294  2.1920
12680TIP3   OH259454   4.236   3.166   2.425 -0.0766 -0.5147  0.2522
12680TIP3    H159455   4.202   3.112   2.497 -1.8106  1.3319  0.9025
12680TIP3    H259456   4.239   3.255   2.460 -0.0019  0.2913 -1.6530
12681TIP3   OH259457   4.050   4.809   2.348  0.0924  0.0928  0.3846
12681TIP3    H159458   4.068   4.882   2.288 -2.7486  1.4508  1.0162
12681TIP3    H259459   4.127   4.804   2.404  0.5778  2.2982 -0.0054
12682TIP3   OH259460   0.489   3.935   5.511  0.3596  0.4639 -0.5936
12682TIP3    H159461   0.542   3.909   5.436  0.0298  0.2544 -0.7586
12682TIP3    H259462   0.409   3.883   5.502 -0.5774  1.9735 -1.2634
12683TIP3   OH259463   5.289   1.311   0.820  0.1020 -0.4006  0.3106
12683TIP3    H159464   5.352   1.355   0.762 -1.5531  1.1199 -0.4610
12683TIP3    H259465   5.338   1.292   0.900  0.7833  3.9971  1.2107
12684TIP3   OH259466   1.240   6.091   1.520 -0.2538  0.2855  0.0412
12684TIP3    H159467   1.253   6.052   1.434 -0.2567 -0.7619  0.4950
12684TIP3    H259468   1.185   6.167   1.504  1.2040  1.1401 -1.1012
12685TIP3   OH259469   0.476   1.081   3.391 -0.0630 -0.3974  0.1030
12685TIP3    H159470   0.454   1.119   3.476  1.8456 -0.9274  0.8879
12685TIP3    H259471   0.453   0.988   3.400 -2.5613  0.0196 -1.0224
12686TIP3   OH259472   2.801   1.027  12.190 -0.0220  0.2799  0.0643
12686TIP3    H159473   2.819   0.989  12.104 -1.4280 -0.9535  0.2740
12686TIP3    H259474   2.886   1.027  12.235  0.3193 -1.1981 -0.5233
12687TIP3   OH259475   5.914   5.957   3.639 -0.3469 -0.1562 -0.2714
12687TIP3    H159476   5.957   5.943   3.555  1.6515 -0.3853  0.7296
12687TIP3    H259477   5.953   5.891   3.697 -2.2726 -0.5414  0.6576
12688TIP3   OH259478   1.580   4.841  12.266  0.3590 -0.8300 -0.4265
12688TIP3    H159479   1.498   4.825  12.220 -1.8251  0.9428  2.5689
12688TIP3    H259480   1.571   4.796  12.350  0.9850  1.9927  1.2998
12689TIP3   OH259481   2.463   2.195   4.294 -0.2314  0.2142  0.1914
12689TIP3    H159482   2.425   2.261   4.235 -0.3324  0.1777  0.2175
12689TIP3    H259483   2.515   2.246   4.356  0.1526  0.2313 -0.1365
12690TIP3   OH259484   3.494   5.717  10.429 -0.1798  0.0058  0.4601
12690TIP3    H159485   3.444   5.639  10.452  0.6105 -0.6048  0.1307
12690TIP3    H259486   3.427   5.781  10.403 -0.7455 -1.5891 -2.4362
12691TIP3   OH259487   4.085   1.498  11.529  0.1345 -0.1422 -0.2362
12691TIP3    H159488   4.162   1.506  11.472  1.0166  0.3346  0.9954
12691TIP3    H259489   4.022   1.560  11.492  0.4062 -0.3833 -1.1321
12692TIP3   OH259490   3.529   4.020   1.985  0.4595 -0.3379 -0.3448
12692TIP3    H159491   3.584   4.081   2.034  0.3101 -0.0050 -0.5846
12692TIP3    H259492   3.578   3.938   1.984  1.1717  0.0839 -0.9570
12693TIP3   OH259493   1.103   6.438  15.765  0.1868  0.0672  0.1379
12693TIP3    H159494   1.081   6.520  15.721  0.5350  0.0413 -0.0853
12693TIP3    H259495   1.122   6.464  15.855  0.9651  0.3354 -0.0902
12694TIP3   OH259496   6.650   6.077   2.569 -0.3309 -0.4388 -0.2833
12694TIP3    H159497   6.612   6.121   2.644 -0.6639  1.1751 -1.3597
12694TIP3    H259498   6.577   6.063   2.509  0.3665  0.8457 -1.4919
12695TIP3   OH259499   1.407   0.580  13.090 -0.9602  0.2035  0.3460
12695TIP3    H159500   1.377   0.648  13.150  1.2008  1.9520 -0.4431
12695TIP3    H259501   1.434   0.627  13.011  2.5278 -1.2335  0.5144
12696TIP3   OH259502   0.955   4.104   1.791 -0.1295  0.5889 -0.2928
12696TIP3    H159503   1.028   4.045   1.810  0.2343  1.1143 -0.0250
12696TIP3    H259504   0.996   4.179   1.748 -0.4946  0.9447 -0.0235
12697TIP3   OH259505   6.450   1.198   1.914  0.2027 -0.4868  0.2651
12697TIP3    H159506   6.471   1.288   1.889  0.0280 -0.3169  0.7261
12697TIP3    H259507   6.535   1.157   1.929  0.2562  0.0314  1.5297
12698TIP3   OH259508   0.831   1.588  12.859 -0.4377  0.2546 -0.2603
12698TIP3    H159509   0.874   1.669  12.886  0.3236  0.6029 -2.3621
12698TIP3    H259510   0.804   1.547  12.942  0.3259  1.9901  0.9122
12699TIP3   OH259511   6.251   4.639   4.675  0.0279  0.1714  0.2542
12699TIP3    H159512   6.334   4.673   4.641 -0.1038  1.2289  0.9177
12699TIP3    H259513   6.223   4.573   4.612  1.4719 -0.3407  0.1264
12700TIP3   OH259514   6.048   0.269  15.279  0.0191 -0.3500  0.0188
12700TIP3    H159515   6.039   0.363  15.295 -1.3107 -0.7448  1.9257
12700TIP3    H259516   6.094   0.235  15.355  1.8331 -1.0756 -1.3429
12701TIP3   OH259517   5.360   6.217   0.766 -0.5891  0.7688  0.0065
12701TIP3    H159518   5.368   6.140   0.823  0.7014 -0.5958 -1.9181
12701TIP3    H259519   5.420   6.281   0.803  2.7737 -1.2629 -1.4917
12702TIP3   OH259520   5.083   6.606  12.386  1.0061  0.2020 -0.3383
12702TIP3    H159521   5.112   6.538  12.447 -1.3228 -1.2851 -0.7891
12702TIP3    H259522   5.094   6.568  12.299 -2.6046 -0.7233 -0.5302
12703TIP3   OH259523   5.753   0.636  11.236 -0.0806 -0.5737 -0.0427
12703TIP3    H159524   5.662   0.660  11.217  0.3364  1.3415  0.1206
12703TIP3    H259525   5.799   0.654  11.154  0.0363 -2.4238 -0.4179
12704TIP3   OH259526   0.374   0.117  16.678  0.0787  0.1623  0.2061
12704TIP3    H159527   0.373   0.074  16.593  1.7061 -1.0464  0.7373
12704TIP3    H259528   0.302   0.076  16.727 -0.7066  0.6933 -0.4720
12705TIP3   OH259529   2.035   4.365   3.000 -0.0055 -0.4026  0.0347
12705TIP3    H159530   1.958   4.369   2.944 -1.3541  0.9530  1.8427
12705TIP3    H259531   2.019   4.291   3.058  0.4406 -0.5973 -0.0852
12706TIP3   OH259532   3.209   6.265  17.033  0.4468 -0.0339  0.8208
12706TIP3    H159533   3.206   6.285  17.126  0.0495 -0.9858  1.0212
12706TIP3    H259534   3.302   6.269  17.010  0.4616  1.2568  0.9972
12707TIP3   OH259535   5.089   2.593  15.715  0.1692 -0.0192  0.3233
12707TIP3    H159536   5.152   2.609  15.645 -0.9602  1.5547 -0.3833
12707TIP3    H259537   5.082   2.678  15.760  0.3789 -0.8198  1.9607
12708TIP3   OH259538   6.609   2.503   6.558  0.1147 -0.0251 -0.7161
12708TIP3    H159539   6.633   2.416   6.526 -2.0766 -0.7248 -0.6534
12708TIP3    H259540   6.670   2.520   6.630  1.2245 -1.0632 -1.3857
12709TIP3   OH259541   0.855   3.326  14.701 -0.1367  0.4140 -0.3207
12709TIP3    H159542   0.881   3.234  14.700  0.5137  0.5891 -0.3019
12709TIP3    H259543   0.796   3.334  14.776  0.7053  0.2401  0.3805
12710TIP3   OH259544   3.150   3.127  16.120  0.4341  0.2440 -0.0865
12710TIP3    H159545   3.191   3.043  16.102  1.9222  1.3826 -2.4235
12710TIP3    H259546   3.061   3.118  16.086  0.9823 -0.0155 -1.5241
12711TIP3   OH259547   2.001   2.666  12.112  0.3655 -0.0682 -0.1476
12711TIP3    H159548   1.985   2.754  12.144 -2.1823 -0.2722 -0.6667
12711TIP3    H259549   2.078   2.675  12.055  0.7512  1.5972  0.5842
12712TIP3   OH259550   2.313   4.142  10.252 -0.4403  0.2940  0.0547
12712TIP3    H159551   2.345   4.210  10.312  0.4837 -0.2528  0.1897
12712TIP3    H259552   2.321   4.061  10.302  1.1155 -0.2826 -1.0702
12713TIP3   OH259553   3.392   3.162   3.461  0.1894 -0.3805 -0.0758
12713TIP3    H159554   3.420   3.101   3.529  2.0188  0.0962 -0.3512
12713TIP3    H259555   3.343   3.229   3.508  0.1067 -0.8738  0.5537
12714TIP3   OH259556   2.651   5.037  15.903 -1.1367  0.1919  0.0432
12714TIP3    H159557   2.587   5.010  15.837 -0.6037  1.7026 -1.1561
12714TIP3    H259558   2.676   5.126  15.878  2.8632 -0.9215 -0.7288
12715TIP3   OH259559   2.214   5.502  13.133 -0.3476 -0.1419 -0.9388
12715TIP3    H159560   2.172   5.441  13.073 -0.8592 -0.7198 -0.0155
12715TIP3    H259561   2.170   5.586  13.117  0.2780 -0.0204 -2.1224
12716TIP3   OH259562   4.481   3.873  13.206  0.1785 -0.0912  0.1080
12716TIP3    H159563   4.545   3.803  13.196 -2.2740 -2.4192 -0.3793
12716TIP3    H259564   4.404   3.843  13.158 -0.9132  3.1572 -0.4814
12717TIP3   OH259565   4.396   6.146   3.228 -0.4214 -0.5836 -0.3200
12717TIP3    H159566   4.407   6.111   3.316  1.3253  0.5543 -0.0274
12717TIP3    H259567   4.315   6.197   3.232  0.6544  1.0905  1.2307
12718TIP3   OH259568   2.970   1.877  12.977 -0.2781 -0.7654 -0.1536
12718TIP3    H159569   3.031   1.818  13.022 -0.6304 -1.1767 -0.2110
12718TIP3    H259570   2.884   1.838  12.991 -0.2328 -2.0830 -2.9168
12719TIP3   OH259571   3.658   4.739  14.767  0.2145  0.1437  0.3518
12719TIP3    H159572   3.614   4.816  14.803 -0.0326 -0.0741  0.5178
12719TIP3    H259573   3.740   4.734  14.815 -0.2324 -0.3044  1.0820
12720TIP3   OH259574   0.936   3.224  16.886  0.5066  0.6713  0.4848
12720TIP3    H159575   0.851   3.199  16.851 -0.0620  3.2025 -0.1706
12720TIP3    H259576   0.932   3.200  16.979  0.2656 -1.8931 -0.1144
12721TIP3   OH259577   3.139   0.616   0.402 -0.0407  0.1778  0.8938
12721TIP3    H159578   3.065   0.666   0.436 -0.1128  1.5352 -1.0863
12721TIP3    H259579   3.210   0.680   0.395  0.4390 -0.4315  0.0518
12722TIP3   OH259580   1.030   2.763  12.895 -0.3791 -0.3570  0.6142
12722TIP3    H159581   1.080   2.799  12.822 -1.8832  1.8124  0.5735
12722TIP3    H259582   1.008   2.674  12.867 -0.4523  0.2368 -1.3409
12723TIP3   OH259583   4.752   4.687   5.113  0.8248 -0.1718 -0.1351
12723TIP3    H159584   4.731   4.668   5.022  0.6143  0.9563 -0.3362
12723TIP3    H259585   4.692   4.631   5.164 -0.8429  1.0179 -0.7029
12724TIP3   OH259586   4.176   0.169  11.766 -0.0958 -0.1234  0.5979
12724TIP3    H159587   4.244   0.218  11.720 -0.7385 -0.9850 -1.3781
12724TIP3    H259588   4.221   0.132  11.842  1.6297 -0.5234 -0.5449
12725TIP3   OH259589   0.409   4.862  12.120 -0.1992 -0.0944  0.5166
12725TIP3    H159590   0.407   4.910  12.037  1.8095 -0.7223  0.0429
12725TIP3    H259591   0.354   4.913  12.179 -1.3848  0.5578 -1.0994
12726TIP3   OH259592   2.219   4.016   0.411  0.1947 -0.4346 -0.2526
12726TIP3    H159593   2.217   4.092   0.353  1.1542 -0.1349  0.0935
12726TIP3    H259594   2.208   3.941   0.352  1.2671 -0.1404 -0.8528
12727TIP3   OH259595   0.935   0.397   2.807  0.3687 -0.8280  0.1731
12727TIP3    H159596   0.987   0.390   2.728  0.0726  0.8679 -0.2284
12727TIP3    H259597   0.854   0.440   2.778  0.4387  0.2291  1.4325
12728TIP3   OH259598   0.635   0.377   1.688 -0.1076  0.4241  0.2552
12728TIP3    H159599   0.572   0.433   1.733  0.9913  1.9151  0.0339
12728TIP3    H259600   0.675   0.324   1.757 -1.5612 -0.5386  0.3969
12729TIP3   OH259601   0.869   1.878  15.172  0.1065 -0.1433  0.6930
12729TIP3    H159602   0.946   1.867  15.228 -1.4193  1.3557  3.2606
12729TIP3    H259603   0.904   1.915  15.091  2.3834 -2.1466  0.6320
12730TIP3   OH259604   5.756   6.342   0.767  0.6361  0.1449 -0.5333
12730TIP3    H159605   5.742   6.303   0.681 -0.9679  0.3274 -0.3769
12730TIP3    H259606   5.669   6.368   0.797  1.2961  1.0864  0.6810
12731TIP3   OH259607   3.258   0.121  15.151  0.1511  0.2451 -0.2702
12731TIP3    H159608   3.310   0.108  15.230 -0.6972  0.0809  0.2821
12731TIP3    H259609   3.237   0.033  15.121 -0.3688  0.3049 -0.0962
12732TIP3   OH259610   4.554   4.215  13.684  0.7106 -0.2962 -0.5860
12732TIP3    H159611   4.643   4.180  13.673  0.6944 -0.3926 -0.4086
12732TIP3    H259612   4.497   4.140  13.669  0.6256 -0.0591 -1.5302
12733TIP3   OH259613   5.337   2.790  16.065 -0.9006 -0.8254  0.1305
12733TIP3    H159614   5.397   2.855  16.103  0.7837 -2.2537  0.0155
12733TIP3    H259615   5.250   2.827  16.080 -0.0960  0.5345  1.8344
12734TIP3   OH259616   6.523   6.363   2.073  0.0188 -0.1304 -0.0026
12734TIP3    H159617   6.536   6.395   2.162  2.6876 -1.5824  0.2427
12734TIP3    H259618   6.475   6.281   2.084 -3.7365  1.8182 -0.3730
12735TIP3   OH259619   3.321   2.065  17.154  0.0896 -0.1481  0.2865
12735TIP3    H159620   3.231   2.046  17.182 -0.5457  2.9635  0.8127
12735TIP3    H259621   3.372   2.065  17.235  0.5029 -1.4517  0.0439
12736TIP3   OH259622   4.512   6.426  12.370 -0.2464 -0.2610  0.1243
12736TIP3    H159623   4.491   6.516  12.394  1.5638 -0.2583  2.0169
12736TIP3    H259624   4.594   6.433  12.320 -1.3232 -0.7096 -1.7835
12737TIP3   OH259625   6.568   3.388  15.484 -0.2372  0.2155 -0.3811
12737TIP3    H159626   6.495   3.366  15.426  0.5600  0.7059 -1.6019
12737TIP3    H259627   6.592   3.304  15.525 -0.7249 -0.1646 -0.8665
12738TIP3   OH259628   5.099   6.231   0.700 -0.3176  0.8634 -0.5480
12738TIP3    H159629   5.036   6.261   0.766  0.6176  3.2204 -0.6377
12738TIP3    H259630   5.184   6.237   0.743  0.1214  0.5781 -1.3525
12739TIP3   OH259631   0.928   2.584   1.328 -0.2051 -0.0459 -0.1508
12739TIP3    H159632   0.863   2.645   1.363 -0.0711  0.1723 -0.2824
12739TIP3    H259633   0.973   2.550   1.406 -2.1014 -2.0866  0.1820
12740TIP3   OH259634   5.101   6.581  16.414  0.2303  0.7632 -0.2083
12740TIP3    H159635   5.192   6.581  16.384  0.4798 -1.3874  0.4052
12740TIP3    H259636   5.053   6.623  16.343  1.3861 -0.2775 -1.6616
12741TIP3   OH259637   0.295   2.822  15.234  0.9292 -0.6006 -0.3197
12741TIP3    H159638   0.217   2.807  15.181  0.6067 -0.9036  0.2312
12741TIP3    H259639   0.353   2.873  15.178  0.2401 -0.1751 -0.6515
12742TIP3   OH259640   3.518   3.785   2.551  0.1471  0.2204  0.4920
12742TIP3    H159641   3.599   3.773   2.501 -0.2344  1.7692 -0.5564
12742TIP3    H259642   3.457   3.824   2.489 -1.4625 -1.0027  1.2375
12743TIP3   OH259643   0.276   1.693   1.204  1.2381 -0.0704 -0.4268
12743TIP3    H159644   0.364   1.722   1.179  1.7502 -1.5550 -0.4128
12743TIP3    H259645   0.233   1.773   1.235  2.5047  0.7219 -0.6312
12744TIP3   OH259646   1.379   6.274   0.844  0.1538 -0.0978 -0.0366
12744TIP3    H159647   1.314   6.211   0.876 -0.2735 -0.5102 -1.6565
12744TIP3    H259648   1.332   6.327   0.780  1.7267 -1.3684 -2.3766
12745TIP3   OH259649   3.816   4.746   5.410 -0.0834  0.3727 -0.0388
12745TIP3    H159650   3.862   4.830   5.396 -2.5039  1.4271 -2.5615
12745TIP3    H259651   3.860   4.685   5.351 -0.2761  0.7018 -0.5298
12746TIP3   OH259652   5.150   0.160   1.650  0.0218  0.0120 -0.1643
12746TIP3    H159653   5.058   0.134   1.654  0.1084 -0.4440 -0.9853
12746TIP3    H259654   5.186   0.136   1.736 -0.3432 -0.9066 -0.2585
12747TIP3   OH259655   0.575   4.402  13.777 -0.1702 -0.0403  0.0498
12747TIP3    H159656   0.620   4.440  13.702  1.3690 -3.9970 -1.3307
12747TIP3    H259657   0.495   4.365  13.741  0.2190 -1.3230  0.4297
12748TIP3   OH259658   2.538   6.550  15.934 -0.0719 -0.0010  0.5384
12748TIP3    H159659   2.459   6.573  15.982  0.8774  1.0790  1.6503
12748TIP3    H259660   2.609   6.589  15.984  1.2037 -1.1269 -0.3098
12749TIP3   OH259661   6.450   5.853   2.184  0.1392 -0.1892  0.5680
12749TIP3    H159662   6.504   5.780   2.154  1.4186  0.4243  1.3418
12749TIP3    H259663   6.497   5.931   2.158 -0.4549  0.3656  1.1112
12750TIP3   OH259664   6.085   1.336  12.394  0.8432 -0.3312  0.1379
12750TIP3    H159665   6.147   1.366  12.461  1.2321  2.0734 -1.1664
12750TIP3    H259666   6.130   1.352  12.311 -0.3932 -1.3785 -0.7700
12751TIP3   OH259667   4.692   3.045  12.595  0.2739 -0.2927  0.4960
12751TIP3    H159668   4.748   3.002  12.659 -0.6071  1.4260  2.5712
12751TIP3    H259669   4.612   2.993  12.594  0.2372 -0.2424  0.9103
12752TIP3   OH259670   3.430   3.526  10.606 -0.3685  0.0520  0.4468
12752TIP3    H159671   3.435   3.589  10.534 -1.2386 -0.4077 -0.0273
12752TIP3    H259672   3.337   3.504  10.613 -0.2513 -0.1946  1.4701
12753TIP3   OH259673   4.114   3.892   1.942  0.1136 -0.3870  0.3019
12753TIP3    H159674   4.161   3.829   1.997  2.5765 -1.2610 -2.5381
12753TIP3    H259675   4.177   3.961   1.924 -0.9928  0.4545 -0.5082
12754TIP3   OH259676   5.811   4.648  16.672 -0.3968 -0.1384  0.8501
12754TIP3    H159677   5.792   4.633  16.764  0.6107  0.2640  1.1397
12754TIP3    H259678   5.900   4.614  16.659 -0.1149  0.7422  0.2948
12755TIP3   OH259679   0.037   4.717  11.341 -0.4105  0.2009 -0.3303
12755TIP3    H159680  -0.008   4.751  11.419 -0.8441  1.2830 -1.0326
12755TIP3    H259681  -0.006   4.633  11.323  0.1336 -0.3792  0.9698
12756TIP3   OH259682   2.437   4.269   4.491  0.6480 -0.0110  0.7300
12756TIP3    H159683   2.468   4.238   4.576 -1.5909 -0.1073  1.5584
12756TIP3    H259684   2.401   4.355   4.509 -0.0570 -0.1313 -0.0767
12757TIP3   OH259685   4.904   0.847   4.247 -0.4463  0.0165 -0.3881
12757TIP3    H159686   4.885   0.754   4.262 -1.7153 -0.0936 -2.3333
12757TIP3    H259687   4.833   0.893   4.291  1.1999  0.2421  2.2330
12758TIP3   OH259688   1.008   5.255   3.509  0.2374  0.4317  0.3372
12758TIP3    H159689   1.003   5.348   3.531 -0.8365  0.5471 -0.3193
12758TIP3    H259690   0.923   5.220   3.534  0.0100 -0.0097 -0.9611
12759TIP3   OH259691   6.645   0.399   3.937 -0.5135  0.6171 -0.2299
12759TIP3    H159692   6.648   0.484   3.981 -1.0003  0.0388  0.9591
12759TIP3    H259693   6.611   0.339   4.003  1.3261 -0.8416 -0.5122
12760TIP3   OH259694   0.764   3.314  11.524  0.0149  0.6634 -0.3178
12760TIP3    H159695   0.741   3.315  11.617  3.8167 -0.7795  0.8319
12760TIP3    H259696   0.790   3.224  11.507 -0.0228  1.0446 -2.6332
12761TIP3   OH259697   3.714   2.565  13.428 -0.2492 -0.7845  0.5750
12761TIP3    H159698   3.712   2.659  13.442 -0.8765 -0.7891  0.5291
12761TIP3    H259699   3.785   2.534  13.484 -0.1949 -0.3171  0.7695
12762TIP3   OH259700   6.108   2.672  11.615  0.3252 -0.1341  0.5950
12762TIP3    H159701   6.149   2.703  11.534  0.2548  0.1220  0.6570
12762TIP3    H259702   6.144   2.584  11.628 -1.4366 -1.1399 -0.9699
12763TIP3   OH259703   0.094   5.455  12.351  0.0930  0.2816  0.0233
12763TIP3    H159704   0.108   5.521  12.419  1.3364  0.1967 -0.1323
12763TIP3    H259705   0.046   5.385  12.395  0.6008  0.3651  0.7282
12764TIP3   OH259706   4.831   1.871  14.756  0.5385  0.1056  0.1657
12764TIP3    H159707   4.799   1.790  14.717  0.5293  0.6748 -1.0778
12764TIP3    H259708   4.752   1.925  14.766  0.8307  0.9286 -1.4784
12765TIP3   OH259709   2.078   2.794  13.714  0.2195  0.9114 -0.3706
12765TIP3    H159710   2.158   2.821  13.759  0.5627  0.2231 -0.5506
12765TIP3    H259711   2.103   2.715  13.667 -0.8109  0.1192  0.3561
12766TIP3   OH259712   5.437   4.217   3.482 -0.1809 -0.4080 -0.5354
12766TIP3    H159713   5.428   4.312   3.490 -0.9967 -0.6335  2.1456
12766TIP3    H259714   5.397   4.182   3.561  1.4587 -2.9240 -0.6921
12767TIP3   OH259715   5.210   3.890   3.946  0.3451  0.2865  0.0359
12767TIP3    H159716   5.262   3.966   3.919  0.2739  0.1428 -0.5084
12767TIP3    H259717   5.120   3.919   3.936  0.2419 -0.7689 -2.9205
12768TIP3   OH259718   6.554   3.914   2.582  0.2037 -0.3988  0.2544
12768TIP3    H159719   6.565   4.008   2.566  0.6225 -0.4620  0.1458
12768TIP3    H259720   6.461   3.898   2.569  0.1417 -0.0101  0.2052
12769TIP3   OH259721   2.262   3.941   3.777  0.0843  0.3928 -0.1593
12769TIP3    H159722   2.355   3.953   3.796  0.3339 -0.4124 -0.8393
12769TIP3    H259723   2.232   4.028   3.751  0.6199  0.6806  0.1692
12770TIP3   OH259724   4.492   3.585  10.808  0.2311  0.0040  0.2969
12770TIP3    H159725   4.532   3.599  10.722 -1.7553 -0.2418 -0.7247
12770TIP3    H259726   4.506   3.492  10.826  2.4371  0.4576  1.2487
12771TIP3   OH259727   5.568   1.370   0.318  0.1462  0.3213  0.6759
12771TIP3    H159728   5.565   1.464   0.296  1.7792  0.2667  0.0281
12771TIP3    H259729   5.626   1.333   0.251  1.8110 -0.6481  2.5775
12772TIP3   OH259730   1.618   4.245   1.546 -0.3049  0.5367 -0.3798
12772TIP3    H159731   1.643   4.232   1.454  0.1136 -0.6532 -0.1205
12772TIP3    H259732   1.546   4.308   1.543  0.0080  0.8654 -1.4828
12773TIP3   OH259733   1.957   4.251   3.987  0.3220  0.0178  0.6250
12773TIP3    H159734   2.011   4.318   3.944 -0.3102  0.1324 -0.0256
12773TIP3    H259735   1.929   4.292   4.069  1.1905 -0.0369  0.9577
12774TIP3   OH259736   4.895   6.771  12.469 -0.4820  0.2772  0.4891
12774TIP3    H159737   4.985   6.754  12.441 -1.1455  0.9988 -2.5151
12774TIP3    H259738   4.889   6.866  12.475 -1.2037  0.2803 -0.1117
12775TIP3   OH259739   2.080   4.639  10.771  0.2707  0.2566 -0.3072
12775TIP3    H159740   1.997   4.627  10.724  0.8184 -2.5590 -0.7404
12775TIP3    H259741   2.147   4.620  10.705  1.2959  2.1070  0.1436
12776TIP3   OH259742   4.046   2.313   6.511  0.0935 -0.4584 -0.1843
12776TIP3    H159743   3.995   2.384   6.473  0.4400 -0.2508 -0.2647
12776TIP3    H259744   3.982   2.246   6.533 -0.0948 -0.6330 -1.2573
12777TIP3   OH259745   5.444   1.647   1.028 -0.2341 -0.2790 -0.6443
12777TIP3    H159746   5.478   1.585   0.964 -0.5161 -1.1266  0.0015
12777TIP3    H259747   5.351   1.651   1.011 -0.2009  0.0379 -0.7465
12778TIP3   OH259748   4.742   0.524  11.795 -0.2897  0.2300 -0.4836
12778TIP3    H159749   4.791   0.600  11.828 -0.4240  0.3354 -0.5263
12778TIP3    H259750   4.790   0.448  11.829 -0.1682  0.3335 -0.4211
12779TIP3   OH259751   4.159   0.574   5.082  0.3384 -0.4590 -0.0291
12779TIP3    H159752   4.223   0.602   5.148  0.8671  0.0296 -0.7337
12779TIP3    H259753   4.136   0.654   5.035  1.1293 -1.0152 -1.4316
12780TIP3   OH259754   1.183   2.398   6.563  0.2449 -0.1954 -0.7366
12780TIP3    H159755   1.178   2.483   6.607  0.7267 -0.8396  0.6033
12780TIP3    H259756   1.105   2.396   6.507 -1.0051  0.2150  0.9044
12781TIP3   OH259757   0.757   1.029   3.417 -0.0590 -0.1787  0.4886
12781TIP3    H159758   0.822   1.095   3.391 -0.1789 -0.8712 -1.8096
12781TIP3    H259759   0.673   1.064   3.387  0.0176 -1.8315 -1.9938
12782TIP3   OH259760   4.974   6.737  13.528  0.0455  0.0074 -0.4591
12782TIP3    H159761   5.060   6.771  13.554 -0.0523  1.1932 -1.6365
12782TIP3    H259762   4.976   6.645  13.556  0.1860  0.9584  3.0865
12783TIP3   OH259763   3.096   6.527  11.578 -0.2991  0.0315  0.3321
12783TIP3    H159764   3.027   6.567  11.631 -0.3790 -0.6027  0.7139
12783TIP3    H259765   3.175   6.534  11.631  0.4292  2.6580 -0.9480
12784TIP3   OH259766   0.142   3.248  16.174  0.1505  0.3871  0.2449
12784TIP3    H159767   0.187   3.173  16.135 -0.4980  0.6521 -1.0647
12784TIP3    H259768   0.049   3.230  16.160 -0.0205  1.3431  0.0800
12785TIP3   OH259769   5.220   3.414   1.557 -0.1743  0.0532  0.3902
12785TIP3    H159770   5.285   3.391   1.491  0.2334 -1.2278  1.2121
12785TIP3    H259771   5.245   3.364   1.634  0.6480  3.1441  2.2958
12786TIP3   OH259772   5.368   2.074  11.635  0.0023  0.0517 -0.1042
12786TIP3    H159773   5.370   1.982  11.661  1.9082 -0.3089 -1.3585
12786TIP3    H259774   5.456   2.107  11.654 -0.7529  1.7553  0.6919
12787TIP3   OH259775   3.204   3.026   3.309 -0.2500  0.3647  0.5747
12787TIP3    H159776   3.282   3.067   3.346 -0.9076  0.0254  2.4705
12787TIP3    H259777   3.160   2.986   3.384 -2.8322  1.4672 -0.2416
12788TIP3   OH259778   3.040   1.777   4.291  0.0455 -0.6523  0.3024
12788TIP3    H159779   2.990   1.716   4.238  0.6080 -1.9480  1.2188
12788TIP3    H259780   3.032   1.861   4.245 -1.4510 -1.2091 -0.5216
12789TIP3   OH259781   0.985   5.609  11.329  0.0197  0.3707 -0.2918
12789TIP3    H159782   1.022   5.691  11.296  1.4384 -0.5353 -1.0515
12789TIP3    H259783   1.029   5.541  11.278 -0.7303 -0.8931  0.7010
12790TIP3   OH259784   2.930   6.012  11.267 -0.1265  0.3428 -0.0359
12790TIP3    H159785   2.992   6.077  11.235 -2.4439  1.3157 -2.9665
12790TIP3    H259786   2.854   6.063  11.295 -1.2039 -0.9793 -0.4412
12791TIP3   OH259787   4.126   0.299   5.077 -0.0343  0.2527 -0.0477
12791TIP3    H159788   4.129   0.394   5.088  0.8238  0.1624  0.6154
12791TIP3    H259789   4.203   0.279   5.024 -0.7670  0.0222 -1.0551
12792TIP3   OH259790   5.153   6.554   1.915  0.1247 -0.4210  0.2745
12792TIP3    H159791   5.103   6.483   1.875  1.4800 -1.0471 -0.3487
12792TIP3    H259792   5.242   6.543   1.882  0.2867  1.8394 -0.2116
12793TIP3   OH259793   1.752   6.332   2.521 -0.7198  0.0895  0.2221
12793TIP3    H159794   1.795   6.342   2.606 -1.5505 -1.2959  0.8348
12793TIP3    H259795   1.808   6.272   2.472  0.3855  1.7937 -0.6953
12794TIP3   OH259796   0.060   4.843  14.338 -0.4051  0.1154  0.1848
12794TIP3    H159797   0.053   4.807  14.427 -2.1633 -0.2300 -0.0523
12794TIP3    H259798   0.075   4.766  14.283  1.0430  0.3696  0.2048
12795TIP3   OH259799   1.391   4.528  13.021 -0.4963  0.6083  0.4755
12795TIP3    H159800   1.328   4.552  13.090  0.2498  3.4179  0.3280
12795TIP3    H259801   1.408   4.611  12.976  3.2406 -0.0366  0.4486
12796TIP3   OH259802   3.848   0.969  15.183 -0.1850 -0.2272  0.2655
12796TIP3    H159803   3.851   1.019  15.264  1.4241 -0.2866  0.2745
12796TIP3    H259804   3.861   1.035  15.114  1.4827 -0.5206  0.2538
12797TIP3   OH259805   4.628   1.715  13.930  0.3226  0.5524 -0.1295
12797TIP3    H159806   4.568   1.749  13.864  0.0741 -0.4182 -0.4125
12797TIP3    H259807   4.638   1.623  13.909  1.0336  0.4526  0.5919
12798TIP3   OH259808   2.519   2.306   3.107 -0.2268  0.3585 -0.0261
12798TIP3    H159809   2.444   2.319   3.048  0.3386  1.5493 -0.5226
12798TIP3    H259810   2.584   2.261   3.052 -0.0239  0.6931 -0.0659
12799TIP3   OH259811   3.210   3.325   3.655 -0.3109  0.2773 -0.1449
12799TIP3    H159812   3.243   3.368   3.734 -2.0377  1.1379  0.1582
12799TIP3    H259813   3.167   3.246   3.687  3.4657 -2.2640 -0.7600
12800TIP3   OH259814   1.579   6.280   2.153 -0.3305  0.5409  0.0520
12800TIP3    H159815   1.518   6.351   2.138 -0.6072 -0.0034 -1.5812
12800TIP3    H259816   1.551   6.210   2.093  1.7075  0.1838 -0.5832
12801TIP3   OH259817   2.022   0.535  16.389  0.5819 -0.2492 -0.0845
12801TIP3    H159818   2.054   0.578  16.310  1.7805 -1.7269 -0.4560
12801TIP3    H259819   1.930   0.514  16.370  1.1682 -1.6579 -1.6211
12802TIP3   OH259820   0.745   1.777  14.144  0.5446 -0.0139  0.0414
12802TIP3    H159821   0.830   1.821  14.141 -0.4745  2.0621 -2.1712
12802TIP3    H259822   0.691   1.835  14.198 -0.0544 -0.0862 -0.4752
12803TIP3   OH259823   0.657   0.636   5.221  0.0965  0.2363  0.3017
12803TIP3    H159824   0.682   0.711   5.167 -0.0524  0.9090  1.1540
12803TIP3    H259825   0.721   0.635   5.292  0.8788 -1.2219 -0.3798
12804TIP3   OH259826   2.060   3.041  15.332 -0.4712 -0.2963 -0.4499
12804TIP3    H159827   2.040   3.116  15.388 -2.7190  0.4563 -2.1231
12804TIP3    H259828   1.977   2.994  15.324  0.2579 -1.4654 -1.6112
12805TIP3   OH259829   4.872   4.011   5.012  0.2560 -0.1408  0.1885
12805TIP3    H159830   4.919   3.950   5.068  1.4138 -0.4255 -1.0432
12805TIP3    H259831   4.868   3.968   4.927  0.9150  1.3849 -0.6499
12806TIP3   OH259832   5.968   2.412  14.621  0.1580  0.1991 -0.6751
12806TIP3    H159833   5.990   2.500  14.651  0.3446 -0.2293  0.4871
12806TIP3    H259834   5.872   2.411  14.617 -0.0940 -0.5079  2.5765
12807TIP3   OH259835   4.880   2.269  12.680  0.9711 -0.1926  0.1188
12807TIP3    H159836   4.964   2.315  12.680  1.3855 -0.8884  1.3039
12807TIP3    H259837   4.900   2.185  12.721 -0.5531  0.1471  1.6721
12808TIP3   OH259838   5.901   0.301   0.753 -0.7358  0.2302  0.3602
12808TIP3    H159839   5.844   0.362   0.705  0.0713  0.1925 -0.6781
12808TIP3    H259840   5.925   0.235   0.688  0.9834  0.5830  0.5864
12809TIP3   OH259841   4.694   2.735  12.560 -0.4741  0.0047  0.3288
12809TIP3    H159842   4.785   2.753  12.535 -0.4671 -0.0142  0.3410
12809TIP3    H259843   4.699   2.652  12.609 -0.5633 -0.2520 -0.0962
12810TIP3   OH259844   4.769   5.479  14.391 -0.0432  0.7099 -0.0643
12810TIP3    H159845   4.708   5.512  14.325  1.4552  0.6565 -1.5512
12810TIP3    H259846   4.839   5.545  14.395  0.9565 -0.3124 -0.1192
12811TIP3   OH259847   6.087   4.521   6.557  0.0669  0.1111 -0.1684
12811TIP3    H159848   6.161   4.520   6.617  0.2413  2.6579 -0.2411
12811TIP3    H259849   6.098   4.441   6.505  1.8715 -0.3636  0.8368
12812TIP3   OH259850   1.892   2.571  13.185 -0.3305  0.1288  0.2259
12812TIP3    H159851   1.983   2.541  13.173 -0.7137 -0.9072 -0.1888
12812TIP3    H259852   1.854   2.509  13.246 -1.1940 -0.3749 -0.7799
12813TIP3   OH259853   2.295   3.930  12.421  0.3326  0.3761  0.0077
12813TIP3    H159854   2.381   3.945  12.459 -0.9760  0.9061  3.0885
12813TIP3    H259855   2.307   3.855  12.363  3.0970  1.3057 -0.7799
12814TIP3   OH259856   2.958   2.010  16.978 -0.5629  0.1136 -0.7137
12814TIP3    H159857   2.955   2.100  16.946 -0.0315  0.5527  0.4309
12814TIP3    H259858   2.888   1.965  16.930 -2.1082  1.5908  0.0374
12815TIP3   OH259859   2.754   0.907  15.036  0.3755  0.6337 -0.2473
12815TIP3    H159860   2.730   0.832  14.983  2.3731  0.5321 -1.1048
12815TIP3    H259861   2.782   0.974  14.973 -1.4223  2.1793  0.4872
12816TIP3   OH259862   5.102   5.465  11.700  0.0801  0.6428  0.2670
12816TIP3    H159863   5.192   5.493  11.687 -0.7022  1.8568 -4.6273
12816TIP3    H259864   5.053   5.547  11.713 -0.6051  0.2455  0.2775
12817TIP3   OH259865   1.886   5.924   1.537  0.7063 -1.3042 -0.0174
12817TIP3    H159866   1.810   5.874   1.509  0.8852 -1.4784 -0.1899
12817TIP3    H259867   1.907   5.980   1.463  1.0704 -1.6382 -0.1676
12818TIP3   OH259868   4.240   4.316   3.103 -0.0420  0.0557  0.5491
12818TIP3    H159869   4.149   4.291   3.120 -0.2750 -0.2293 -0.9398
12818TIP3    H259870   4.247   4.406   3.133 -0.5720 -0.2015  1.4682
12819TIP3   OH259871   1.636   2.785  16.687  1.0839 -0.2972 -0.3854
12819TIP3    H159872   1.593   2.866  16.714 -0.9900 -1.0601 -1.1985
12819TIP3    H259873   1.658   2.799  16.595 -0.8525 -1.2190 -1.0363
12820TIP3   OH259874   5.900   4.240   0.383 -0.1798 -0.1931 -0.0807
12820TIP3    H159875   5.878   4.166   0.326  0.6058 -0.7529  0.3314
12820TIP3    H259876   5.994   4.232   0.398 -0.2951  0.2185  0.9154
12821TIP3   OH259877   2.753   2.849   0.381  0.1962  0.4751 -0.3598
12821TIP3    H159878   2.696   2.782   0.418  0.5852  0.3943  0.0952
12821TIP3    H259879   2.693   2.908   0.335 -0.2621  0.4010  0.1278
12822TIP3   OH259880   4.306   3.582   3.471 -1.1759  0.1144  0.0370
12822TIP3    H159881   4.224   3.543   3.442 -0.5319  0.1578 -1.9929
12822TIP3    H259882   4.299   3.675   3.447 -0.2298 -0.0456 -0.9106
12823TIP3   OH259883   4.311   1.068   3.918  0.0551  0.4240 -0.1551
12823TIP3    H159884   4.288   1.137   3.981 -1.5631 -0.5321  0.3665
12823TIP3    H259885   4.227   1.038   3.883  0.7240 -1.1564 -0.5189
12824TIP3   OH259886   0.082   2.824   0.207 -0.2527 -0.3058 -0.0975
12824TIP3    H159887   0.143   2.768   0.158 -0.8479  0.8212 -2.2017
12824TIP3    H259888   0.066   2.899   0.150 -0.2030  1.6086  2.2659
12825TIP3   OH259889   4.795   2.507  15.053 -0.2678  0.0795  0.1204
12825TIP3    H159890   4.834   2.425  15.023 -0.1631  0.0829  0.2425
12825TIP3    H259891   4.738   2.480  15.125 -1.3624 -0.0631 -0.7845
12826TIP3   OH259892   2.522   0.936  11.994  0.3682  0.0190 -0.2045
12826TIP3    H159893   2.470   0.976  11.924  0.1562 -0.5966 -0.3993
12826TIP3    H259894   2.612   0.965  11.975  0.0179  1.9128  0.7022
12827TIP3   OH259895   3.848   2.507  13.704  0.2793 -0.4413 -0.1384
12827TIP3    H159896   3.898   2.432  13.738 -0.5383 -1.3245 -0.8200
12827TIP3    H259897   3.765   2.503  13.752  0.0432 -0.2708 -0.5324
12828TIP3   OH259898   6.364   2.638  11.904  0.1889 -0.7492  0.4066
12828TIP3    H159899   6.428   2.581  11.862  0.1464 -0.2811 -0.3296
12828TIP3    H259900   6.308   2.579  11.954 -0.6319 -1.5376 -1.3269
12829TIP3   OH259901   0.118   6.392   5.051 -0.2196  0.0753  0.2406
12829TIP3    H159902   0.121   6.448   5.129  0.6562  1.4677 -0.7435
12829TIP3    H259903   0.038   6.418   5.006  0.9643  1.7825 -1.0322
12830TIP3   OH259904   1.058   3.651  13.852  0.2020 -0.2706  0.0920
12830TIP3    H159905   1.032   3.589  13.784 -0.0912 -0.9303  0.7900
12830TIP3    H259906   1.144   3.682  13.825 -0.0007 -0.3695 -0.6841
12831TIP3   OH259907   0.623   1.386  15.664  0.4829 -0.3358  0.6039
12831TIP3    H159908   0.680   1.312  15.643 -1.5434 -1.3831 -1.6172
12831TIP3    H259909   0.534   1.350  15.661 -0.5341  1.9900  0.3829
12832TIP3   OH259910   0.823   1.439  15.015  0.6602 -0.8819 -0.1179
12832TIP3    H159911   0.890   1.443  15.083  2.4919 -0.1526 -1.8538
12832TIP3    H259912   0.803   1.531  14.995  0.7648 -1.0634 -1.1139
12833TIP3   OH259913   2.792   3.225  13.544 -0.1228  0.4669  0.8247
12833TIP3    H159914   2.724   3.174  13.588  2.0106 -0.9990  2.7070
12833TIP3    H259915   2.777   3.315  13.573 -1.7767  0.3470  0.4349
12834TIP3   OH259916   5.995   3.997   2.274 -0.4778  0.0435 -0.6273
12834TIP3    H159917   5.903   3.979   2.296 -0.5277  0.9904 -0.0085
12834TIP3    H259918   6.005   4.091   2.289  1.2001 -0.4291  1.6148
12835TIP3   OH259919   6.201   4.332  16.308  0.1760  0.0880  0.4555
12835TIP3    H159920   6.220   4.239  16.295  0.6321  0.1702  0.5197
12835TIP3    H259921   6.265   4.361  16.373 -0.5137  0.2494  1.0674
12836TIP3   OH259922   6.533   0.817  13.802  0.3899  0.5702 -0.7324
12836TIP3    H159923   6.530   0.911  13.822  0.6707  0.6897 -1.2314
12836TIP3    H259924   6.470   0.806  13.731  0.0090  0.2974 -0.3536
12837TIP3   OH259925   3.985   6.393   5.874  0.0855 -0.1571  0.2058
12837TIP3    H159926   3.946   6.306   5.863  0.6559 -0.4083  0.1014
12837TIP3    H259927   4.030   6.388   5.959 -0.5235  0.2919  0.5628
12838TIP3   OH259928   3.060   6.029   1.410 -0.4702 -0.1579  0.4157
12838TIP3    H159929   2.973   5.998   1.435 -1.3868  1.1504 -0.9787
12838TIP3    H259930   3.070   6.003   1.319  1.8177 -2.7306  1.2531
12839TIP3   OH259931   0.761   2.642   6.248  0.4077  0.5765  0.4865
12839TIP3    H159932   0.856   2.646   6.243  0.5805 -2.0782  0.1483
12839TIP3    H259933   0.741   2.628   6.340  0.3472  0.7931  0.5086
12840TIP3   OH259934   5.042   1.706   3.107  0.8672 -0.2838  0.2591
12840TIP3    H159935   5.007   1.648   3.175  0.0091  0.6675  0.6458
12840TIP3    H259936   4.964   1.745   3.067  1.4247  0.4667 -0.1062
12841TIP3   OH259937   1.305   4.132   4.175  0.5301 -0.3587  0.1503
12841TIP3    H159938   1.325   4.167   4.261 -1.8207  0.4171  0.4361
12841TIP3    H259939   1.380   4.158   4.121  0.9315  1.2381  1.3972
12842TIP3   OH259940   5.865   1.627  13.618 -0.1031  0.4235  0.6739
12842TIP3    H159941   5.958   1.606  13.604 -0.3291 -0.2746  0.1451
12842TIP3    H259942   5.862   1.666  13.705  0.3001 -2.1950  1.9401
12843TIP3   OH259943   4.546   4.282   0.471 -0.4155 -0.2157 -0.2963
12843TIP3    H159944   4.462   4.317   0.439 -0.7035 -1.4756 -0.9929
12843TIP3    H259945   4.600   4.275   0.392  0.7314  1.4850  0.2711
12844TIP3   OH259946   6.310   4.979  12.421 -0.7478 -0.5719  0.0692
12844TIP3    H159947   6.316   4.954  12.513 -0.0140  0.5317  0.3431
12844TIP3    H259948   6.327   4.897  12.373  1.4239 -0.7055  0.9266
12845TIP3   OH259949   3.818   6.298   4.179  0.0514 -0.1710 -0.2335
12845TIP3    H159950   3.821   6.223   4.120  0.1757  0.2466 -0.7685
12845TIP3    H259951   3.734   6.340   4.161  0.0697 -0.0664 -0.0837
12846TIP3   OH259952   0.069   6.213  14.589 -0.2429  0.2976  0.1567
12846TIP3    H159953   0.087   6.251  14.675 -1.3442  0.0101  0.5253
12846TIP3    H259954   0.079   6.286  14.528 -1.0913  0.8932  0.7151
12847TIP3   OH259955   1.208   6.693  11.636 -0.0029  0.1519 -0.1221
12847TIP3    H159956   1.242   6.659  11.719 -0.7437 -0.1727  0.0577
12847TIP3    H259957   1.113   6.687  11.645 -0.1019  0.6586 -0.7733
12848TIP3   OH259958   5.356   2.961   3.364  0.4237  0.0358 -0.1319
12848TIP3    H159959   5.363   2.867   3.380  0.3092  0.0311 -0.1059
12848TIP3    H259960   5.392   3.002   3.442  1.0613  0.0138 -0.4147
12849TIP3   OH259961   1.554   4.811   4.186 -0.3810 -0.4924 -0.3381
12849TIP3    H159962   1.640   4.790   4.150 -0.2680 -1.7077  0.6033
12849TIP3    H259963   1.556   4.906   4.198  0.6049 -0.4311 -0.8606
12850TIP3   OH259964   5.522   4.475   3.024  0.1294  0.2209 -0.0203
12850TIP3    H159965   5.588   4.421   3.068 -0.7894 -1.2075 -0.3368
12850TIP3    H259966   5.570   4.554   2.998  1.1868  0.2107  1.6940
12851TIP3   OH259967   1.717   6.013   5.876  0.0376 -0.2206 -0.2700
12851TIP3    H159968   1.645   6.066   5.909  0.6262  0.1553  0.4488
12851TIP3    H259969   1.756   6.065   5.806  0.6012  0.2974  0.4201
12852TIP3   OH259970   1.561   6.200   6.019  0.4068 -0.4070 -0.1525
12852TIP3    H159971   1.531   6.278   6.066  1.0548  0.7317 -1.5397
12852TIP3    H259972   1.503   6.195   5.942 -0.2196 -1.8555  0.3769
12853TIP3   OH259973   0.266   6.197  13.240 -0.1962  0.0556  0.2179
12853TIP3    H159974   0.338   6.182  13.300 -0.8271 -2.2854  0.4937
12853TIP3    H259975   0.202   6.247  13.290 -0.4384 -1.3098  1.3073
12854TIP3   OH259976   0.036   2.837  11.218 -0.6443 -0.1761 -0.0549
12854TIP3    H159977   0.076   2.920  11.244 -3.6305  1.1958  0.6739
12854TIP3    H259978   0.015   2.849  11.125 -2.1283  0.4192  0.3308
12855TIP3   OH259979   2.178   2.388  13.807  0.5504 -0.0753 -0.0494
12855TIP3    H159980   2.240   2.440  13.857  1.2628 -0.1850 -0.7935
12855TIP3    H259981   2.131   2.336  13.872  1.0193  0.2460  0.5492
12856TIP3   OH259982   1.081   4.191   0.035  0.6066  0.0464  0.7111
12856TIP3    H159983   1.095   4.258  -0.031  0.4353 -0.3741  0.2334
12856TIP3    H259984   1.147   4.208   0.102  0.3395  0.8974  0.7701
12857TIP3   OH259985   0.129   3.477   4.076 -0.2008  0.2605  0.5583
12857TIP3    H159986   0.150   3.428   4.156  0.7792  0.6318  0.5460
12857TIP3    H259987   0.164   3.423   4.005 -0.7959  0.0794  0.4001
12858TIP3   OH259988   3.746   6.408  15.553 -0.1675  0.9173  0.1487
12858TIP3    H159989   3.830   6.369  15.529 -0.0405  0.7739  0.8056
12858TIP3    H259990   3.696   6.409  15.472  1.1095  2.6904 -0.6909
12859TIP3   OH259991   2.831   6.520  12.877 -0.2472  0.8770  0.6748
12859TIP3    H159992   2.889   6.453  12.839 -0.5499  1.6137 -1.2193
12859TIP3    H259993   2.887   6.567  12.939  0.1248 -0.7386  1.6235
12860TIP3   OH259994   5.827   1.425  12.447 -0.4628  0.0423  0.4015
12860TIP3    H159995   5.835   1.520  12.439  1.4863  0.1828  2.8815
12860TIP3    H259996   5.912   1.392  12.420 -1.0233 -1.0172 -0.1321
12861TIP3   OH259997   6.470   5.453  14.464  0.3817  0.3479  1.1596
12861TIP3    H159998   6.525   5.499  14.400  1.7638 -2.0417  0.5146
12861TIP3    H259999   6.461   5.365  14.429 -1.9714 -0.0209  2.4583
12862TIP3   OH260000   5.710   0.318   3.132  0.0516 -0.0128 -0.0263
12862TIP3    H160001   5.707   0.413   3.114 -1.4425 -0.1640 -0.7051
12862TIP3    H260002   5.666   0.308   3.216  0.1333 -0.1178  0.0036
12863TIP3   OH260003   2.504   6.592  17.087 -0.6726 -1.2958 -0.2087
12863TIP3    H160004   2.429   6.553  17.042 -0.4594 -0.3786 -1.4152
12863TIP3    H260005   2.580   6.546  17.053 -0.4679 -0.2677 -1.2082
12864TIP3   OH260006   1.443   5.249  14.988 -0.3019  0.5944  0.6185
12864TIP3    H160007   1.487   5.188  15.048  0.0047  0.4944  0.2962
12864TIP3    H260008   1.426   5.197  14.910 -0.7828  0.7003  0.6520
12865TIP3   OH260009   1.639   0.934   1.894 -0.0515  0.3117 -0.0191
12865TIP3    H160010   1.663   0.987   1.818 -0.8703  0.3908 -0.2346
12865TIP3    H260011   1.664   0.845   1.870 -1.7286  0.0780 -1.0571
12866TIP3   OH260012   6.402   2.649  13.040 -0.3657  0.4778 -0.8025
12866TIP3    H160013   6.319   2.671  13.082  0.0309  0.1043  0.1834
12866TIP3    H260014   6.411   2.555  13.050  0.5226  0.6074 -0.2627
12867TIP3   OH260015   5.744   6.147   1.911 -0.0269 -0.6979 -0.4008
12867TIP3    H160016   5.748   6.236   1.945 -1.1590 -1.0274  0.6950
12867TIP3    H260017   5.835   6.122   1.899  0.3776  0.0377  0.8643
12868TIP3   OH260018   0.738   2.932  14.725  0.3094 -0.0449  0.6580
12868TIP3    H160019   0.825   2.950  14.691 -0.9775 -0.6040 -3.4383
12868TIP3    H260020   0.700   3.018  14.742  1.1311  0.2340  1.1786
12869TIP3   OH260021   5.929   1.832  14.427 -0.9551  0.3192 -0.0342
12869TIP3    H160022   5.849   1.885  14.421 -1.7801 -0.7229  1.2820
12869TIP3    H260023   5.926   1.794  14.515 -0.1968 -1.5822 -0.7789
12870TIP3   OH260024   2.399   5.538   2.501 -0.4140 -0.6405  0.1386
12870TIP3    H160025   2.355   5.455   2.512  0.4912 -0.9512  1.6899
12870TIP3    H260026   2.476   5.533   2.558 -0.2866  1.2102  0.2122
12871TIP3   OH260027   5.630   0.555   5.341 -0.1367 -0.2188 -0.1627
12871TIP3    H160028   5.598   0.536   5.429  0.0085 -0.2991 -0.1271
12871TIP3    H260029   5.579   0.497   5.284  0.7094 -1.1498  0.0022
12872TIP3   OH260030   5.096   2.558   2.747  0.1107  0.1329  0.4683
12872TIP3    H160031   5.052   2.642   2.734  2.3202  1.1803 -0.7459
12872TIP3    H260032   5.187   2.581   2.763  1.1365 -2.0629 -1.6550
12873TIP3   OH260033   2.869   3.334  17.049  0.0540 -0.1533 -0.1083
12873TIP3    H160034   2.790   3.387  17.065  0.7152  0.9290 -0.3641
12873TIP3    H260035   2.863   3.308  16.957 -1.1745 -2.0901  0.4500
12874TIP3   OH260036   5.490   5.088  15.588 -0.0812 -0.6963 -0.4328
12874TIP3    H160037   5.585   5.084  15.587  0.0114  1.0917 -1.1391
12874TIP3    H260038   5.462   5.001  15.559  1.3370 -1.0682 -0.7309
12875TIP3   OH260039   4.163   2.980   5.572 -0.1167 -0.4063  0.2855
12875TIP3    H160040   4.187   3.072   5.556 -0.3445 -0.4793 -0.5265
12875TIP3    H260041   4.247   2.936   5.586  0.1728 -0.4315 -1.3211
12876TIP3   OH260042   4.834   4.313  16.937  0.2027  0.1732 -0.1158
12876TIP3    H160043   4.858   4.266  17.017 -1.2368 -1.8611 -0.7824
12876TIP3    H260044   4.886   4.272  16.868 -1.0465 -0.4546 -0.7121
12877TIP3   OH260045   2.637   2.249   0.043  0.7315  0.4563 -0.2966
12877TIP3    H160046   2.585   2.307   0.098  2.0365 -0.0782  1.5963
12877TIP3    H260047   2.652   2.299  -0.037 -1.6863  1.0470 -0.4596
12878TIP3   OH260048   5.956   4.865  17.109 -0.0840  0.3461  0.5170
12878TIP3    H160049   6.035   4.820  17.079 -0.4438 -0.8959  1.3824
12878TIP3    H260050   5.978   4.894  17.197 -0.9712 -1.0132  1.2037
12879TIP3   OH260051   6.682   1.936  16.415 -0.7697 -0.3850 -0.2173
12879TIP3    H160052   6.676   1.967  16.324  2.5018 -1.3863 -0.8928
12879TIP3    H260053   6.641   1.850  16.414 -1.3244 -0.1261 -0.5643
12880TIP3   OH260054   2.490   4.019   0.432  0.0393 -0.4480  0.3836
12880TIP3    H160055   2.399   4.040   0.452  0.3190 -0.8755  2.3142
12880TIP3    H260056   2.486   3.976   0.346 -1.3385  1.0784 -0.3783
12881TIP3   OH260057   4.350   3.201  12.633  0.0152 -0.1047  0.0589
12881TIP3    H160058   4.255   3.214  12.632 -0.0414 -0.3024  1.2515
12881TIP3    H260059   4.372   3.172  12.544 -0.9467  0.5440 -0.4051
12882TIP3   OH260060   4.146   3.019  10.971  0.9184 -0.5454  0.5516
12882TIP3    H160061   4.152   2.994  10.879  1.7100 -1.1324  0.7485
12882TIP3    H260062   4.053   3.031  10.987  0.6493 -1.7390  0.0072
12883TIP3   OH260063   2.424   6.209   4.500  0.2271  0.0227 -0.3642
12883TIP3    H160064   2.485   6.200   4.573 -1.5600  0.0366  1.1965
12883TIP3    H260065   2.415   6.303   4.488  0.3028  0.0228 -0.4235
12884TIP3   OH260066   3.998   4.128   1.406 -0.1132  0.1979  0.4014
12884TIP3    H160067   4.033   4.039   1.413  1.2981  0.8536  2.1856
12884TIP3    H260068   3.935   4.136   1.478 -1.3250  0.2242 -0.6113
12885TIP3   OH260069   6.337   0.795   0.020 -0.8902  0.6953  0.4792
12885TIP3    H160070   6.327   0.746   0.102 -1.2983  0.6906  0.4280
12885TIP3    H260071   6.272   0.757  -0.038  0.8180 -0.7965 -0.5865
12886TIP3   OH260072   3.493   4.927  11.968 -0.1024 -0.0084 -0.3047
12886TIP3    H160073   3.436   4.919  11.892  0.3261 -0.0347 -0.6254
12886TIP3    H260074   3.538   5.011  11.957  1.9799 -1.1914 -1.5055
12887TIP3   OH260075   4.823   4.320   3.932 -0.1640  0.0853 -0.0321
12887TIP3    H160076   4.738   4.361   3.948 -0.5731 -0.5742 -0.5188
12887TIP3    H260077   4.806   4.253   3.866  1.0055  0.9421 -1.2519
12888TIP3   OH260078   2.623   1.217  16.338 -0.2973 -0.4503  0.0067
12888TIP3    H160079   2.555   1.150  16.328  0.1452 -0.8615 -0.2553
12888TIP3    H260080   2.703   1.176  16.304  0.2023 -0.1641  0.8073
12889TIP3   OH260081   5.194   2.293   0.665  0.5392  0.0256 -0.0246
12889TIP3    H160082   5.202   2.218   0.723 -2.7651  0.7456  1.5750
12889TIP3    H260083   5.145   2.261   0.589  0.4001  0.2251 -0.0222
12890TIP3   OH260084   0.527   2.046  13.407  0.1876 -0.2153  0.2590
12890TIP3    H160085   0.572   2.029  13.489 -0.0463 -1.2946  0.1864
12890TIP3    H260086   0.596   2.048  13.341  0.1353 -2.6154  0.0371
12891TIP3   OH260087   5.935   5.526   4.504 -0.0186 -0.4860  0.0890
12891TIP3    H160088   5.993   5.514   4.579 -1.2263 -0.9829  0.9653
12891TIP3    H260089   5.847   5.511   4.538 -0.5634 -1.2333 -1.5314
12892TIP3   OH260090   5.292   4.398  13.276  0.1340  0.6389  0.7236
12892TIP3    H160091   5.326   4.418  13.364 -0.4048 -0.5101  1.2245
12892TIP3    H260092   5.230   4.326  13.291  0.4731  0.0270 -0.6699
12893TIP3   OH260093   2.018   2.407  11.888  0.7207 -0.1418 -0.0650
12893TIP3    H160094   1.988   2.336  11.831  1.4847 -2.2058  1.9625
12893TIP3    H260095   1.985   2.486  11.846  0.0659 -1.6362 -2.5914
12894TIP3   OH260096   3.793   3.780  15.158  0.5465 -0.3145 -0.5714
12894TIP3    H160097   3.884   3.761  15.181  0.3174 -0.4062  0.2615
12894TIP3    H260098   3.745   3.700  15.179  0.2048 -0.1366 -0.6661
12895TIP3   OH260099   5.362   4.180   4.223  0.2519 -0.4223 -0.1683
12895TIP3    H160100   5.371   4.274   4.210  1.6219 -0.5283 -0.0981
12895TIP3    H260101   5.419   4.141   4.157 -1.4829 -1.2761 -1.2454
12896TIP3   OH260102   0.165   0.202  13.254 -0.3525  0.3836 -0.6679
12896TIP3    H160103   0.257   0.203  13.224  0.1245 -0.6331  0.6770
12896TIP3    H260104   0.146   0.109  13.267 -0.9180  0.7100  0.9850
12897TIP3   OH260105   0.604   0.638   2.924  0.1649  0.6437  0.2644
12897TIP3    H160106   0.618   0.640   3.019 -1.4790 -0.4451  0.5640
12897TIP3    H260107   0.612   0.730   2.897  1.5309  0.8538  1.2944
12898TIP3   OH260108   2.432   5.277  14.377 -0.0180  0.3366  0.2932
12898TIP3    H160109   2.338   5.296  14.380  0.2194  1.7860 -0.4841
12898TIP3    H260110   2.474   5.363  14.385  1.1656  0.0960 -2.2323
12899TIP3   OH260111   2.836   1.123  10.544 -0.5206 -0.0718 -0.0441
12899TIP3    H160112   2.849   1.054  10.479  0.6118  1.0322 -1.0329
12899TIP3    H260113   2.906   1.109  10.608 -1.6715 -1.1967  1.0491
12900TIP3   OH260114   1.664   5.278  16.341 -0.1506 -0.1291 -0.4451
12900TIP3    H160115   1.740   5.277  16.282 -0.9970  2.7737 -1.7748
12900TIP3    H260116   1.595   5.321  16.291 -1.8291 -0.1550  1.6971
12901TIP3   OH260117   6.650   1.145   3.976 -0.2169 -0.3602 -0.1577
12901TIP3    H160118   6.742   1.145   4.002 -0.8285 -0.1533  2.2797
12901TIP3    H260119   6.635   1.057   3.939  1.1496 -0.0487 -1.5356
12902TIP3   OH260120   3.861   3.640  15.778  0.1161  0.1187 -0.2245
12902TIP3    H160121   3.869   3.736  15.781  2.8729  0.0553 -1.7611
12902TIP3    H260122   3.862   3.618  15.685  0.7076 -1.4338  0.1092
12903TIP3   OH260123   2.061   2.692  11.014 -0.1992 -0.0687 -0.1436
12903TIP3    H160124   1.974   2.677  11.051 -1.0186  1.9393 -1.0580
12903TIP3    H260125   2.050   2.770  10.959  1.6897 -1.0068 -2.0172
12904TIP3   OH260126   1.452   0.804   2.790  0.2912 -0.8247  0.8331
12904TIP3    H160127   1.510   0.872   2.826 -1.3525  1.8937 -1.2480
12904TIP3    H260128   1.373   0.810   2.844 -0.4910  0.1661 -0.3752
12905TIP3   OH260129   3.499   4.378  16.487 -0.0601  0.1052 -0.0861
12905TIP3    H160130   3.486   4.473  16.494 -1.2569 -0.1459  1.6122
12905TIP3    H260131   3.430   4.340  16.541  0.8170 -1.7280 -0.1835
12906TIP3   OH260132   3.975   1.425   1.192 -0.1597  0.6573  0.2707
12906TIP3    H160133   3.999   1.334   1.174 -0.2988  0.7020 -0.1727
12906TIP3    H260134   3.985   1.470   1.108  3.7167  1.9650  1.2401
12907TIP3   OH260135   4.950   2.871   0.749 -0.1130  0.1447  0.2388
12907TIP3    H160136   4.902   2.788   0.741 -0.6543  0.2255  2.1010
12907TIP3    H260137   5.035   2.845   0.785 -0.3470  0.3933  0.9908
12908TIP3   OH260138   0.703   2.383   0.205 -0.3819 -0.0601  0.1597
12908TIP3    H160139   0.631   2.363   0.145 -0.4365  2.3904 -0.7333
12908TIP3    H260140   0.729   2.472   0.182  1.3856 -0.0046  2.0462
12909TIP3   OH260141   5.801   1.580  14.926 -0.2580 -0.6013 -0.1490
12909TIP3    H160142   5.786   1.526  14.848 -0.8351  1.4190 -1.5229
12909TIP3    H260143   5.891   1.559  14.952 -0.1816 -1.6001 -1.1399
12910TIP3   OH260144   2.531   3.193   3.018 -0.9189  0.4985 -0.5733
12910TIP3    H160145   2.616   3.171   3.054 -1.4011  1.9555  1.6758
12910TIP3    H260146   2.537   3.286   2.996 -1.9239  0.6313 -0.3418
12911TIP3   OH260147   0.823   1.636   4.678  0.6903 -0.7810  0.1650
12911TIP3    H160148   0.834   1.629   4.773  0.1397  2.0807  0.5380
12911TIP3    H260149   0.728   1.639   4.665  0.7658 -0.8258 -0.4332
12912TIP3   OH260150   1.517   6.775   3.206 -0.4137 -0.4743  0.5207
12912TIP3    H160151   1.604   6.806   3.230  0.4516 -2.7726  0.5209
12912TIP3    H260152   1.516   6.682   3.229 -2.5346 -0.7337 -0.3565
12913TIP3   OH260153   2.658   0.303  15.321 -0.5815 -0.1644  0.2299
12913TIP3    H160154   2.651   0.208  15.313  1.1025 -0.3241  0.2227
12913TIP3    H260155   2.649   0.319  15.415 -2.0688 -0.1862  0.1095
12914TIP3   OH260156   5.323   2.781   2.138  0.1175  0.3094  0.4232
12914TIP3    H160157   5.260   2.790   2.067  1.9459 -0.7945 -1.4906
12914TIP3    H260158   5.319   2.688   2.162 -1.1972  0.8516  2.5737
12915TIP3   OH260159   5.479   0.801  16.728 -0.2983 -0.1841 -0.2668
12915TIP3    H160160   5.482   0.806  16.632 -0.8185 -0.3243 -0.2920
12915TIP3    H260161   5.571   0.798  16.754 -0.1498 -0.0521 -0.7570
12916TIP3   OH260162   0.186   6.073   0.725 -0.3093 -0.0896 -0.2722
12916TIP3    H160163   0.152   6.139   0.664 -0.3586  0.4899  0.3675
12916TIP3    H260164   0.125   6.073   0.798  1.6347  1.8923  1.5079
12917TIP3   OH260165   0.878   0.563  16.737  0.7027  0.0963  0.2381
12917TIP3    H160166   0.941   0.632  16.716 -2.4757  3.1937  0.0058
12917TIP3    H260167   0.806   0.577  16.677 -1.3067 -1.6718  2.0737
12918TIP3   OH260168   0.486   1.637   2.551 -0.4643 -0.4972 -0.6821
12918TIP3    H160169   0.578   1.659   2.564 -0.2925 -0.7159 -1.5007
12918TIP3    H260170   0.475   1.552   2.593 -0.4447 -0.2020 -0.0590
12919TIP3   OH260171   1.003   0.536   2.348 -0.8646 -0.2143  0.2716
12919TIP3    H160172   0.937   0.528   2.279  0.9376 -1.0920 -1.4766
12919TIP3    H260173   1.020   0.445   2.375  0.8403 -0.1970 -0.5995
12920TIP3   OH260174   5.491   1.764   4.023  0.0696 -0.4632 -0.4445
12920TIP3    H160175   5.466   1.830   4.088  1.6829  0.6473 -0.9046
12920TIP3    H260176   5.411   1.747   3.974 -1.5906 -2.3378  2.5980
12921TIP3   OH260177   0.174   3.733  14.828  0.6569 -0.4517 -0.5637
12921TIP3    H160178   0.152   3.809  14.882  0.6865  0.8804 -2.3403
12921TIP3    H260179   0.091   3.703  14.792  0.8654  0.0571 -1.5080
12922TIP3   OH260180   6.588   0.418   1.433  0.5008  0.3300 -0.3703
12922TIP3    H160181   6.525   0.424   1.361  0.3643  0.4500 -0.2428
12922TIP3    H260182   6.572   0.497   1.485  1.5501  0.9567 -0.9703
12923TIP3   OH260183   1.581   1.821   5.669  0.3325 -0.2996 -0.4193
12923TIP3    H160184   1.570   1.916   5.673  3.1812  0.0791  0.6919
12923TIP3    H260185   1.644   1.808   5.597  0.8538 -1.2137  0.1953
12924TIP3   OH260186   0.612   5.047   3.924  0.4966 -0.0916  0.1940
12924TIP3    H160187   0.528   5.094   3.917  1.0528  0.8280 -0.6052
12924TIP3    H260188   0.615   4.991   3.847 -0.0866 -1.3556  1.0583
12925TIP3   OH260189   5.464   0.408   1.831 -0.4754 -0.4281 -0.0307
12925TIP3    H160190   5.420   0.426   1.748 -0.2928  0.3879  0.0454
12925TIP3    H260191   5.474   0.313   1.832 -0.0313 -0.4108 -1.1759
12926TIP3   OH260192   6.247   4.988   1.983 -0.0475 -0.6591  0.2990
12926TIP3    H160193   6.214   5.065   2.027  0.6670 -0.1407 -0.0449
12926TIP3    H260194   6.279   5.020   1.898  1.2835 -1.1180  0.6040
12927TIP3   OH260195   1.250   3.347  15.884 -0.3747 -0.1859  0.1114
12927TIP3    H160196   1.265   3.331  15.977  0.0384 -0.5616 -0.0182
12927TIP3    H260197   1.272   3.440  15.872  0.5108 -0.3757  0.1992
12928TIP3   OH260198   5.193   3.722   0.362  0.1513  0.5735  0.0006
12928TIP3    H160199   5.132   3.796   0.372 -0.4271  0.1657 -0.4044
12928TIP3    H260200   5.260   3.755   0.302  0.0024  0.8408 -0.0222
12929TIP3   OH260201   1.111   3.458  14.779 -0.1953 -0.0532 -0.0935
12929TIP3    H160202   1.180   3.397  14.752 -0.8668 -0.9379  0.1451
12929TIP3    H260203   1.030   3.411  14.759 -0.7163  0.5362  0.6418
12930TIP3   OH260204   2.148   4.663  11.331 -0.0079 -0.3827 -0.1365
12930TIP3    H160205   2.192   4.609  11.397  1.6338  0.2088 -0.6889
12930TIP3    H260206   2.142   4.606  11.254 -1.1747 -0.8006  0.2477
12931TIP3   OH260207   1.340   6.384   1.278  0.7582 -0.4886 -0.8287
12931TIP3    H160208   1.400   6.310   1.289  4.1732  1.8817 -1.7255
12931TIP3    H260209   1.352   6.411   1.187 -1.8395  0.0695 -1.0551
12932TIP3   OH260210   1.647   4.234   5.754  0.2417  0.1555  0.0462
12932TIP3    H160211   1.702   4.181   5.812  0.7030  0.9089  0.3174
12932TIP3    H260212   1.578   4.175   5.726 -1.0283  0.1808  2.7623
12933TIP3   OH260213   1.268   1.911  16.162  0.0161 -0.3005 -0.6469
12933TIP3    H160214   1.233   1.837  16.113 -0.0131 -1.5429  1.1199
12933TIP3    H260215   1.209   1.983  16.143 -1.5633 -1.4607 -0.3791
12934TIP3   OH260216   2.561   2.299   6.330  0.7555 -0.1352  0.2311
12934TIP3    H160217   2.615   2.231   6.372  0.6362 -0.5203 -0.2398
12934TIP3    H260218   2.471   2.275   6.353  0.7491  0.2360  0.6097
12935TIP3   OH260219   4.003   3.828   1.016 -0.1256  0.8437 -0.0700
12935TIP3    H160220   3.999   3.834   1.112  1.4830  0.0937  0.0797
12935TIP3    H260221   4.031   3.738   0.999 -0.1197  1.0538 -1.2499
12936TIP3   OH260222   4.135   2.143   2.763  0.0225  0.3770 -0.2561
12936TIP3    H160223   4.146   2.237   2.747 -0.2676  0.3004 -0.9359
12936TIP3    H260224   4.045   2.124   2.737 -0.6813  0.3335  2.0033
12937TIP3   OH260225   2.354   3.954   1.076  0.4426  0.3191 -0.0909
12937TIP3    H160226   2.280   3.905   1.111 -1.1332  1.8347 -1.1072
12937TIP3    H260227   2.376   4.018   1.144  0.2798  0.4028 -0.1174
12938TIP3   OH260228   4.263   1.059   1.327  0.2417  0.3792 -0.9180
12938TIP3    H160229   4.339   1.013   1.361  0.1873  0.1179 -1.1412
12938TIP3    H260230   4.257   1.139   1.379 -0.1752 -0.2796  0.0685
12939TIP3   OH260231   4.659   0.424  12.993  0.0672  0.4373  0.2610
12939TIP3    H160232   4.582   0.407  13.047  0.5167  0.5302  0.9447
12939TIP3    H260233   4.725   0.363  13.026 -0.6745 -2.2144 -2.6064
12940TIP3   OH260234   4.504   0.173   5.497 -0.2209  0.0707  0.0183
12940TIP3    H160235   4.493   0.214   5.411 -2.1855  0.6147  0.4571
12940TIP3    H260236   4.418   0.185   5.539 -0.6255 -3.6226  0.5637
12941TIP3   OH260237   2.298   4.466   4.701  0.1944 -0.4626 -0.4528
12941TIP3    H160238   2.237   4.537   4.683  1.1986  0.1136 -1.7138
12941TIP3    H260239   2.336   4.489   4.786 -0.9803 -0.5883  0.1230
12942TIP3   OH260240   1.330   1.293  13.590  0.0532 -0.5386  0.2422
12942TIP3    H160241   1.396   1.314  13.655  1.8922 -0.7642 -1.4468
12942TIP3    H260242   1.283   1.375  13.575  1.2831  0.1446  0.0576
12943TIP3   OH260243   5.698   4.958  16.989 -0.3688  0.4503 -0.2780
12943TIP3    H160244   5.785   4.970  17.026 -0.5104  2.1065 -0.4010
12943TIP3    H260245   5.713   4.942  16.896 -0.2132  1.5514 -0.4527
12944TIP3   OH260246   4.777   3.071  16.305 -0.3399  0.0010 -0.2273
12944TIP3    H160247   4.847   3.135  16.319 -0.3706 -0.3395  1.7308
12944TIP3    H260248   4.726   3.074  16.386  0.0657 -2.9736  0.2314
12945TIP3   OH260249   1.734   2.298  15.082 -0.4185 -0.0669  0.4427
12945TIP3    H160250   1.646   2.313  15.048 -0.3466 -1.4250 -0.4272
12945TIP3    H260251   1.725   2.226  15.143  0.0848 -0.2099  0.3563
12946TIP3   OH260252   3.746   4.206  11.572 -0.5513  0.1541 -0.1022
12946TIP3    H160253   3.716   4.169  11.489 -0.9983  2.2307 -0.9378
12946TIP3    H260254   3.821   4.260  11.548  1.0204 -1.3042  1.2864
12947TIP3   OH260255   1.213   5.629   0.638 -0.2476 -0.0922  0.4538
12947TIP3    H160256   1.184   5.648   0.549  1.9236 -0.6985 -0.4710
12947TIP3    H260257   1.296   5.582   0.626  1.5987  2.2840  2.7892
12948TIP3   OH260258   2.058   4.990  15.129  0.4402 -0.0856  0.6460
12948TIP3    H160259   2.054   4.925  15.059  0.9347 -0.5809  1.0701
12948TIP3    H260260   2.151   4.994  15.153  0.2309 -0.1584  1.4943
12949TIP3   OH260261   5.336   0.570   4.254 -0.2006  0.4090  0.0928
12949TIP3    H160262   5.297   0.507   4.315  0.9612  1.1840  1.7025
12949TIP3    H260263   5.368   0.516   4.182 -0.8217 -0.6335  0.5627
12950TIP3   OH260264   3.835   5.004  13.902 -0.2911  0.0687 -0.1796
12950TIP3    H160265   3.836   5.092  13.866  0.4082 -0.0977 -0.5949
12950TIP3    H260266   3.792   5.013  13.987  1.0676  1.0862  0.4496
12951TIP3   OH260267   1.326   3.833   2.040 -0.0972 -0.4927 -0.6398
12951TIP3    H160268   1.297   3.860   2.127 -0.9943 -0.0696 -1.0577
12951TIP3    H260269   1.407   3.881   2.025 -0.1926 -0.2043 -0.2307
12952TIP3   OH260270   5.864   0.685   4.645  0.6188 -0.1313  0.2949
12952TIP3    H160271   5.804   0.616   4.674  0.8687 -0.2035  0.6386
12952TIP3    H260272   5.806   0.752   4.609  0.2802  0.0907  1.2238
12953TIP3   OH260273   0.393   1.732  10.554 -0.5454  0.1197 -0.1048
12953TIP3    H160274   0.467   1.703  10.607 -0.2000  3.2169  1.3019
12953TIP3    H260275   0.431   1.752  10.469  0.2970  1.5771  0.5716
12954TIP3   OH260276   2.546   2.613  12.647 -0.3231 -0.4495 -0.1443
12954TIP3    H160277   2.558   2.627  12.553 -0.4742 -0.2738 -0.1383
12954TIP3    H260278   2.455   2.638  12.663  0.8038  3.7408  0.8075
12955TIP3   OH260279   3.158   1.442   0.800  0.2519  0.4716  0.2504
12955TIP3    H160280   3.215   1.418   0.728 -0.0902  1.0153 -0.2054
12955TIP3    H260281   3.154   1.537   0.798  0.9975  0.5671  1.5792
12956TIP3   OH260282   1.231   2.223  11.438 -0.2400  0.0230 -0.2934
12956TIP3    H160283   1.237   2.150  11.499 -0.5503 -1.1884 -1.6733
12956TIP3    H260284   1.234   2.301  11.494 -0.6664 -1.0413  1.2678
12957TIP3   OH260285   4.592   2.691   1.801 -0.0769  0.0417  0.1479
12957TIP3    H160286   4.583   2.703   1.707 -1.2357  1.8141  0.4272
12957TIP3    H260287   4.621   2.776   1.834 -1.4158  0.0206  1.5480
12958TIP3   OH260288   2.046   1.490  14.482  0.1321  0.3083  0.4991
12958TIP3    H160289   2.097   1.515  14.405  0.2567  0.3331  0.5900
12958TIP3    H260290   2.060   1.561  14.545 -1.1543  1.0462  0.0018
12959TIP3   OH260291   5.959   0.393   0.446 -0.0288 -0.1665 -0.8477
12959TIP3    H160292   5.991   0.431   0.364  0.1349  2.6615  0.4045
12959TIP3    H260293   6.036   0.392   0.503 -0.8525  1.1844  0.3410
12960TIP3   OH260294   6.118   4.273  12.795 -0.3335 -0.3965 -0.7427
12960TIP3    H160295   6.127   4.322  12.877 -1.7756 -0.5492 -0.4658
12960TIP3    H260296   6.206   4.273  12.758  0.0414  0.9804  0.0542
12961TIP3   OH260297   0.618   2.485  16.075 -0.0750  0.3283  0.0202
12961TIP3    H160298   0.667   2.540  16.013  0.9579  0.0789  0.6085
12961TIP3    H260299   0.526   2.510  16.061  0.4346  3.6402  1.5945
12962TIP3   OH260300   4.560   5.082   4.114 -0.2686 -0.2032 -0.0990
12962TIP3    H160301   4.497   5.037   4.058  0.0114 -1.8553  0.8375
12962TIP3    H260302   4.514   5.093   4.197 -0.4521  1.6237 -0.4096
12963TIP3   OH260303   5.510   2.770  13.860 -0.2483 -0.2151 -0.2603
12963TIP3    H160304   5.479   2.806  13.943  1.6381 -0.4604  0.5944
12963TIP3    H260305   5.536   2.846  13.809  1.2874 -0.1851  0.5244
12964TIP3   OH260306   4.768   0.802  15.263 -0.1891 -0.4675  0.1515
12964TIP3    H160307   4.753   0.894  15.241  1.2511 -0.1662  0.3189
12964TIP3    H260308   4.757   0.756  15.179  0.6045  0.0689 -0.2603
12965TIP3   OH260309   3.448   2.276  17.028  0.4397 -0.5553 -0.4540
12965TIP3    H160310   3.375   2.217  17.051  0.6881 -0.3008  1.0902
12965TIP3    H260311   3.448   2.278  16.932 -1.2460 -0.9812 -0.4923
12966TIP3   OH260312   1.936   0.312  13.186 -0.0117 -0.3840 -0.1513
12966TIP3    H160313   1.995   0.241  13.160  0.6198  0.4369 -1.0333
12966TIP3    H260314   1.849   0.283  13.158  0.4529 -0.1589 -1.9428
12967TIP3   OH260315   6.196   4.341   3.416  0.3605 -0.3360  0.2442
12967TIP3    H160316   6.212   4.331   3.322  1.9494  2.8304  0.0409
12967TIP3    H260317   6.171   4.254   3.445  1.2562 -1.7752 -2.8344
12968TIP3   OH260318   4.741   0.108   5.850  0.7933  0.0676  0.3671
12968TIP3    H160319   4.764   0.181   5.792  1.3723  0.2722  0.8511
12968TIP3    H260320   4.646   0.099   5.840  0.6023  1.3511  0.8309
12969TIP3   OH260321   5.903   1.940  15.509 -0.2864 -0.7379  0.3805
12969TIP3    H160322   5.831   1.878  15.497  0.4550 -1.3218 -1.5709
12969TIP3    H260323   5.897   1.998  15.434  0.8048 -0.3203  0.5993
12970TIP3   OH260324   4.978   3.145  11.018  0.4638 -0.2936 -0.2896
12970TIP3    H160325   5.002   3.191  11.099  0.5090 -0.1886 -0.3625
12970TIP3    H260326   5.057   3.147  10.965  0.3161  0.0037 -0.5050
12971TIP3   OH260327   0.270   2.994   4.576 -0.0841  0.1136  0.3130
12971TIP3    H160328   0.308   3.081   4.566  2.1912 -0.7830  0.6399
12971TIP3    H260329   0.296   2.967   4.664 -1.9879 -0.3714  0.7716
12972TIP3   OH260330   0.150   1.866  16.284  0.1586  0.1642  0.5713
12972TIP3    H160331   0.086   1.838  16.349 -1.9073  0.9159 -1.0128
12972TIP3    H260332   0.152   1.961  16.291  1.4924  0.1379  0.8944
12973TIP3   OH260333   1.910   1.451  15.769 -0.4494 -0.4322  0.0520
12973TIP3    H160334   1.818   1.465  15.792 -0.5295  0.5697 -0.8143
12973TIP3    H260335   1.924   1.357  15.783 -0.7951 -0.1574  3.0130
12974TIP3   OH260336   0.473   6.743   2.707  0.2528  0.3176  0.2801
12974TIP3    H160337   0.394   6.708   2.748  0.1847 -0.4334 -0.4734
12974TIP3    H260338   0.545   6.703   2.757  0.1848 -1.2835 -0.8244
12975TIP3   OH260339   3.719   1.246  16.225  0.6773 -0.4524  0.0271
12975TIP3    H160340   3.798   1.278  16.269 -1.6804  2.9155  2.3231
12975TIP3    H260341   3.678   1.188  16.290  0.3714 -0.7328 -0.4113
12976TIP3   OH260342   5.598   6.387   3.115  0.2770  0.3426 -0.4052
12976TIP3    H160343   5.690   6.412   3.123 -0.0517  1.3314  0.5881
12976TIP3    H260344   5.564   6.442   3.044  0.2788  0.5101 -0.2762
12977TIP3   OH260345   2.919   4.422   5.072  0.1259  0.0680 -0.1649
12977TIP3    H160346   2.925   4.509   5.030  0.3140  0.4340  0.6045
12977TIP3    H260347   2.957   4.435   5.158 -1.6071 -0.3086  0.6960
12978TIP3   OH260348   3.829   4.198  15.107 -0.1109 -0.2819 -0.1085
12978TIP3    H160349   3.745   4.239  15.085  0.4523  0.0564 -1.7942
12978TIP3    H260350   3.886   4.270  15.132 -0.0501 -0.4055  0.1144
12979TIP3   OH260351   2.251   5.189  11.695  0.0541 -0.2316  0.3070
12979TIP3    H160352   2.185   5.243  11.650  0.1693 -1.0539 -0.8961
12979TIP3    H260353   2.201   5.134  11.754 -0.3176 -0.5646 -0.3067
12980TIP3   OH260354   1.744   5.845  12.301 -0.4520 -0.3829  0.2241
12980TIP3    H160355   1.699   5.919  12.259  1.7381  1.0519  0.2605
12980TIP3    H260356   1.706   5.841  12.389  0.1289  1.4657  0.6123
12981TIP3   OH260357   6.402   6.317  15.508  0.2099  0.0201  0.0413
12981TIP3    H160358   6.309   6.297  15.496  0.0574  0.1921  0.8626
12981TIP3    H260359   6.403   6.387  15.573  0.9309 -0.3070  0.3993
12982TIP3   OH260360   4.167   0.235  12.532  0.5053  0.4198 -0.2978
12982TIP3    H160361   4.222   0.270  12.462  1.3359  0.7241  0.4857
12982TIP3    H260362   4.214   0.257  12.612  0.8727 -2.1252  0.2742
12983TIP3   OH260363   0.762   3.856   3.724  0.2328 -0.2245 -0.4619
12983TIP3    H160364   0.857   3.854   3.737  0.3424  0.7705 -1.0284
12983TIP3    H260365   0.733   3.768   3.750  1.1496 -0.1877  0.8235
12984TIP3   OH260366   3.215   4.927   4.944  0.2867  0.3023  0.1850
12984TIP3    H160367   3.251   4.894   5.027 -2.0874 -0.3145  1.0571
12984TIP3    H260368   3.237   5.020   4.944  3.2514 -0.2972 -0.1841
12985TIP3   OH260369   0.162   3.357  15.418  0.3664 -0.8913 -0.4828
12985TIP3    H160370   0.240   3.329  15.372 -0.1589 -0.8979 -1.3905
12985TIP3    H260371   0.094   3.295  15.391  0.1386 -1.1457  0.6287
12986TIP3   OH260372   3.439   0.136  15.647  0.5692 -0.1497 -0.5172
12986TIP3    H160373   3.383   0.067  15.681  0.1048  0.9177  0.9845
12986TIP3    H260374   3.497   0.159  15.720 -1.0341  2.8059 -0.0087
12987TIP3   OH260375   2.141   2.370   1.559 -0.5357 -0.0386 -0.2294
12987TIP3    H160376   2.205   2.441   1.547 -2.2512  1.5922 -0.2190
12987TIP3    H260377   2.059   2.406   1.526 -1.4460 -2.1315 -0.3935
12988TIP3   OH260378   4.997   4.047   3.794  0.0198 -0.1013  0.2090
12988TIP3    H160379   4.957   4.037   3.880 -3.0603  0.1148 -1.0519
12988TIP3    H260380   4.962   4.130   3.761 -1.8269 -1.8401 -2.5812
12989TIP3   OH260381   2.194   6.493   2.897  0.6184 -0.3562  0.1289
12989TIP3    H160382   2.206   6.581   2.862  0.7824  0.4218  1.9947
12989TIP3    H260383   2.209   6.503   2.991  3.7406 -2.9100  0.0850
12990TIP3   OH260384   4.787   5.088   5.625 -0.0581  0.2040 -0.1799
12990TIP3    H160385   4.820   5.009   5.582 -0.0403 -0.7313  1.4972
12990TIP3    H260386   4.712   5.114   5.571 -0.0732 -0.9680 -0.7618
12991TIP3   OH260387   5.763   5.332   3.027  0.4928 -0.3887  0.4067
12991TIP3    H160388   5.808   5.394   2.969 -1.0231  0.3160 -0.0761
12991TIP3    H260389   5.720   5.271   2.967  0.4723 -0.8094  0.8469
12992TIP3   OH260390   5.548   2.726   4.031  0.0800 -0.0157 -0.5794
12992TIP3    H160391   5.457   2.750   4.048  0.8516  1.6041  1.6955
12992TIP3    H260392   5.582   2.797   3.977 -0.3895 -1.5026 -2.9799
12993TIP3   OH260393   5.098   6.283  11.639  0.8058 -0.1425 -0.2238
12993TIP3    H160394   5.100   6.194  11.675  1.2353 -1.1148 -2.4691
12993TIP3    H260395   5.022   6.324  11.681 -0.4976 -2.1873 -0.4387
12994TIP3   OH260396   4.017   6.073  13.216  0.3088 -0.0166 -0.4157
12994TIP3    H160397   4.026   5.999  13.276  2.3582  0.1299 -0.4489
12994TIP3    H260398   4.052   6.041  13.133 -0.8829  0.3204 -1.0702
12995TIP3   OH260399   6.264   2.199   3.447  0.7282  0.4900 -0.1685
12995TIP3    H160400   6.340   2.248   3.477  0.6426  0.2638  0.4365
12995TIP3    H260401   6.226   2.162   3.527 -0.6659  1.5164 -0.3052
12996TIP3   OH260402   0.643   3.148   4.023  0.4079 -0.1801  0.1217
12996TIP3    H160403   0.612   3.136   3.933 -3.0334  2.4405  0.7779
12996TIP3    H260404   0.672   3.060   4.050 -2.5780 -2.0447 -2.1131
12997TIP3   OH260405   3.490   0.472  15.289  0.0311 -0.1450 -0.1378
12997TIP3    H160406   3.448   0.558  15.279 -1.5223 -1.0184 -1.6893
12997TIP3    H260407   3.461   0.440  15.374  1.5717  1.2959  1.0116
12998TIP3   OH260408   4.919   0.020   1.669  0.2510  0.4453 -0.2393
12998TIP3    H160409   4.947  -0.022   1.751  0.6803 -0.1502 -0.6775
12998TIP3    H260410   4.826  -0.001   1.661  0.4601 -0.4095 -0.4438
12999TIP3   OH260411   4.866   0.269   5.026  0.3062  0.0482  0.3252
12999TIP3    H160412   4.914   0.349   5.047 -1.5432  1.6338 -1.0870
12999TIP3    H260413   4.935   0.204   5.008  1.8633  1.2061  1.7725
13000TIP3   OH260414   4.175   2.686   6.492 -0.2444  0.4917  0.1209
13000TIP3    H160415   4.269   2.690   6.508  0.2143 -2.3999 -1.3817
13000TIP3    H260416   4.137   2.668   6.578  0.7909 -0.4738  0.3895
13001TIP3   OH260417   6.346   6.591  16.966  0.2204  0.0859  0.4704
13001TIP3    H160418   6.332   6.535  17.042  0.9669 -3.1930 -1.6071
13001TIP3    H260419   6.268   6.578  16.912  1.4354 -0.9072 -1.1319
13002TIP3   OH260420   1.316   2.898  13.530 -0.2459 -0.6151 -0.0813
13002TIP3    H160421   1.393   2.886  13.475 -0.2139 -1.0904  0.0656
13002TIP3    H260422   1.244   2.857  13.482 -0.2915 -0.7019  0.0602
13003TIP3   OH260423   1.838   5.740  11.729 -0.3947 -0.2878 -0.1505
13003TIP3    H160424   1.930   5.767  11.738  0.1039 -1.5020 -1.2798
13003TIP3    H260425   1.830   5.713  11.637 -2.2344  1.0020 -0.4180
13004TIP3   OH260426   4.753   0.121  15.509  0.2381  0.0894 -0.6395
13004TIP3    H160427   4.727   0.073  15.431 -1.0195  0.0534 -0.2243
13004TIP3    H260428   4.731   0.212  15.490 -1.1012 -0.0585  0.0464
13005TIP3   OH260429   0.622   1.938   2.565 -0.4725 -0.6122  0.5282
13005TIP3    H160430   0.668   2.013   2.603  0.1769  0.0973 -1.5312
13005TIP3    H260431   0.602   1.966   2.475 -2.8299 -1.8060  0.6059
13006TIP3   OH260432   4.574   6.346   1.466 -0.2846  0.3055 -0.0530
13006TIP3    H160433   4.543   6.256   1.481 -2.0545  0.6585 -1.3349
13006TIP3    H260434   4.656   6.351   1.515 -0.2528 -1.9379  0.2322
13007TIP3   OH260435   1.609   5.871   1.400 -0.0894 -0.4416  0.3915
13007TIP3    H160436   1.678   5.880   1.334  1.0046 -0.4469  1.4869
13007TIP3    H260437   1.538   5.926   1.368  0.4991 -0.2781 -0.6857
13008TIP3   OH260438   1.603   4.581  14.038  0.2772  0.3003 -0.2010
13008TIP3    H160439   1.689   4.552  14.006  1.5377  1.0366  2.2856
13008TIP3    H260440   1.581   4.518  14.107 -1.0383  0.3233 -0.5854
13009TIP3   OH260441   1.486   5.463  12.723 -0.3563 -0.0543  0.1860
13009TIP3    H160442   1.436   5.528  12.674 -1.2678 -0.7579  0.1608
13009TIP3    H260443   1.513   5.509  12.803 -2.4375 -0.1114  0.9803
13010TIP3   OH260444   4.319   5.380   4.892  0.2397  0.8260 -0.2260
13010TIP3    H160445   4.291   5.368   4.801  0.1490 -1.1509  0.0072
13010TIP3    H260446   4.251   5.436   4.931 -0.4901  0.5331 -1.0329
13011TIP3   OH260447   3.901   1.363   5.855  0.1679  0.0388 -0.3402
13011TIP3    H160448   3.937   1.451   5.868  1.1643 -0.5629  1.2629
13011TIP3    H260449   3.871   1.336   5.942 -1.2838 -0.7423 -1.0429
13012TIP3   OH260450   1.320   3.785   0.619 -0.3310  0.5294  0.5381
13012TIP3    H160451   1.275   3.791   0.703  1.5497  1.0894  1.5796
13012TIP3    H260452   1.406   3.748   0.641 -0.7229 -1.8689 -1.5541
13013TIP3   OH260453   2.018   2.329  14.071  0.2540  0.3165  0.0014
13013TIP3    H160454   1.931   2.363  14.093 -0.5910 -2.2967  1.2039
13013TIP3    H260455   2.050   2.293  14.154  1.1343 -1.4547 -1.0562
13014TIP3   OH260456   4.331   0.419   6.254  0.4973 -0.1244 -0.2620
13014TIP3    H160457   4.358   0.366   6.329  0.6579  1.5844  0.9382
13014TIP3    H260458   4.404   0.411   6.192  0.4494 -1.3877 -0.1906
13015TIP3   OH260459   5.352   2.109  14.551  0.3144 -0.0012 -0.3044
13015TIP3    H160460   5.295   2.041  14.514  0.4713  0.5463 -1.5769
13015TIP3    H260461   5.413   2.060  14.606 -1.9174 -0.5255  1.8925
13016TIP3   OH260462   6.016   5.973   6.033 -0.1787  0.4845 -0.1991
13016TIP3    H160463   6.030   5.925   6.115  0.3728  2.1953  0.7770
13016TIP3    H260464   6.101   5.967   5.988  0.9373  3.0119  1.3602
13017TIP3   OH260465   5.740   0.793   5.262 -0.6672  0.0273  0.1589
13017TIP3    H160466   5.674   0.862   5.251  0.1089  0.8656  0.7094
13017TIP3    H260467   5.690   0.719   5.297 -1.5905  0.1330 -0.8572
13018TIP3   OH260468   0.285   5.958  12.487 -0.1436 -0.3805  0.1240
13018TIP3    H160469   0.366   5.983  12.531  0.5685 -0.8697 -0.8827
13018TIP3    H260470   0.217   6.010  12.531  1.0326  2.0138 -0.7169
13019TIP3   OH260471   6.729   2.626   2.579  0.3354 -0.1474  0.1785
13019TIP3    H160472   6.689   2.539   2.588 -0.0770  0.0796  0.6215
13019TIP3    H260473   6.808   2.621   2.633  1.4655 -0.9035 -1.4534
13020TIP3   OH260474   2.870   4.984  13.346  0.0353 -0.2906  0.3037
13020TIP3    H160475   2.935   5.007  13.412 -0.8948 -1.2017  1.5672
13020TIP3    H260476   2.911   4.914  13.295  0.6279  0.2010  0.0836
13021TIP3   OH260477   4.335   1.328   3.442 -0.4932 -0.0343 -0.0429
13021TIP3    H160478   4.297   1.243   3.461  1.2226 -0.9836 -0.6213
13021TIP3    H260479   4.318   1.381   3.520 -0.0988 -1.4589  1.0465
13022TIP3   OH260480   4.136   0.688  17.055 -0.4252  0.3325  0.3256
13022TIP3    H160481   4.098   0.635  16.986 -0.2770 -1.1679  1.3523
13022TIP3    H260482   4.094   0.774  17.046 -2.1706 -0.5262 -0.1374
13023TIP3   OH260483   2.290   3.649  15.777  0.3694  0.2618 -0.3033
13023TIP3    H160484   2.331   3.717  15.830  0.6712  0.2213 -0.4851
13023TIP3    H260485   2.258   3.696  15.700  0.2834  0.2534 -0.2732
13024TIP3   OH260486   0.421   3.507  11.926 -0.0529  0.3452  0.0440
13024TIP3    H160487   0.477   3.573  11.968  0.0453  0.2530  0.0610
13024TIP3    H260488   0.374   3.466  11.999  0.6671 -0.3234  0.1504
13025TIP3   OH260489   2.581   3.944   0.193  0.0180  0.0646  0.0556
13025TIP3    H160490   2.613   3.937   0.103  1.0206 -1.1994  0.4793
13025TIP3    H260491   2.655   3.978   0.243  0.4037 -1.8227  0.8519
13026TIP3   OH260492   0.207   0.853   4.275 -0.0875  0.3446 -0.3607
13026TIP3    H160493   0.256   0.802   4.341 -0.0926 -0.1390 -0.7219
13026TIP3    H260494   0.219   0.944   4.302  0.5707  0.2025 -0.1368
13027TIP3   OH260495   0.493   6.364   1.941 -0.0717  0.1282 -0.4553
13027TIP3    H160496   0.585   6.370   1.916 -0.5342 -1.6833 -2.9505
13027TIP3    H260497   0.445   6.385   1.861 -1.7739 -1.0422  0.1998
13028TIP3   OH260498   3.124   6.367  12.552 -0.0098  0.3399  0.5664
13028TIP3    H160499   3.193   6.392  12.491 -0.4925  0.3221  0.0103
13028TIP3    H260500   3.120   6.272  12.547  0.5848  0.2642  1.3310
13029TIP3   OH260501   5.799   2.739  13.860  0.3553 -0.2451 -0.1270
13029TIP3    H160502   5.705   2.738  13.877  0.2142  0.7616 -0.7315
13029TIP3    H260503   5.807   2.712  13.769  0.6273 -0.0521 -0.1612
13030TIP3   OH260504   3.804   3.080  12.168 -0.0105 -0.1918  0.1149
13030TIP3    H160505   3.742   3.021  12.212 -0.6156 -0.6840 -1.3167
13030TIP3    H260506   3.773   3.168  12.191 -0.7866 -0.4374  0.0576
13031TIP3   OH260507   6.324   6.728   5.396 -0.0154  0.3426 -0.0613
13031TIP3    H160508   6.319   6.763   5.485 -0.4906 -1.5466  0.7021
13031TIP3    H260509   6.306   6.634   5.406 -0.8443  0.2153 -2.2441
13032TIP3   OH260510   3.417   6.560  11.762  0.3821  0.2269  0.1779
13032TIP3    H160511   3.487   6.608  11.718  1.4219 -0.8885  0.5783
13032TIP3    H260512   3.409   6.479  11.712  0.2104 -0.1878  0.8716
13033TIP3   OH260513   5.483   1.962  13.510 -0.0034 -0.2621 -0.8115
13033TIP3    H160514   5.573   1.993  13.506  0.4336 -1.1123  1.3117
13033TIP3    H260515   5.464   1.955  13.603 -2.5782  0.6947 -1.2002
13034TIP3   OH260516   4.859   6.071  15.889 -0.6128 -0.2628 -0.2233
13034TIP3    H160517   4.890   6.109  15.972 -1.9146 -1.9857  1.1369
13034TIP3    H260518   4.936   6.028  15.852  0.3218  1.6959 -0.6555
13035TIP3   OH260519   3.616   4.165  16.368 -0.4180  0.5154 -0.7602
13035TIP3    H160520   3.641   4.107  16.440  2.0019  0.8463 -1.2712
13035TIP3    H260521   3.565   4.234  16.409 -1.0985 -0.5534  0.2532
13036TIP3   OH260522   5.100   4.753  14.503 -0.2824  0.6238  0.1835
13036TIP3    H160523   5.120   4.805  14.581 -0.0333 -0.1368  0.6425
13036TIP3    H260524   5.185   4.722  14.473 -0.4384  0.3884 -0.0171
13037TIP3   OH260525   0.784   5.624  12.588 -0.0789  0.2526  0.2536
13037TIP3    H160526   0.866   5.625  12.637  1.4703  0.4022 -2.1681
13037TIP3    H260527   0.775   5.714  12.556 -0.8320  0.0688 -0.0599
13038TIP3   OH260528   1.641   4.181  12.801 -0.0505  0.0026  0.1754
13038TIP3    H160529   1.728   4.214  12.779 -0.8455  2.1364  0.0687
13038TIP3    H260530   1.622   4.219  12.887 -0.6526 -0.9470  0.4835
13039TIP3   OH260531   2.055   2.764  14.745  0.7244  0.3331 -0.1842
13039TIP3    H160532   1.991   2.781  14.814  0.4890 -0.7643 -0.1198
13039TIP3    H260533   2.070   2.669  14.748  2.1125  0.5203 -0.4147
13040TIP3   OH260534   6.674   2.252   0.562 -0.2886  0.9238 -0.4721
13040TIP3    H160535   6.624   2.217   0.636 -0.7760  4.0568  0.8482
13040TIP3    H260536   6.610   2.259   0.491  0.0293 -1.4766 -1.0969
13041TIP3   OH260537   0.574   4.394  10.594  0.4960 -0.1318  0.4484
13041TIP3    H160538   0.574   4.418  10.501 -0.3092  0.4741  0.5890
13041TIP3    H260539   0.667   4.394  10.618  0.6779  0.3579 -0.1957
13042TIP3   OH260540   3.383   2.037  15.581  0.1933 -0.3063  0.0212
13042TIP3    H160541   3.362   2.131  15.583  1.1805 -0.0814  0.9323
13042TIP3    H260542   3.425   2.023  15.496  0.6498  0.2227  0.1558
13043TIP3   OH260543   4.055   1.166   1.138  0.2635  0.0046  0.0832
13043TIP3    H160544   4.087   1.131   1.221  2.5910  0.1623 -0.6810
13043TIP3    H260545   4.096   1.111   1.071  2.0964  2.5953 -1.0786
13044TIP3   OH260546   2.922   4.874  14.166  0.0705  0.2893  1.4861
13044TIP3    H160547   2.847   4.891  14.109  0.0587  0.8808  1.6759
13044TIP3    H260548   2.977   4.952  14.158  2.6003 -1.6029 -1.5885
13045TIP3   OH260549   6.399   4.333   5.515 -0.3353 -0.0089  0.0397
13045TIP3    H160550   6.402   4.296   5.427 -0.6695 -1.5139  0.6317
13045TIP3    H260551   6.308   4.360   5.526 -0.2189  0.4835 -0.1891
13046TIP3   OH260552   4.605   1.968  15.677 -0.2963 -0.0120 -0.0999
13046TIP3    H160553   4.618   2.062  15.690 -2.0287  0.2974 -0.2700
13046TIP3    H260554   4.590   1.959  15.583  2.1012 -0.8124 -0.4556
13047TIP3   OH260555   4.776   1.115   1.026 -0.2188 -0.5294 -0.2754
13047TIP3    H160556   4.849   1.174   1.009  0.1308 -1.0117 -0.4662
13047TIP3    H260557   4.699   1.162   0.994  0.1429 -0.4587 -1.0606
13048TIP3   OH260558   2.154   1.058   6.018 -0.3558 -0.5028  0.0701
13048TIP3    H160559   2.216   1.130   6.023 -2.3624  1.3481 -0.4066
13048TIP3    H260560   2.201   0.983   6.056  2.5796  0.4263 -1.4683
13049TIP3   OH260561   2.030   5.479   1.413 -0.0386 -0.0365  0.5425
13049TIP3    H160562   1.982   5.404   1.377 -2.2987  2.4339 -2.1050
13049TIP3    H260563   2.086   5.509   1.342  2.6051 -0.4362  2.3044
13050TIP3   OH260564   5.951   5.658   5.454 -0.0933  0.7929 -0.1457
13050TIP3    H160565   5.881   5.718   5.427  1.1900  2.1999 -0.5072
13050TIP3    H260566   6.027   5.715   5.468  1.2426 -0.7825 -0.6716
13051TIP3   OH260567   1.662   4.968  16.319 -0.2695 -0.2753  0.5760
13051TIP3    H160568   1.603   5.021  16.265  0.8445  0.8113  0.3581
13051TIP3    H260569   1.680   4.890  16.267 -1.9507 -0.9192  0.9049
13052TIP3   OH260570   3.364   0.729  15.244 -0.0637 -0.6467  0.3523
13052TIP3    H160571   3.283   0.719  15.195 -0.2044  0.1140  0.4132
13052TIP3    H260572   3.381   0.823  15.244 -0.2570 -0.5887  2.0669
13053TIP3   OH260573   1.660   1.709   4.082  0.1898 -0.4131 -0.1718
13053TIP3    H160574   1.666   1.697   4.177 -0.3665 -2.4867 -0.3496
13053TIP3    H260575   1.733   1.766   4.060 -0.1640  0.7974  1.5899
13054TIP3   OH260576   4.987   1.644   0.140 -0.3069  1.1819  0.3608
13054TIP3    H160577   5.051   1.686   0.082  0.1139  1.5433  1.0709
13054TIP3    H260578   5.033   1.634   0.223 -0.4074 -0.6751  0.2240
13055TIP3   OH260579   2.775   1.337   1.857 -0.3688 -0.3438  0.1142
13055TIP3    H160580   2.817   1.316   1.940 -0.9674  0.6959  0.6975
13055TIP3    H260581   2.783   1.256   1.805  0.6678 -0.7612  0.8875
13056TIP3   OH260582   0.164   2.878  12.975 -0.1407  0.3629  0.5375
13056TIP3    H160583   0.174   2.902  12.883  2.7406  0.6432  0.8207
13056TIP3    H260584   0.081   2.832  12.979  0.2824 -0.9008 -2.4803
13057TIP3   OH260585   5.934   0.651   1.829 -0.1596  0.2882 -0.0817
13057TIP3    H160586   5.882   0.726   1.857  0.4041  1.1678 -1.2996
13057TIP3    H260587   5.982   0.624   1.908  0.6913  2.1015  0.0596
13058TIP3   OH260588   0.236   0.663   0.740 -0.7153  0.1955 -0.0154
13058TIP3    H160589   0.235   0.568   0.753 -0.2312  0.1924  0.0397
13058TIP3    H260590   0.189   0.699   0.815 -2.5335 -0.0878 -0.9635
13059TIP3   OH260591   1.394   1.880   1.869 -0.1710 -0.6328 -0.2588
13059TIP3    H160592   1.401   1.933   1.948 -0.8051  0.6861 -1.0566
13059TIP3    H260593   1.473   1.901   1.820  0.7556 -2.2591  0.4637
13060TIP3   OH260594   0.075   3.370  11.055 -0.0026  0.5649 -0.2913
13060TIP3    H160595  -0.001   3.315  11.036 -1.0802  2.0805 -0.6276
13060TIP3    H260596   0.147   3.309  11.068 -1.1598 -0.9050 -0.5231
13061TIP3   OH260597   4.603   2.024  10.736  0.0045  0.2374  0.1513
13061TIP3    H160598   4.555   2.025  10.652 -1.4904 -0.1713  0.9592
13061TIP3    H260599   4.692   2.050  10.713 -0.0877 -0.9166 -1.7464
13062TIP3   OH260600   5.911   2.244  11.911  0.3288  0.7981  0.3830
13062TIP3    H160601   5.821   2.219  11.891  0.3619  1.9730 -1.4583
13062TIP3    H260602   5.956   2.242  11.827  2.3207 -0.7255  1.3977
13063TIP3   OH260603   2.357   6.575  16.370 -0.7737 -0.0167  0.3204
13063TIP3    H160604   2.320   6.569  16.458 -0.1758 -0.5873  0.5494
13063TIP3    H260605   2.440   6.622  16.382 -0.8106  0.1276  0.0204
13064TIP3   OH260606   3.815   1.041   2.385 -0.3000 -0.4293 -0.0476
13064TIP3    H160607   3.878   1.062   2.453 -1.0412  0.7086  0.3126
13064TIP3    H260608   3.829   0.948   2.368  1.4937 -0.1996 -0.0256
13065TIP3   OH260609   1.210   2.513  13.358 -0.1333 -0.0611  0.4113
13065TIP3    H160610   1.192   2.554  13.273  0.6741 -0.2069  0.1654
13065TIP3    H260611   1.183   2.580  13.422 -2.1303 -0.4966  0.1074
13066TIP3   OH260612   6.276   0.099  16.820 -0.5952 -0.1710 -0.1377
13066TIP3    H160613   6.305   0.164  16.757 -0.6747  0.4000  0.4039
13066TIP3    H260614   6.356   0.053  16.846 -0.4715  0.0268 -0.1698
13067TIP3   OH260615   3.831   4.913  11.715  0.4310  0.2353  0.2220
13067TIP3    H160616   3.862   4.851  11.648  1.3021 -0.8055  1.5292
13067TIP3    H260617   3.837   4.998  11.673 -0.4015 -0.4930 -1.5019
13068TIP3   OH260618   4.719   5.683  15.918  0.2204  0.1149  0.2499
13068TIP3    H160619   4.777   5.710  15.989  1.0546 -0.8135 -0.0482
13068TIP3    H260620   4.738   5.590  15.906 -3.3892 -1.0504  2.1108
13069TIP3   OH260621   1.131   5.581   4.453 -0.4378 -0.2178 -0.3935
13069TIP3    H160622   1.055   5.543   4.409 -0.0200  0.4488 -1.7465
13069TIP3    H260623   1.110   5.674   4.462  0.1385 -0.0564 -0.6419
13070TIP3   OH260624   5.568   0.326  15.090  0.0578  0.4263 -0.0353
13070TIP3    H160625   5.661   0.347  15.094  0.0784  0.5450 -0.8908
13070TIP3    H260626   5.552   0.270  15.166  1.5711 -2.4212 -1.6512
13071TIP3   OH260627   0.005   0.764   4.882 -0.4750  0.5574 -0.2039
13071TIP3    H160628   0.083   0.739   4.833  2.5578 -0.0162  4.2884
13071TIP3    H260629   0.027   0.848   4.921 -1.7739  0.1001  1.6773
13072TIP3   OH260630   1.352   2.278   2.638  0.2631 -0.1938  0.3270
13072TIP3    H160631   1.291   2.344   2.673 -0.5681 -1.5716  1.5876
13072TIP3    H260632   1.319   2.259   2.550 -0.5254 -0.1811  0.6161
13073TIP3   OH260633   3.257   4.888  15.803 -0.5875  0.1641 -0.1139
13073TIP3    H160634   3.251   4.824  15.732 -0.9404  0.5335 -0.4170
13073TIP3    H260635   3.241   4.837  15.883 -3.1481  0.2514 -0.5041
13074TIP3   OH260636   4.792   1.017  16.232 -0.9953 -0.0534 -0.0748
13074TIP3    H160637   4.793   1.066  16.149 -1.4993  1.7734  0.9517
13074TIP3    H260638   4.870   1.047  16.278 -1.5211  0.0821  0.7347
13075TIP3   OH260639   3.348   5.549  16.263  0.2692  0.2730 -0.3046
13075TIP3    H160640   3.425   5.543  16.318 -0.6427  0.0643  1.0048
13075TIP3    H260641   3.279   5.582  16.321 -1.0185 -1.0658 -0.9964
13076TIP3   OH260642   1.786   4.832  11.433  0.0427  0.1863  0.1636
13076TIP3    H160643   1.742   4.908  11.470 -1.5624 -1.5337  1.9807
13076TIP3    H260644   1.835   4.868  11.358 -0.3372  3.0254  1.1296
13077TIP3   OH260645   0.253   6.581  11.482  0.5494 -0.2109  0.2210
13077TIP3    H160646   0.283   6.554  11.395 -0.0020 -3.5203  0.9335
13077TIP3    H260647   0.314   6.650  11.507  1.6047 -0.1435 -2.2103
13078TIP3   OH260648   3.934   2.845   2.448  0.0824 -0.2816  0.8986
13078TIP3    H160649   3.874   2.816   2.516 -0.7611 -0.8164 -0.0567
13078TIP3    H260650   3.923   2.783   2.377  0.1566  0.8749 -0.1676
13079TIP3   OH260651   3.391   1.151   0.726 -0.0328 -0.4857  0.0542
13079TIP3    H160652   3.343   1.094   0.666  0.4578  0.3743 -1.2068
13079TIP3    H260653   3.364   1.240   0.702  1.2401 -0.0527  0.1254
13080TIP3   OH260654   6.540   5.216   5.903 -0.0658 -0.3999 -0.0585
13080TIP3    H160655   6.568   5.236   5.992  0.3443 -1.6062  0.1032
13080TIP3    H260656   6.617   5.235   5.849  0.0927 -0.8397  0.0074
13081TIP3   OH260657   4.196   3.668   2.085  0.9254 -0.3324 -0.2833
13081TIP3    H160658   4.262   3.693   2.150 -0.5905 -1.9074  2.0165
13081TIP3    H260659   4.207   3.573   2.075 -0.5920 -0.5345 -0.2675
13082TIP3   OH260660   2.277   3.300  14.858  0.8223  0.2540  0.1206
13082TIP3    H160661   2.354   3.339  14.817 -0.3867  1.1699 -1.3681
13082TIP3    H260662   2.210   3.303  14.791 -0.3769 -1.0454  1.2014
13083TIP3   OH260663   0.151   2.886   1.134 -0.4328 -0.2819 -0.0689
13083TIP3    H160664   0.226   2.879   1.193  0.6475  0.4488 -1.3133
13083TIP3    H260665   0.133   2.795   1.108 -0.0087 -0.4663  0.2639
13084TIP3   OH260666   1.535   1.356   1.924 -0.0490  0.3371 -0.0583
13084TIP3    H160667   1.558   1.439   1.966  0.0113 -0.6565  2.0095
13084TIP3    H260668   1.476   1.314   1.985 -1.1555 -0.5945 -1.7039
13085TIP3   OH260669   5.459   2.655   4.623  0.0696  0.5614  1.0072
13085TIP3    H160670   5.529   2.701   4.670  0.3313  0.9662  0.2560
13085TIP3    H260671   5.385   2.655   4.683  0.5276  0.6867  1.5781
13086TIP3   OH260672   3.450   2.285  15.459  0.0296 -0.1578 -0.9756
13086TIP3    H160673   3.543   2.261  15.460 -0.2314 -1.3185  0.7784
13086TIP3    H260674   3.441   2.348  15.529 -0.6940 -0.9554 -0.3323
13087TIP3   OH260675   6.616   1.263  11.071  0.1853 -0.3758  0.0672
13087TIP3    H160676   6.631   1.356  11.056 -1.5618 -0.1095 -0.2508
13087TIP3    H260677   6.636   1.222  10.986  0.0403 -0.1739 -0.0657
13088TIP3   OH260678   1.138   0.837   4.363  0.1756  0.1231 -0.2005
13088TIP3    H160679   1.085   0.851   4.284 -1.6789  1.1197  1.1593
13088TIP3    H260680   1.227   0.826   4.329 -0.4042  1.4119 -2.3907
13089TIP3   OH260681   5.684   2.589   4.478  0.4047 -0.1081  0.0403
13089TIP3    H160682   5.593   2.607   4.498  0.4932  1.5331 -0.8455
13089TIP3    H260683   5.730   2.598   4.562  0.0873  1.6355  0.0676
13090TIP3   OH260684   1.207   2.701  11.891  0.6604  0.1725 -0.5723
13090TIP3    H160685   1.233   2.660  11.973 -1.4781 -0.4564 -0.1427
13090TIP3    H260686   1.273   2.673  11.828 -0.0486 -3.1042 -0.0490
13091TIP3   OH260687   5.753   2.558   2.063  0.6505 -0.3254 -0.1358
13091TIP3    H160688   5.719   2.530   2.148  0.8953 -0.4387 -0.0741
13091TIP3    H260689   5.848   2.559   2.074  0.6282  1.3425  0.1061
13092TIP3   OH260690   1.813   6.009   0.660 -0.1591 -0.2507  0.5393
13092TIP3    H160691   1.879   6.039   0.598 -1.1076 -2.9078 -1.9824
13092TIP3    H260692   1.732   6.053   0.631 -0.1918  0.2489  1.3649
13093TIP3   OH260693   3.382   6.126  13.131 -0.1699  0.0076  0.3415
13093TIP3    H160694   3.442   6.078  13.074 -0.8996  0.3332 -0.7521
13093TIP3    H260695   3.422   6.212  13.141 -0.3850  0.1848 -0.2841
13094TIP3   OH260696   5.268   4.253   3.103 -0.0955 -1.0810  0.4501
13094TIP3    H160697   5.307   4.206   3.029 -2.1029 -0.4005 -1.1350
13094TIP3    H260698   5.323   4.229   3.178  0.4529 -3.9240 -0.7176
13095TIP3   OH260699   4.759   1.995   2.772 -0.4467  0.3237  0.4335
13095TIP3    H160700   4.773   2.067   2.711  0.5691 -1.7232 -1.9304
13095TIP3    H260701   4.682   1.949   2.737 -0.9256  0.0876  1.7469
13096TIP3   OH260702   0.654   6.078  16.976  0.0416 -0.3108 -0.3431
13096TIP3    H160703   0.680   6.005  17.032 -0.0122  0.7580  1.1329
13096TIP3    H260704   0.560   6.064  16.960  0.1787 -0.9170 -0.6616
13097TIP3   OH260705   1.160   3.554  12.803  0.5576  0.6840  0.2084
13097TIP3    H160706   1.176   3.477  12.749  0.4694  1.8620 -1.5658
13097TIP3    H260707   1.225   3.547  12.873 -0.1045 -1.4964  0.6908
13098TIP3   OH260708   6.063   2.186   0.531  0.0934  0.0064  0.2935
13098TIP3    H160709   6.083   2.097   0.500  0.8353 -0.4314  1.9495
13098TIP3    H260710   5.989   2.175   0.590  1.0482  0.2821  1.5684
13099TIP3   OH260711   0.554   1.797   0.860  0.4673 -0.0552  0.3543
13099TIP3    H160712   0.533   1.859   0.790 -0.9910  1.7576  2.2445
13099TIP3    H260713   0.501   1.720   0.842  0.7920  0.0194 -0.9815
13100TIP3   OH260714   4.588   4.891  17.151 -0.4913  0.5647 -0.9335
13100TIP3    H160715   4.606   4.812  17.201 -0.5363  0.9527 -0.2976
13100TIP3    H260716   4.498   4.880  17.120  0.4379 -1.0068 -3.4306
13101TIP3   OH260717   3.806   0.656   3.606  0.3345  0.2577 -0.1267
13101TIP3    H160718   3.807   0.576   3.659  1.5214  0.3490  0.0187
13101TIP3    H260719   3.813   0.727   3.670  1.8551  0.3659 -0.3883
13102TIP3   OH260720   6.239   0.520  15.064 -0.1052  0.4941 -0.0158
13102TIP3    H160721   6.159   0.467  15.054  0.8604 -1.3473  1.4613
13102TIP3    H260722   6.237   0.550  15.154  0.4638  1.1564 -0.2168
13103TIP3   OH260723   4.835   1.755  15.001 -0.5486 -0.8803 -0.6781
13103TIP3    H160724   4.813   1.814  14.929 -2.4064 -1.1573 -0.3767
13103TIP3    H260725   4.765   1.690  15.002 -1.4193 -0.0820  2.2170
13104TIP3   OH260726   3.734   4.634  14.324 -0.0210  0.1836 -0.2559
13104TIP3    H160727   3.826   4.647  14.302  0.1338 -0.9955 -0.3702
13104TIP3    H260728   3.690   4.628  14.239  0.0956 -1.1494 -0.2418
13105TIP3   OH260729   0.140   1.991   1.568 -0.1480  0.0136  0.0222
13105TIP3    H160730   0.176   2.015   1.653 -1.0266  0.3943  0.3039
13105TIP3    H260731   0.048   2.017   1.573 -0.4047 -0.6922 -0.7580
13106TIP3   OH260732   2.928   0.040   2.292 -0.0885 -0.0426 -0.2785
13106TIP3    H160733   2.969   0.050   2.207 -0.9345  0.2378 -0.6615
13106TIP3    H260734   3.000   0.020   2.351  0.7718  1.5212 -0.7303
13107TIP3   OH260735   3.559   0.986   1.674 -0.4117 -0.4509 -0.5229
13107TIP3    H160736   3.517   0.931   1.607 -0.9261  0.2224 -0.7594
13107TIP3    H260737   3.516   1.071   1.666 -0.8905 -0.5181  1.0731
13108TIP3   OH260738   5.618   4.744  11.264 -0.1060 -0.6329  0.0910
13108TIP3    H160739   5.602   4.676  11.199  0.3973  0.8907 -1.7076
13108TIP3    H260740   5.536   4.793  11.268 -0.0562 -0.5757  0.4171
13109TIP3   OH260741   2.475   4.763  16.085  0.5179 -0.0828 -0.1910
13109TIP3    H160742   2.410   4.778  16.017 -1.2757  0.1233  1.4688
13109TIP3    H260743   2.518   4.848  16.096  1.8893 -0.4872 -2.0409
13110TIP3   OH260744   4.628   6.375   3.494 -0.2200  0.1206  0.7146
13110TIP3    H160745   4.553   6.326   3.527 -1.6501  1.0289 -1.0173
13110TIP3    H260746   4.621   6.460   3.537 -0.5476  0.4048  0.1097
13111TIP3   OH260747   2.191   5.240   5.142 -0.0953 -0.3319  0.5156
13111TIP3    H160748   2.198   5.243   5.047  0.6397 -1.2775  0.5311
13111TIP3    H260749   2.213   5.329   5.171  0.1802 -0.1817 -0.1565
13112TIP3   OH260750   2.590   0.817  13.044 -0.1371 -0.2897 -0.4244
13112TIP3    H160751   2.674   0.855  13.017  0.5391 -0.8633  0.7772
13112TIP3    H260752   2.573   0.748  12.980 -0.5110  0.8667 -1.6083
13113TIP3   OH260753   0.846   0.111   6.599  0.3462 -0.2017  0.2925
13113TIP3    H160754   0.862   0.175   6.668  0.7151 -0.2989  0.3014
13113TIP3    H260755   0.877   0.028   6.635  0.1887 -0.3228  0.1522
13114TIP3   OH260756   0.841   0.700   4.762  0.4812 -0.6694  0.3207
13114TIP3    H160757   0.924   0.716   4.808  0.5752  0.5432 -0.2261
13114TIP3    H260758   0.849   0.749   4.680 -1.1341  0.2832  0.6847
13115TIP3   OH260759   3.254   5.619  11.017  0.4279  0.5513 -0.3359
13115TIP3    H160760   3.234   5.548  11.078 -0.0451  0.7204 -0.2947
13115TIP3    H260761   3.204   5.694  11.050 -0.4560  0.4359 -1.3778
13116TIP3   OH260762   5.620   2.422   3.360 -0.3255  0.3784  0.0428
13116TIP3    H160763   5.710   2.400   3.336 -0.6535  0.0885 -1.0120
13116TIP3    H260764   5.589   2.346   3.410  0.2391  0.7992  1.0455
13117TIP3   OH260765   2.862   5.603   5.267  0.3790  0.0872 -1.1299
13117TIP3    H160766   2.828   5.541   5.332 -0.4060  0.8928 -0.7449
13117TIP3    H260767   2.938   5.559   5.228  0.1962 -0.8561 -0.4413
13118TIP3   OH260768   2.407   3.067  10.554 -0.8307 -0.3551 -0.0932
13118TIP3    H160769   2.436   2.994  10.499  0.7022  0.1787 -0.0258
13118TIP3    H260770   2.336   3.108  10.503 -0.0885 -0.4494 -1.2379
13119TIP3   OH260771   6.786   1.567  10.601 -0.7635 -0.3071  0.3863
13119TIP3    H160772   6.743   1.614  10.671 -0.8388  0.4799 -0.1753
13119TIP3    H260773   6.715   1.521  10.555 -0.9722  0.6440 -0.2757
13120TIP3   OH260774   0.731   5.138   0.758 -0.2500 -0.0812  0.3831
13120TIP3    H160775   0.786   5.183   0.822 -0.7208 -0.4603  1.0648
13120TIP3    H260776   0.673   5.083   0.810 -0.5141 -0.5444 -0.3825
13121TIP3   OH260777   6.330   3.005  13.247  0.1412 -0.3942  0.1173
13121TIP3    H160778   6.352   2.913  13.231 -0.0085 -0.5449  0.7790
13121TIP3    H260779   6.414   3.048  13.264 -0.0487 -1.2619  4.2092
13122TIP3   OH260780   4.150   6.594  12.082  0.0547  0.1701  0.0331
13122TIP3    H160781   4.138   6.671  12.137 -0.6493 -1.5008  2.3580
13122TIP3    H260782   4.062   6.568  12.057  0.3631  0.9904 -2.1575
13123TIP3   OH260783   3.914   4.938  10.560 -0.8009 -0.3518  0.3838
13123TIP3    H160784   3.929   5.030  10.537 -2.4827  0.0265  0.6656
13123TIP3    H260785   3.864   4.942  10.641 -2.1840 -1.4738 -0.3874
13124TIP3   OH260786   5.686   6.233   3.485 -0.1045  0.0104 -0.3363
13124TIP3    H160787   5.635   6.314   3.486 -0.6069 -0.2421 -2.0921
13124TIP3    H260788   5.628   6.167   3.523 -0.2934  0.1588 -0.3673
13125TIP3   OH260789   5.271   4.536  14.738  1.1324 -0.0056 -0.1407
13125TIP3    H160790   5.281   4.561  14.646 -2.0005  0.5792 -0.4229
13125TIP3    H260791   5.308   4.448  14.744 -0.2427 -0.8004 -2.4102
13126TIP3   OH260792   2.995   6.358  16.830 -0.3414 -0.7328  0.1324
13126TIP3    H160793   3.064   6.339  16.893 -0.7367 -0.2153  0.7348
13126TIP3    H260794   3.034   6.420  16.770 -0.7792  0.9303  1.4852
13127TIP3   OH260795   6.211   3.528  13.148  0.1704 -0.4526  0.1386
13127TIP3    H160796   6.298   3.546  13.184  0.4342 -0.5099 -0.4453
13127TIP3    H260797   6.216   3.437  13.119  0.5464  0.0643 -1.5706
13128TIP3   OH260798   3.186   1.370   4.899  0.4681 -0.3562  0.8543
13128TIP3    H160799   3.223   1.329   4.821  0.1598  1.7682 -0.4882
13128TIP3    H260800   3.251   1.434   4.926 -0.3753  0.4716  0.9872
13129TIP3   OH260801   5.255   4.508  13.869 -0.2651  0.0684  0.3586
13129TIP3    H160802   5.339   4.481  13.905 -0.1993  0.5892  0.5955
13129TIP3    H260803   5.224   4.431  13.821  0.7242  0.1486 -0.4187
13130TIP3   OH260804   3.479   0.119   5.490  0.2078  0.1106  0.7884
13130TIP3    H160805   3.565   0.121   5.447  0.9737  0.1396  2.2600
13130TIP3    H260806   3.438   0.039   5.458  2.1028 -1.6269  2.4566
13131TIP3   OH260807   3.634   4.474  12.911 -0.4520 -0.2889 -0.3806
13131TIP3    H160808   3.707   4.431  12.868  1.4231  1.1529  1.1793
13131TIP3    H260809   3.639   4.446  13.002 -0.6820  1.2141  0.1367
13132TIP3   OH260810   4.047   0.985  13.738  0.3078  0.4894 -0.5533
13132TIP3    H160811   4.030   1.029  13.821  0.3918 -0.3676 -0.0789
13132TIP3    H260812   4.111   0.917  13.758 -2.2560 -2.1135 -0.5425
13133TIP3   OH260813   0.446   3.211   6.017  0.0436  0.4107  0.4339
13133TIP3    H160814   0.489   3.274   5.959  1.0121 -0.8915 -0.3115
13133TIP3    H260815   0.487   3.225   6.103 -0.4169  1.4127  0.4965
13134TIP3   OH260816   5.883   3.670   1.923 -0.4360 -0.3991 -0.3853
13134TIP3    H160817   5.962   3.724   1.923 -0.4870 -0.3080 -1.6002
13134TIP3    H260818   5.812   3.731   1.939 -0.3843 -0.2950 -0.5594
13135TIP3   OH260819   1.450   4.981   1.233 -0.6707  0.1049 -0.2884
13135TIP3    H160820   1.378   4.920   1.248  0.3614 -0.8522  0.9635
13135TIP3    H260821   1.528   4.927   1.235  0.1676  1.2715 -0.6148
13136TIP3   OH260822   3.910   6.070  13.728 -0.1435  0.8238 -0.0967
13136TIP3    H160823   3.822   6.055  13.762 -0.0243  1.2890  0.4355
13136TIP3    H260824   3.949   6.132  13.789  0.9767 -0.2744  0.3320
13137TIP3   OH260825   4.516   3.400  16.983 -0.4676 -0.7115 -0.1558
13137TIP3    H160826   4.448   3.398  16.915 -0.7008 -0.7090  0.0802
13137TIP3    H260827   4.472   3.371  17.062 -0.1996 -0.6835  0.0017
13138TIP3   OH260828   4.919   0.887  11.443  0.9122 -0.1781  0.2722
13138TIP3    H160829   4.997   0.865  11.494  1.0233  0.8449  0.5690
13138TIP3    H260830   4.916   0.820  11.374  1.9962 -0.2843  0.3057
13139TIP3   OH260831   6.356   3.330   4.439  0.4704  0.0575  0.0218
13139TIP3    H160832   6.282   3.343   4.499  0.5020  2.3664 -0.3442
13139TIP3    H260833   6.358   3.236   4.424 -0.8593 -0.3398  1.9730
13140TIP3   OH260834   3.871   5.258  16.554 -0.3280  0.0638 -0.0706
13140TIP3    H160835   3.912   5.313  16.620 -0.8970 -0.8645  1.1039
13140TIP3    H260836   3.818   5.196  16.604  0.0758 -1.3782 -1.3346
13141TIP3   OH260837   1.795   4.801  11.961  0.2530 -0.1955  0.0293
13141TIP3    H160838   1.821   4.844  12.042 -0.2748  1.6272 -0.7134
13141TIP3    H260839   1.878   4.775  11.920  0.5499 -0.4745  0.7921
13142TIP3   OH260840   0.259   2.954  11.712  0.2646  1.0819  0.0941
13142TIP3    H160841   0.198   2.999  11.654 -0.1550  2.1965  1.3267
13142TIP3    H260842   0.208   2.939  11.792  0.4343 -1.5366 -0.2215
13143TIP3   OH260843   4.833   5.919  16.668  0.2334  0.3403  0.3232
13143TIP3    H160844   4.857   5.975  16.743  1.2623 -0.2820  0.4789
13143TIP3    H260845   4.893   5.845  16.673 -1.5982 -1.2096  0.5734
13144TIP3   OH260846   3.854   4.963  13.439 -0.5039 -0.2139  0.1646
13144TIP3    H160847   3.938   5.008  13.445 -1.6581  2.1149  0.1167
13144TIP3    H260848   3.810   4.983  13.521 -0.6768 -2.2695  0.6334
13145TIP3   OH260849   3.418   2.532   5.421 -0.2419  0.4683 -0.8882
13145TIP3    H160850   3.513   2.527   5.431 -0.1388 -0.0434 -1.9185
13145TIP3    H260851   3.383   2.491   5.500  0.4441 -1.5223 -1.5638
13146TIP3   OH260852   0.237   6.390  12.372 -0.0142 -0.3850 -0.3826
13146TIP3    H160853   0.189   6.369  12.452  0.3791 -0.2058 -0.0966
13146TIP3    H260854   0.188   6.346  12.303 -0.1168 -0.8941  0.0096
13147TIP3   OH260855   2.007   5.435  13.614  0.2167 -0.0168 -0.1099
13147TIP3    H160856   2.001   5.461  13.705  0.7306  1.5531 -0.5015
13147TIP3    H260857   2.000   5.339  13.616 -1.6777  0.0801  1.3993
13148TIP3   OH260858   2.403   4.896   2.831  0.5791 -0.2219  0.3149
13148TIP3    H160859   2.381   4.811   2.793  1.0823 -0.4693  0.5743
13148TIP3    H260860   2.422   4.878   2.923  1.8589 -0.0201  0.1043
13149TIP3   OH260861   3.515   3.944  11.738  0.3140  0.0513 -0.1703
13149TIP3    H160862   3.460   3.950  11.659  2.0362 -1.8380 -1.6168
13149TIP3    H260863   3.585   4.007  11.722  1.6403 -1.5672 -1.0684
13150TIP3   OH260864   1.081   3.814   4.945  0.3531 -0.0638  0.1308
13150TIP3    H160865   1.095   3.757   4.870 -0.8532 -1.4406  0.9022
13150TIP3    H260866   0.998   3.784   4.983  1.0988  0.3444  2.2178
13151TIP3   OH260867   3.335   0.897   4.757 -0.2701  0.0770 -0.1397
13151TIP3    H160868   3.323   0.820   4.812  0.2481 -0.1878 -0.3909
13151TIP3    H260869   3.381   0.865   4.680  2.1646  1.0046  0.7909
13152TIP3   OH260870   1.365   0.201  10.823  0.4261 -0.2028  0.6255
13152TIP3    H160871   1.332   0.197  10.734 -1.0825 -0.4481  1.1782
13152TIP3    H260872   1.351   0.292  10.850  0.3139 -0.2814  0.8312
13153TIP3   OH260873   1.793   5.099   3.215  0.1803  0.4048  0.4884
13153TIP3    H160874   1.874   5.060   3.248  0.8184 -0.9335 -2.3495
13153TIP3    H260875   1.724   5.044   3.250  0.7708 -0.4767  0.3227
13154TIP3   OH260876   0.414   1.215  10.438  0.1473 -0.0988  0.4654
13154TIP3    H160877   0.414   1.295  10.491 -0.0016 -0.8662  1.6754
13154TIP3    H260878   0.325   1.180  10.448 -0.1301  0.1414 -0.9563
13155TIP3   OH260879   0.900   2.717  15.494  0.3185 -0.1254 -0.1189
13155TIP3    H160880   0.995   2.730  15.504  0.4870  0.3334 -1.9831
13155TIP3    H260881   0.887   2.707  15.400 -1.5724  0.4024  0.0485
13156TIP3   OH260882   3.120   1.663  13.063  0.3779 -0.4285  0.2108
13156TIP3    H160883   3.151   1.595  13.124  0.4689 -0.9486 -0.4095
13156TIP3    H260884   3.184   1.663  12.993  0.8903  0.9516  0.6476
13157TIP3   OH260885   0.171   2.039  11.302  0.0071  0.7606  0.1878
13157TIP3    H160886   0.239   1.979  11.272 -0.0458  0.6780  0.2303
13157TIP3    H260887   0.217   2.100  11.360  0.0935  0.8706  0.0042
13158TIP3   OH260888   0.396   2.018   0.297 -0.4010 -0.1305 -0.0582
13158TIP3    H160889   0.424   1.930   0.273  2.4699  1.0171 -1.3659
13158TIP3    H260890   0.336   2.044   0.226 -1.5123 -1.0651  0.4955
13159TIP3   OH260891   0.242   0.908  15.849 -0.5225 -0.5934  0.1315
13159TIP3    H160892   0.324   0.888  15.804 -0.6050  0.8160 -0.6901
13159TIP3    H260893   0.201   0.976  15.796 -1.5663 -0.2702  1.3000
13160TIP3   OH260894   6.140   6.288   2.848  0.4044 -0.2471  0.1232
13160TIP3    H160895   6.201   6.336   2.793  0.4188 -0.2390  0.1463
13160TIP3    H260896   6.187   6.272   2.930  0.5609 -0.6987 -0.0540
13161TIP3   OH260897   4.400   0.793  12.271  0.0708  0.3967 -0.3085
13161TIP3    H160898   4.358   0.715  12.235  0.9092 -0.5322  0.6579
13161TIP3    H260899   4.333   0.861  12.266 -0.7165 -0.4036 -1.0546
13162TIP3   OH260900   5.503   4.543   3.627  0.5027  0.0985  0.0126
13162TIP3    H160901   5.458   4.507   3.550 -0.6034  0.6714  0.3661
13162TIP3    H260902   5.520   4.635   3.605  2.3087 -0.3080 -0.4483
13163TIP3   OH260903   3.986   2.754  10.866 -0.2930 -0.7596 -0.0928
13163TIP3    H160904   4.026   2.780  10.783  1.1081  0.8000  1.0020
13163TIP3    H260905   3.892   2.749  10.846 -0.0325 -0.0321 -1.6817
13164TIP3   OH260906   6.692   3.264   1.132  0.5033 -0.3582  0.4895
13164TIP3    H160907   6.670   3.309   1.213 -0.9982  1.3278 -0.7684
13164TIP3    H260908   6.612   3.218   1.108  1.3327 -1.9237  0.5871
13165TIP3   OH260909   0.036   0.865   1.340  0.2632  0.1583 -0.1357
13165TIP3    H160910   0.103   0.859   1.272 -0.1384  1.8309 -0.7448
13165TIP3    H260911   0.051   0.950   1.381  0.6284 -0.8978  2.0512
13166TIP3   OH260912   2.555   6.459   1.686  0.3642 -0.1696 -0.1893
13166TIP3    H160913   2.648   6.479   1.697  0.3617  0.9260 -1.7496
13166TIP3    H260914   2.550   6.413   1.602 -0.3150 -1.8706  0.7460
13167TIP3   OH260915   3.021   3.574  12.058 -0.3545 -0.2537  0.5555
13167TIP3    H160916   2.940   3.529  12.084  0.0914 -0.3121  1.8964
13167TIP3    H260917   3.009   3.591  11.964 -1.8883 -0.3199  0.7051
13168TIP3   OH260918   5.696   2.358  17.052 -0.1521  0.5138 -0.5925
13168TIP3    H160919   5.628   2.299  17.017 -1.7377  2.4713 -0.9969
13168TIP3    H260920   5.709   2.328  17.142 -2.6865  0.9305  0.0010
13169TIP3   OH260921   0.564   0.073   5.205  0.2603 -0.4890 -0.2568
13169TIP3    H160922   0.513   0.003   5.165  2.7717 -1.1391 -2.6276
13169TIP3    H260923   0.613   0.031   5.275  0.3698 -0.7073 -0.4627
13170TIP3   OH260924   4.942   0.932  13.079 -0.0201  0.3097  0.0544
13170TIP3    H160925   4.964   1.012  13.126 -1.2518  0.2582  0.7596
13170TIP3    H260926   5.008   0.868  13.109  1.0990  1.0846 -0.6805
13171TIP3   OH260927   2.725   3.706   1.462  0.0106  0.4661 -0.1641
13171TIP3    H160928   2.702   3.644   1.392  0.0126 -1.5803  1.5553
13171TIP3    H260929   2.690   3.790   1.432  0.3915 -0.2216 -2.8082
13172TIP3   OH260930   3.800   0.131   1.934  0.2091  0.5860 -0.1710
13172TIP3    H160931   3.894   0.151   1.925  0.0168  1.8238  0.3565
13172TIP3    H260932   3.756   0.214   1.916 -0.8511 -0.1689 -1.2144
13173TIP3   OH260933   4.577   2.132   1.676 -0.7400 -0.0050 -0.1015
13173TIP3    H160934   4.647   2.197   1.682 -0.4781 -0.3501  0.8528
13173TIP3    H260935   4.608   2.070   1.610 -1.0967  0.9459 -1.1794
13174TIP3   OH260936   2.053   3.503  13.450  0.3892  0.3549  0.2367
13174TIP3    H160937   2.082   3.542  13.367 -0.5092  1.0855  0.2543
13174TIP3    H260938   1.967   3.540  13.465  0.0403 -0.6782  0.9108
13175TIP3   OH260939   2.750   3.289  11.208 -0.2146  0.1434 -0.6516
13175TIP3    H160940   2.786   3.284  11.120  0.5627 -0.4000 -0.3157
13175TIP3    H260941   2.663   3.326  11.196 -0.6553 -1.1768 -1.7907
13176TIP3   OH260942   1.291   6.282  13.434  0.0182 -0.5591 -0.3257
13176TIP3    H160943   1.312   6.368  13.397 -2.5169 -0.1267 -0.9421
13176TIP3    H260944   1.276   6.299  13.527 -0.3310 -0.3747 -0.4173
13177TIP3   OH260945   5.243   1.556  12.297 -0.1335  0.5629 -0.2161
13177TIP3    H160946   5.235   1.614  12.222  0.5045  1.0148  0.0523
13177TIP3    H260947   5.190   1.479  12.275 -0.1653  0.8110 -1.0055
13178TIP3   OH260948   4.543   0.083  12.904 -0.0898  0.4147 -0.0815
13178TIP3    H160949   4.608   0.021  12.937  1.6092  2.7420  1.2369
13178TIP3    H260950   4.465   0.030  12.890  1.8087 -2.3785 -1.0327
13179TIP3   OH260951   3.964   3.122   0.723  0.9580 -0.0751  0.4344
13179TIP3    H160952   3.911   3.051   0.760  0.3979  0.1096 -0.0086
13179TIP3    H260953   3.982   3.180   0.797  0.7130 -0.2423  0.6251
13180TIP3   OH260954   1.882   0.215   5.607 -0.3831 -0.4537 -0.0356
13180TIP3    H160955   1.919   0.255   5.528  0.4073 -1.0670  0.0026
13180TIP3    H260956   1.830   0.285   5.647 -0.8807 -0.1650 -1.1432
13181TIP3   OH260957   1.788   6.793  15.929  0.4932 -0.6213  0.3738
13181TIP3    H160958   1.776   6.716  15.874 -0.4626  0.3148 -0.7925
13181TIP3    H260959   1.883   6.804  15.935  0.6169 -1.1969 -0.4527
13182TIP3   OH260960   1.860   0.970   4.234  0.0963 -0.0145  0.3876
13182TIP3    H160961   1.808   1.042   4.270  0.2147 -0.6474  1.8889
13182TIP3    H260962   1.945   0.979   4.275  1.1340  0.7929 -1.7790
13183TIP3   OH260963   1.213   4.470  14.763  0.0122 -0.2467  0.5425
13183TIP3    H160964   1.133   4.504  14.805 -0.2867 -0.3086  0.0219
13183TIP3    H260965   1.259   4.549  14.733 -0.1171 -0.2420  0.3594
13184TIP3   OH260966   0.064   1.895   4.962 -0.0455 -0.2751 -0.0300
13184TIP3    H160967  -0.002   1.963   4.977  1.4012  0.8771  1.5693
13184TIP3    H260968   0.146   1.936   4.989  1.1564 -2.0535 -0.8413
13185TIP3   OH260969   3.173   0.892  16.632  0.2221 -0.0599  0.5465
13185TIP3    H160970   3.099   0.864  16.686  0.1069 -1.4923 -0.3216
13185TIP3    H260971   3.246   0.897  16.694  0.2642 -2.3834  0.7754
13186TIP3   OH260972   2.024   4.474  11.991 -0.0822 -0.2666 -0.1152
13186TIP3    H160973   2.085   4.471  12.065  0.6571 -0.3655 -0.7218
13186TIP3    H260974   1.950   4.420  12.019 -0.5290  0.9646  1.1803
13187TIP3   OH260975   6.456   1.931  11.153 -0.6350 -0.0720 -0.3572
13187TIP3    H160976   6.492   1.854  11.109 -2.1508  0.0801 -1.9991
13187TIP3    H260977   6.362   1.914  11.156 -0.8383  1.1225  0.4739
13188TIP3   OH260978   4.232   6.097   1.975  0.7458  0.0590 -0.2710
13188TIP3    H160979   4.271   6.184   1.972  1.9499 -0.3887  1.1272
13188TIP3    H260980   4.277   6.049   1.905  1.9373 -0.1239  0.5861
13189TIP3   OH260981   4.648   5.671   4.253  0.6240 -0.0258 -0.2900
13189TIP3    H160982   4.572   5.706   4.299  0.6821  0.4531 -0.5551
13189TIP3    H260983   4.704   5.637   4.322  0.2240 -0.2726 -0.0835
13190TIP3   OH260984   2.510   2.228  14.260  0.2879  0.6384  0.2027
13190TIP3    H160985   2.515   2.323  14.276  0.5202  0.3794  1.8887
13190TIP3    H260986   2.585   2.209  14.204  0.2682  1.4492 -0.1076
13191TIP3   OH260987   0.280   4.451  14.177 -0.0897 -0.7304 -0.6616
13191TIP3    H160988   0.272   4.365  14.134  0.3098 -0.9677 -0.2683
13191TIP3    H260989   0.362   4.486  14.143  1.2582 -1.7532  1.3335
13192TIP3   OH260990   6.321   4.189   2.882  0.1554 -0.1941  0.2368
13192TIP3    H160991   6.256   4.194   2.953 -1.1037 -2.5022 -0.6211
13192TIP3    H260992   6.319   4.097   2.855  2.4716  0.0700 -1.1103
13193TIP3   OH260993   5.078   1.346  13.838 -0.2902 -0.9207 -0.0744
13193TIP3    H160994   5.059   1.253  13.847  0.7756 -1.2266 -0.8692
13193TIP3    H260995   5.170   1.350  13.812 -0.1150  0.3889  0.6563
13194TIP3   OH260996   5.903   2.560   4.038  0.1346  0.1760  0.3006
13194TIP3    H160997   5.993   2.539   4.059  0.6890  0.0163 -1.9825
13194TIP3    H260998   5.870   2.606   4.116  1.1470 -2.4929  2.4568
13195TIP3   OH260999   2.444   1.252  14.216 -0.4498 -0.2007  0.3501
13195TIP3    H161000   2.516   1.311  14.194  0.1269 -0.7624  0.6612
13195TIP3    H261001   2.375   1.309  14.249  0.1354  0.2973  0.7530
13196TIP3   OH261002   2.938   3.144  12.129 -0.0108  0.8473 -0.2321
13196TIP3    H161003   2.852   3.150  12.169  0.4301  1.1247  0.7123
13196TIP3    H261004   2.942   3.218  12.068 -0.4140  0.8618 -0.2440
13197TIP3   OH261005   2.959   0.034  14.549 -0.0816  0.1330  0.1126
13197TIP3    H161006   3.030   0.050  14.611  0.7774  1.6913 -1.2007
13197TIP3    H261007   2.974   0.096  14.478 -2.0577 -0.3551 -0.8178
13198TIP3   OH261008   3.636   1.097   5.271 -0.2651 -0.2302  0.7356
13198TIP3    H161009   3.687   1.023   5.305  0.6472  0.2194  0.3855
13198TIP3    H261010   3.590   1.061   5.195  0.2781 -0.4064  0.4883
13199TIP3   OH261011   6.301   6.230   1.794 -0.0897  0.4365  0.7475
13199TIP3    H161012   6.322   6.321   1.773 -0.8139  0.3666 -0.3789
13199TIP3    H261013   6.381   6.182   1.775 -0.2662  0.5975 -0.4721
13200TIP3   OH261014   0.785   5.292  16.997  0.3889  0.4778  0.4630
13200TIP3    H161015   0.694   5.270  17.019 -0.2490  0.4901 -1.9115
13200TIP3    H261016   0.831   5.291  17.081 -1.6843 -0.0672  1.6557
13201TIP3   OH261017   2.843   5.428   5.026 -0.2342 -0.3036 -0.0353
13201TIP3    H161018   2.893   5.414   5.105 -1.0337 -0.6160  0.4286
13201TIP3    H261019   2.760   5.383   5.041 -0.6496  0.1766 -0.7870
13202TIP3   OH261020   3.619   5.905   1.554  0.4291  0.4799  0.2047
13202TIP3    H161021   3.526   5.891   1.574  0.4439 -0.3548 -0.2769
13202TIP3    H261022   3.654   5.944   1.634 -0.4102  1.1540  0.2635
13203TIP3   OH261023   1.915   2.920   1.862 -0.2932 -0.2468 -0.1812
13203TIP3    H161024   1.831   2.960   1.841 -1.1816 -2.0922 -0.3537
13203TIP3    H261025   1.979   2.991   1.851 -1.7286  1.0205 -0.7090
13204TIP3   OH261026   6.734   3.397   2.240 -0.2948 -0.3189 -0.4378
13204TIP3    H161027   6.746   3.377   2.147 -0.5102  0.4333 -0.6364
13204TIP3    H261028   6.816   3.370   2.281 -0.0521 -0.3059 -0.9085
13205TIP3   OH261029   6.603   0.629   0.811  0.5755 -0.0362 -0.3986
13205TIP3    H161030   6.688   0.635   0.854  0.1048  3.0256  0.3214
13205TIP3    H261031   6.539   0.643   0.881 -0.3856  0.6782 -1.3777
13206TIP3   OH261032   5.903   0.855   0.489 -0.2857  0.6602  0.1904
13206TIP3    H161033   5.896   0.858   0.585  0.2031  0.0748  0.2518
13206TIP3    H261034   5.839   0.789   0.463 -0.3031  0.7020  0.1283
13207TIP3   OH261035   6.518   0.137  14.068  0.6476  0.0483  0.3994
13207TIP3    H161036   6.447   0.088  14.028 -0.9487  1.9109  0.7835
13207TIP3    H261037   6.492   0.147  14.160  0.7544  1.7906  0.2808
13208TIP3   OH261038   2.396   6.735  14.607 -0.6919  0.1673  0.1572
13208TIP3    H161039   2.317   6.708  14.559 -0.2710 -2.6471  0.9082
13208TIP3    H261040   2.457   6.662  14.597  0.5023  0.7463  2.5139
13209TIP3   OH261041   5.069   3.463   5.817 -0.5295 -0.5881  0.7185
13209TIP3    H161042   5.106   3.374   5.825  0.2782 -0.4199 -0.6871
13209TIP3    H261043   5.033   3.465   5.728 -2.6154 -0.2261  1.5328
13210TIP3   OH261044   5.778   0.244   0.139  0.6559  0.1670  0.6213
13210TIP3    H161045   5.731   0.168   0.106  0.6809  0.5051 -0.2077
13210TIP3    H261046   5.870   0.216   0.141  0.8637  0.6070 -1.0352
13211TIP3   OH261047   0.235   5.166  12.854  0.3772  0.3415  0.0082
13211TIP3    H161048   0.232   5.073  12.877  2.1240  0.0219 -0.8824
13211TIP3    H261049   0.148   5.199  12.877 -0.0238 -1.3208  1.0847
13212TIP3   OH261050   3.905   3.817  13.144 -0.4801 -0.3743 -0.1193
13212TIP3    H161051   3.853   3.740  13.165  0.0284 -0.2734  1.7729
13212TIP3    H261052   3.995   3.784  13.136 -0.3365 -0.0653  0.1710
13213TIP3   OH261053   1.202   4.319   3.866  0.4746  0.4580 -0.7749
13213TIP3    H161054   1.297   4.310   3.862  0.3164 -2.8500  0.4408
13213TIP3    H261055   1.169   4.271   3.790 -0.2556  0.6139 -0.5735
13214TIP3   OH261056   4.742   3.593   0.941 -0.2849  0.3788  0.6914
13214TIP3    H161057   4.753   3.671   0.886 -0.2368  0.6399  1.0699
13214TIP3    H261058   4.793   3.525   0.896  0.2843  0.7580  0.7559
13215TIP3   OH261059   3.012   4.787   2.997 -0.5790 -0.0595  0.0049
13215TIP3    H161060   3.022   4.754   2.908  0.4300 -1.1449  0.4818
13215TIP3    H261061   2.917   4.789   3.012 -0.9143  2.6123 -1.9321
13216TIP3   OH261062   4.227   2.208  13.225 -0.2639 -0.6122  0.3490
13216TIP3    H161063   4.239   2.191  13.318  1.0674 -0.5316  0.2018
13216TIP3    H261064   4.311   2.242  13.195 -0.3084 -1.6962 -1.1196
13217TIP3   OH261065   1.072   5.272   3.911 -0.1994  0.4179 -0.0295
13217TIP3    H161066   1.086   5.331   3.985  2.7845 -3.2535  2.7569
13217TIP3    H261067   1.143   5.292   3.851  0.4967  0.1053  0.6622
13218TIP3   OH261068   4.412   6.730   2.610  0.5579 -0.0597 -0.3189
13218TIP3    H161069   4.326   6.693   2.590  0.6230 -0.2838 -0.1896
13218TIP3    H261070   4.470   6.654   2.617  0.9414  0.1389 -1.2250
13219TIP3   OH261071   1.701   2.048   1.494 -0.2487  0.0892 -0.2525
13219TIP3    H161072   1.740   2.024   1.410 -0.4772  0.9558 -0.6140
13219TIP3    H261073   1.606   2.048   1.477 -0.3651 -0.7635  0.2918
13220TIP3   OH261074   3.594   5.593  11.815  0.1474 -0.0809  0.7494
13220TIP3    H161075   3.539   5.617  11.740  1.9433 -0.4956 -0.7901
13220TIP3    H261076   3.573   5.657  11.883 -0.0109  1.6721 -0.8736
13221TIP3   OH261077   4.828   0.851   4.952  0.2582  0.1622 -0.8552
13221TIP3    H161078   4.831   0.793   4.876 -3.3323  0.0652 -1.0953
13221TIP3    H261079   4.784   0.799   5.019 -0.4080  1.6281 -0.1132
13222TIP3   OH261080   1.422   1.247  10.887 -0.7126 -0.2961 -0.0410
13222TIP3    H161081   1.420   1.151  10.892 -2.8171 -0.3271 -0.5556
13222TIP3    H261082   1.379   1.268  10.804 -1.7245  1.1265  0.7983
13223TIP3   OH261083   3.057   1.728  10.618 -0.0325  0.1078  0.0163
13223TIP3    H161084   3.024   1.774  10.696 -1.4835 -1.7593  0.5924
13223TIP3    H261085   3.115   1.660  10.654 -1.3923 -1.3318 -0.3998
13224TIP3   OH261086   2.691   6.573   4.888 -0.4747 -0.1439  0.3215
13224TIP3    H161087   2.619   6.615   4.841  0.0798  0.8765  0.3405
13224TIP3    H261088   2.721   6.640   4.950  0.8066 -0.3641 -0.0275
13225TIP3   OH261089   3.718   1.995  13.932 -0.0900  0.0702  0.2531
13225TIP3    H161090   3.711   2.051  14.010 -0.7919 -0.3968  0.5343
13225TIP3    H261091   3.801   1.949  13.944  0.1380  0.5000  0.3793
13226TIP3   OH261092   5.084   5.037   4.722 -0.3062 -0.4154  0.6302
13226TIP3    H161093   5.119   4.948   4.731 -0.5247 -0.7612 -1.4394
13226TIP3    H261094   5.051   5.059   4.810  2.6772 -1.0708  2.0298
13227TIP3   OH261095   1.408   2.051   1.470  0.0822 -0.0092 -0.4270
13227TIP3    H161096   1.356   1.983   1.513  1.7508 -1.7530 -0.9886
13227TIP3    H261097   1.365   2.064   1.386  0.2285 -1.0881 -0.6894
13228TIP3   OH261098   3.473   2.323   0.904 -0.2044 -0.1487  0.3155
13228TIP3    H161099   3.553   2.367   0.877 -0.3161 -0.1882 -0.0828
13228TIP3    H261100   3.496   2.230   0.903 -0.4529 -0.2109 -0.4875
13229TIP3   OH261101   5.555   3.524   2.462 -0.1994  0.1038 -0.3955
13229TIP3    H161102   5.602   3.441   2.468 -1.2191 -0.5427 -1.0441
13229TIP3    H261103   5.466   3.504   2.493 -1.6916 -0.1207 -4.2626
13230TIP3   OH261104   0.784   4.328   5.437 -0.3191  0.4769 -0.2030
13230TIP3    H161105   0.847   4.279   5.385  1.1743 -1.3430  3.0413
13230TIP3    H261106   0.704   4.277   5.433 -0.1663  0.2586 -0.5193
13231TIP3   OH261107   6.183   0.299   3.588  0.3367 -0.1405  0.8249
13231TIP3    H161108   6.135   0.379   3.611  0.8317  0.7649 -1.0705
13231TIP3    H261109   6.115   0.235   3.568 -0.0661 -0.0133  1.7448
13232TIP3   OH261110   4.758   2.230   2.584  0.1756 -0.1313 -0.0321
13232TIP3    H161111   4.844   2.259   2.614  0.5857  1.6311 -2.5806
13232TIP3    H261112   4.762   2.237   2.488 -2.4391 -1.0750 -0.3081
13233TIP3   OH261113   3.660   5.588   5.218 -0.3135  0.0076  0.2597
13233TIP3    H161114   3.703   5.504   5.236  0.2669  0.4436  0.9696
13233TIP3    H261115   3.695   5.647   5.285 -0.8817  0.7608 -0.1007
13234TIP3   OH261116   5.611   0.116   0.962 -0.4406 -0.3330 -0.0577
13234TIP3    H161117   5.617   0.209   0.940  0.5061 -0.5961 -0.9840
13234TIP3    H261118   5.534   0.110   1.019 -1.0170  0.8815 -0.6716
13235TIP3   OH261119   2.991   3.250   0.983 -0.8151  0.2099 -0.0941
13235TIP3    H161120   2.906   3.250   0.938 -0.5257  0.2675 -0.6481
13235TIP3    H261121   2.999   3.162   1.020  0.0860 -0.7287 -2.3550
13236TIP3   OH261122   4.731   5.973   5.228 -0.3028 -0.0420  0.1889
13236TIP3    H161123   4.813   5.937   5.194 -0.3606 -0.4472  0.4636
13236TIP3    H261124   4.741   5.969   5.323 -0.0454  1.2981  0.2413
13237TIP3   OH261125   6.698   2.714  10.790  0.2926  0.6856 -0.3583
13237TIP3    H161126   6.677   2.804  10.816  0.6605  1.3955 -2.3542
13237TIP3    H261127   6.793   2.711  10.789  0.2910  0.0252  0.4238
13238TIP3   OH261128   3.722   2.745   1.054 -0.1400  0.0773  0.0764
13238TIP3    H161129   3.686   2.710   1.136  0.6221 -0.7843  0.0532
13238TIP3    H261130   3.805   2.785   1.079  1.1367 -2.0104 -0.5440
13239TIP3   OH261131   6.536   4.333  14.841  0.1189  0.1946 -0.1244
13239TIP3    H161132   6.486   4.380  14.908  0.6747 -1.5258  1.6091
13239TIP3    H261133   6.627   4.351  14.862  0.3036  0.1679 -0.8670
13240TIP3   OH261134   2.713   5.184   1.921  0.0229 -0.5682 -0.6569
13240TIP3    H161135   2.623   5.151   1.917  0.2361 -1.0630 -2.1105
13240TIP3    H261136   2.758   5.139   1.849  1.6874 -1.0442  0.6066
13241TIP3   OH261137   0.316   0.480   4.884  0.2486 -0.3446 -0.1050
13241TIP3    H161138   0.407   0.462   4.908 -0.0074 -0.6346  0.6690
13241TIP3    H261139   0.280   0.528   4.958  0.0524  0.6978 -0.8496
13242TIP3   OH261140   6.048   3.717   1.443 -0.2832  0.3427  0.1511
13242TIP3    H161141   6.004   3.773   1.379 -1.4235  0.1225  0.7070
13242TIP3    H261142   6.136   3.753   1.451 -0.3565  0.8053 -1.0017
13243TIP3   OH261143   0.076   3.442   4.739 -0.6141  0.1297 -0.6257
13243TIP3    H161144   0.039   3.354   4.745  0.8554 -0.4209  1.4549
13243TIP3    H261145   0.016   3.489   4.681 -0.4564 -2.6987 -3.3387
13244TIP3   OH261146   1.111   0.083   1.061  0.2068  0.4641  1.0718
13244TIP3    H161147   1.126   0.130   0.979 -2.0767 -0.7793 -0.1479
13244TIP3    H261148   1.122  -0.009   1.039 -1.2637  0.0577  1.9308
13245TIP3   OH261149   3.185   2.096  16.645 -0.0987 -0.0254 -0.2449
13245TIP3    H161150   3.128   2.167  16.675 -0.2095 -0.0192 -0.4677
13245TIP3    H261151   3.218   2.127  16.560 -0.1996 -0.2689 -0.3728
13246TIP3   OH261152   0.937   0.889  17.024 -1.1119 -0.1229  0.0679
13246TIP3    H161153   0.944   0.901  16.929  1.9419  1.4724  0.3522
13246TIP3    H261154   0.932   0.978  17.058  0.9684 -0.4684  1.4640
13247TIP3   OH261155   5.877   0.842  15.541 -0.3066 -0.8138 -0.0049
13247TIP3    H161156   5.828   0.839  15.459 -0.7289 -1.6016  0.2748
13247TIP3    H261157   5.845   0.921  15.585  0.7762  0.2833 -1.1148
13248TIP3   OH261158   3.560   4.462  15.902  0.2023 -0.2484  0.1543
13248TIP3    H161159   3.531   4.409  15.828 -1.6653  0.6644  0.1773
13248TIP3    H261160   3.516   4.424  15.977 -1.2566  1.3163  0.1583
13249TIP3   OH261161   4.405   6.658   4.095  0.1993  0.2871  0.2328
13249TIP3    H161162   4.423   6.656   4.189  0.9905  2.2599  0.1571
13249TIP3    H261163   4.469   6.597   4.058  0.0168 -0.3519  0.9354
13250TIP3   OH261164   1.719   1.421  14.062  0.1731  0.1237 -0.0573
13250TIP3    H161165   1.661   1.348  14.041  0.7735 -0.2840 -0.3348
13250TIP3    H261166   1.802   1.379  14.086  0.5872  0.7175 -0.4309
13251TIP3   OH261167   4.767   5.373   5.630 -0.0475  0.2408 -0.2462
13251TIP3    H161168   4.802   5.286   5.611  2.5178  1.4340 -1.6468
13251TIP3    H261169   4.808   5.397   5.713 -1.0166  0.0082  0.3086
13252TIP3   OH261170   2.884   1.979   0.614  0.3247 -0.2371  0.4836
13252TIP3    H161171   2.955   1.957   0.675  1.5114 -1.2982 -1.1938
13252TIP3    H261172   2.883   1.907   0.551 -0.5474  1.0219 -1.0179
13253TIP3   OH261173   1.625   2.979  15.684 -0.5646 -0.0120  0.1101
13253TIP3    H161174   1.532   2.986  15.664 -0.2574 -0.1242 -1.4662
13253TIP3    H261175   1.638   2.886  15.705 -0.7679 -0.0520  0.0615
13254TIP3   OH261176   1.199   3.709   4.699 -0.4055  0.4896 -0.2540
13254TIP3    H161177   1.192   3.692   4.605 -0.0514  1.2859 -0.4280
13254TIP3    H261178   1.250   3.790   4.705  0.6611 -0.2284  0.6648
13255TIP3   OH261179   4.726   0.307  16.484 -0.0883 -0.1374  0.5111
13255TIP3    H161180   4.766   0.374  16.539  0.3362  0.1146 -0.0970
13255TIP3    H261181   4.770   0.226  16.510  3.8638  0.6075 -2.8213
13256TIP3   OH261182   2.893   5.664   6.179  0.1817 -0.0559  0.7871
13256TIP3    H161183   2.958   5.615   6.128  0.4543  2.7571 -1.8570
13256TIP3    H261184   2.943   5.734   6.220 -0.8899  1.0733  0.2107
13257TIP3   OH261185   4.624   0.443   1.167  0.8149 -0.0954 -0.2195
13257TIP3    H161186   4.530   0.433   1.153  0.6506 -0.8571  1.2487
13257TIP3    H261187   4.660   0.355   1.151  1.2952  0.1901 -0.7688
13258TIP3   OH261188   0.924   6.740   5.145  0.4278  0.1641  0.2604
13258TIP3    H161189   0.884   6.802   5.085  0.6438 -0.3285 -0.4011
13258TIP3    H261190   0.939   6.662   5.092  0.9781 -0.1393  0.8571
13259TIP3   OH261191   0.672   1.527  14.719  0.2757 -0.0004  0.0447
13259TIP3    H161192   0.587   1.492  14.693  0.2227 -0.4780  0.8477
13259TIP3    H261193   0.734   1.458  14.697  0.1653 -0.6494  1.6812
13260TIP3   OH261194   3.664   4.519  15.291 -0.1468  0.2251 -0.2250
13260TIP3    H161195   3.628   4.600  15.256  0.0651 -0.5338 -2.3911
13260TIP3    H261196   3.597   4.453  15.274 -0.7869  0.0773  2.5179
13261TIP3   OH261197   3.796   1.701  16.503 -0.2688 -0.0487 -0.4399
13261TIP3    H161198   3.784   1.643  16.579 -0.0076 -1.0342 -1.1278
13261TIP3    H261199   3.723   1.762  16.507 -1.2796 -1.2177 -0.3792
13262TIP3   OH261200   1.645   2.411  11.666 -0.5498 -0.7969 -0.1937
13262TIP3    H161201   1.679   2.460  11.591 -0.8566 -0.0206  0.1623
13262TIP3    H261202   1.715   2.349  11.687  0.4824  0.4629  0.2428
13263TIP3   OH261203   1.753   3.029  12.261  0.1812  0.2296  0.2330
13263TIP3    H161204   1.725   2.957  12.318  1.6798 -1.7429 -1.3817
13263TIP3    H261205   1.713   3.009  12.177  2.6877 -0.2302 -0.9360
13264TIP3   OH261206   4.763   4.886   3.310  0.5365  0.1242 -0.1550
13264TIP3    H161207   4.756   4.796   3.279  0.0323  0.4624 -1.0872
13264TIP3    H261208   4.677   4.904   3.349  0.8430  0.0115  0.5810
13265TIP3   OH261209   6.004   2.020  12.079  0.1959 -0.2643  0.3506
13265TIP3    H161210   6.083   2.040  12.028 -0.4828 -0.9853 -1.0416
13265TIP3    H261211   5.958   2.104  12.084 -0.6780 -0.5232 -1.9817
13266TIP3   OH261212   2.828   2.839  12.380  0.1848  0.2327  0.0089
13266TIP3    H161213   2.773   2.794  12.316 -1.1596 -0.5817  1.6599
13266TIP3    H261214   2.805   2.931  12.372  0.5850  0.2449 -1.1627
13267TIP3   OH261215   3.931   1.192  12.613 -0.4286 -0.2191 -0.7057
13267TIP3    H161216   3.987   1.132  12.661 -0.7726  0.9066  1.2196
13267TIP3    H261217   3.879   1.136  12.556 -0.1164 -1.6516  0.3616
13268TIP3   OH261218   5.296   1.846   2.619 -0.3173 -0.0470 -0.0861
13268TIP3    H161219   5.214   1.802   2.599  1.3201 -2.6132 -1.8122
13268TIP3    H261220   5.349   1.779   2.662  1.2184  1.2534  0.1524
13269TIP3   OH261221   1.861   3.128   0.976 -0.1506  0.7278  0.2920
13269TIP3    H161222   1.906   3.181   1.042  0.8048 -1.6077  1.6214
13269TIP3    H261223   1.795   3.080   1.025  1.1986 -1.7708 -0.1699
13270TIP3   OH261224   6.314   5.713  16.815  0.1761  0.2108  0.2239
13270TIP3    H161225   6.378   5.648  16.786 -0.1600 -0.2671  0.5459
13270TIP3    H261226   6.296   5.690  16.906  0.2441  0.9146  0.4245
13271TIP3   OH261227   1.150   3.639  14.104 -0.0091  0.4615 -0.1312
13271TIP3    H161228   1.100   3.661  14.026 -0.0633 -0.3934 -0.3520
13271TIP3    H261229   1.156   3.721  14.153 -0.1952  0.9447 -0.9041
13272TIP3   OH261230   2.080   0.132   4.133  0.2643 -0.6538  0.2366
13272TIP3    H161231   2.022   0.128   4.209  0.7292 -1.5952  0.5564
13272TIP3    H261232   2.142   0.201   4.155 -1.9103  1.8550 -0.9992
13273TIP3   OH261233   2.460   1.059  16.150  0.2641  0.1165  0.1810
13273TIP3    H161234   2.365   1.058  16.144  0.2394  1.4977  0.1698
13273TIP3    H261235   2.487   1.143  16.112  1.6936 -1.3161 -2.2694
13274TIP3   OH261236   2.349   3.875   1.770 -0.6713  0.1742 -0.0715
13274TIP3    H161237   2.354   3.959   1.816  0.8369  0.5993 -0.9206
13274TIP3    H261238   2.351   3.809   1.839 -0.5057  0.8256  0.5585
13275TIP3   OH261239   4.505   2.004   4.108  0.2560 -0.3920 -0.7955
13275TIP3    H161240   4.458   2.001   4.191 -2.3728 -0.2201 -2.1404
13275TIP3    H261241   4.574   2.068   4.121  1.6970 -2.2977  2.0007
13276TIP3   OH261242   5.008   5.315   0.839 -0.1371 -0.1375 -0.3566
13276TIP3    H161243   4.975   5.355   0.759 -0.0375  0.6319 -0.0211
13276TIP3    H261244   4.956   5.354   0.909  0.1844 -0.3499  0.0092
13277TIP3   OH261245   0.632   4.793  13.651  0.1136 -0.2217 -0.0600
13277TIP3    H161246   0.625   4.705  13.612  1.6371 -0.3944  0.0069
13277TIP3    H261247   0.676   4.779  13.735 -0.4330  0.5158  0.3607
13278TIP3   OH261248   4.418   5.871  12.799 -0.1249  0.1553 -0.0876
13278TIP3    H161249   4.426   5.793  12.744 -1.3151 -0.2329  0.2498
13278TIP3    H261250   4.456   5.846  12.883 -0.6914 -0.1530  0.0867
13279TIP3   OH261251   0.284   1.672  15.713  0.5236 -0.3588 -0.0675
13279TIP3    H161252   0.290   1.691  15.619  1.8233 -1.0372 -0.1503
13279TIP3    H261253   0.199   1.629  15.724  1.7067 -3.3619 -1.5629
13280TIP3   OH261254   5.731   1.958   3.881  0.8655  0.8746 -0.1374
13280TIP3    H161255   5.698   1.914   3.803  0.6439 -1.5824  1.2294
13280TIP3    H261256   5.656   1.961   3.941  1.1392  2.3287  0.1623
13281TIP3   OH261257   2.692   0.920   5.672  0.5418 -0.0728 -0.4730
13281TIP3    H161258   2.648   0.911   5.588  0.3592  4.9631 -1.2221
13281TIP3    H261259   2.621   0.922   5.737  0.2200  0.7109 -0.8302
13282TIP3   OH261260   5.244   2.006   1.190  0.2286 -0.4827 -0.1521
13282TIP3    H161261   5.215   2.023   1.280  1.4916 -0.4619  0.2707
13282TIP3    H261262   5.303   2.080   1.170  0.0509 -0.5510 -0.9538
13283TIP3   OH261263   2.017   5.933  15.115  0.8472 -0.3323  0.5602
13283TIP3    H161264   2.004   5.928  15.020  1.2752  0.6056  0.4397
13283TIP3    H261265   2.110   5.953  15.126  0.8350 -0.5968  1.1857
13284TIP3   OH261266   1.537   4.095  13.256 -0.2000  0.6389  0.0783
13284TIP3    H161267   1.528   4.137  13.170 -0.2481  2.0801  0.7590
13284TIP3    H261268   1.584   4.159  13.309 -1.3706  0.3479  1.5251
13285TIP3   OH261269   0.991   6.382   3.062 -0.0052  0.4029 -0.1469
13285TIP3    H161270   0.904   6.396   3.026  0.3650 -0.5681 -1.4979
13285TIP3    H261271   1.023   6.302   3.019  1.7910  1.0720 -0.1751
13286TIP3   OH261272   6.196   4.568  13.371  0.3398 -0.1994 -0.1482
13286TIP3    H161273   6.284   4.547  13.342  0.3922 -0.1740 -0.0078
13286TIP3    H261274   6.196   4.663  13.381 -0.5691  0.1823 -3.0289
13287TIP3   OH261275   3.535   4.712  12.119  0.4411  0.1885 -0.5093
13287TIP3    H161276   3.507   4.796  12.084 -1.9135  0.0915  0.8732
13287TIP3    H261277   3.609   4.733  12.176 -0.5384  1.4712  0.3507
13288TIP3   OH261278   3.219   6.535   1.727  0.3509  0.5429 -0.2749
13288TIP3    H161279   3.237   6.441   1.721 -0.7702  0.2278  0.9167
13288TIP3    H261280   3.133   6.545   1.687 -0.3279  0.7533  1.1588
13289TIP3   OH261281   2.822   2.003  14.237 -0.3144  0.2694 -0.5220
13289TIP3    H161282   2.837   1.934  14.172 -1.7804  1.0325 -1.7359
13289TIP3    H261283   2.736   1.983  14.274  0.7315 -0.4765  1.6628
13290TIP3   OH261284   1.787   4.429   5.601 -0.1494  0.4847  0.3963
13290TIP3    H161285   1.763   4.352   5.653  0.1247  0.6266  0.7298
13290TIP3    H261286   1.707   4.482   5.599 -0.6675 -0.2784 -0.6897
13291TIP3   OH261287   6.075   1.376   6.576  0.0341 -0.1704 -0.1725
13291TIP3    H161288   5.984   1.400   6.593 -0.0029 -1.1534  1.1730
13291TIP3    H261289   6.127   1.443   6.620 -0.0046  0.7847 -1.5251
13292TIP3   OH261290   6.468   4.403   3.177 -0.4877  0.4403 -0.2796
13292TIP3    H161291   6.376   4.426   3.162 -0.8237  0.1669  1.1705
13292TIP3    H261292   6.476   4.314   3.144 -1.0307  0.0869  0.4971
13293TIP3   OH261293   0.964   3.382  12.584  0.6006 -0.0831  0.1319
13293TIP3    H161294   0.991   3.335  12.663 -2.3552 -1.1279  0.6581
13293TIP3    H261295   0.903   3.322  12.541 -2.2462  2.6448  0.0590
13294TIP3   OH261296   2.158   2.645  11.526  0.5616  0.8827  0.3119
13294TIP3    H161297   2.174   2.691  11.608  0.1665  1.3145  0.1522
13294TIP3    H261298   2.169   2.711  11.458  0.5667  0.6039  0.0389
13295TIP3   OH261299   1.110   4.064  13.029  0.0755  0.1964  0.0917
13295TIP3    H161300   1.161   4.023  12.959 -1.2374 -0.2730 -0.6477
13295TIP3    H261301   1.038   4.002  13.044 -1.3254  1.6869 -0.2411
13296TIP3   OH261302   6.589   3.608  16.357  0.7659 -0.4054 -0.7099
13296TIP3    H161303   6.645   3.686  16.350 -1.0020  1.0697  0.6865
13296TIP3    H261304   6.500   3.642  16.351 -0.1950 -1.8773  2.8897
13297TIP3   OH261305   3.074   6.736  12.079 -0.1356 -0.2108 -0.0302
13297TIP3    H161306   3.144   6.797  12.105  0.8497 -0.9589 -0.8742
13297TIP3    H261307   3.027   6.782  12.010  0.8440 -0.5358 -0.9347
13298TIP3   OH261308   6.243   5.931   3.147  0.5596 -0.1789  0.3163
13298TIP3    H161309   6.243   5.836   3.161  0.3804 -0.2530 -0.1992
13298TIP3    H261310   6.153   5.952   3.124  1.1544 -0.2999 -2.4035
13299TIP3   OH261311   2.626   3.904   1.299  0.3402 -0.1714  0.6991
13299TIP3    H161312   2.545   3.855   1.311 -0.0650  0.6022  1.1853
13299TIP3    H261313   2.606   3.993   1.330  0.5201  0.8035 -1.7579
13300TIP3   OH261314   5.857   0.873   2.724 -0.0130 -0.0730  0.2639
13300TIP3    H161315   5.908   0.936   2.775  0.2441  0.2465 -0.3773
13300TIP3    H261316   5.767   0.901   2.735  0.1439  0.7450 -0.4584
13301TIP3   OH261317   1.147   4.600   3.132 -0.1395  0.2414 -0.2311
13301TIP3    H161318   1.219   4.551   3.172  0.3208  0.5645 -0.6468
13301TIP3    H261319   1.152   4.577   3.039 -0.0812  0.8789 -0.3851
13302TIP3   OH261320   6.622   3.233   3.490 -0.2545  0.0066 -0.0468
13302TIP3    H161321   6.680   3.308   3.477 -2.6243  1.8034 -0.8549
13302TIP3    H261322   6.626   3.185   3.408 -0.2302  0.3510 -0.2464
13303TIP3   OH261323   0.946   0.545   6.840  0.1778 -0.3508  0.2465
13303TIP3    H161324   1.009   0.546   6.912 -0.7738 -0.4550  1.0860
13303TIP3    H261325   0.899   0.628   6.848 -0.3880 -0.6625  0.1366
13304TIP3   OH261326   0.967   1.935   5.085 -0.5207 -0.0272 -0.1305
13304TIP3    H161327   0.991   1.962   5.174 -0.3722 -2.1995  0.5491
13304TIP3    H261328   0.893   1.876   5.098  0.7770 -2.0034 -1.2269
13305TIP3   OH261329   2.389   6.233   3.183 -0.2430 -0.2491 -0.2436
13305TIP3    H161330   2.472   6.187   3.187 -0.0804  0.1342  2.0071
13305TIP3    H261331   2.381   6.276   3.268 -2.2099  0.6665 -0.8300
13306TIP3   OH261332   5.727   0.468   4.730  0.4823  0.4167 -0.1779
13306TIP3    H161333   5.724   0.394   4.670  0.5651 -0.4410  0.8603
13306TIP3    H261334   5.701   0.433   4.815 -2.5778  2.1874 -0.2382
13307TIP3   OH261335   6.299   3.453   6.165 -0.7612  0.1611  0.4308
13307TIP3    H161336   6.204   3.452   6.162 -0.7686 -2.4359  0.0457
13307TIP3    H261337   6.324   3.364   6.190  1.5842  0.6046 -0.0735
13308TIP3   OH261338   1.912   2.034  14.533 -0.0191  0.0374 -0.6285
13308TIP3    H161339   1.994   1.997  14.566 -0.1210  0.3081 -0.0522
13308TIP3    H261340   1.845   2.005  14.595 -0.5681 -1.1694 -1.7505
13309TIP3   OH261341   1.648   5.449  11.395 -0.8652  0.0584  0.6275
13309TIP3    H161342   1.677   5.361  11.372 -0.2549  0.4457 -0.1016
13309TIP3    H261343   1.564   5.459  11.352  0.5406  1.0070 -2.1013
13310TIP3   OH261344   3.566   1.806  15.617 -0.2330 -0.4579 -0.5738
13310TIP3    H161345   3.570   1.895  15.583  0.6844 -0.4354 -0.4342
13310TIP3    H261346   3.655   1.788  15.647 -0.3083 -1.5663 -0.9693
13311TIP3   OH261347   3.772   0.368  15.063  0.4314  0.3857  0.1475
13311TIP3    H161348   3.828   0.373  15.141 -0.4623 -0.5184  0.8753
13311TIP3    H261349   3.690   0.332  15.095 -0.9017  2.4544 -0.7321
13312TIP3   OH261350   2.531   5.091  11.710  0.3213 -0.0762  0.5648
13312TIP3    H161351   2.464   5.154  11.737  0.5535  0.1618  0.5903
13312TIP3    H261352   2.483   5.022  11.664 -0.0031 -0.1756  1.0556
13313TIP3   OH261353   1.757   3.205  16.267  0.2677 -0.2587 -0.1379
13313TIP3    H161354   1.776   3.186  16.175  0.0719  0.5360 -0.3494
13313TIP3    H261355   1.843   3.222  16.306  0.1961  1.4280 -0.6531
13314TIP3   OH261356   3.254   4.420   2.448 -0.0414 -0.1986 -0.3704
13314TIP3    H161357   3.337   4.390   2.485  0.1271  0.7133  0.0001
13314TIP3    H261358   3.245   4.510   2.479 -0.9286 -0.1293 -0.8186
13315TIP3   OH261359   1.536   1.640  14.076  0.8133 -0.0752  0.2684
13315TIP3    H161360   1.612   1.590  14.048 -0.7458 -2.1189 -0.6303
13315TIP3    H261361   1.492   1.583  14.139  0.4867  1.4538  1.4790
13316TIP3   OH261362   0.311   3.098   3.531  0.1512 -0.5276 -0.2241
13316TIP3    H161363   0.379   3.088   3.465  0.9901  0.8086  0.3810
13316TIP3    H261364   0.277   3.010   3.546  0.3401 -0.9294 -1.9949
13317TIP3   OH261365   6.250   1.893  14.997 -0.0173 -0.0606  0.1090
13317TIP3    H161366   6.302   1.919  15.073 -0.8237  0.6282  0.4385
13317TIP3    H261367   6.313   1.893  14.924  1.2779 -2.9002  1.0896
13318TIP3   OH261368   6.141   0.878  12.257  0.6943  0.1169 -0.4656
13318TIP3    H161369   6.073   0.941  12.281  1.6325  0.8900  0.2103
13318TIP3    H261370   6.101   0.827  12.186  0.4703  2.5355 -2.2147
13319TIP3   OH261371   2.478   5.192   4.690  0.2270  0.1101  0.0980
13319TIP3    H161372   2.466   5.256   4.620  1.1900  0.2114  0.0070
13319TIP3    H261373   2.495   5.109   4.644  0.1602  0.0336  0.2113
13320TIP3   OH261374   2.666   5.811  16.931  0.0531  1.0220 -0.0586
13320TIP3    H161375   2.582   5.791  16.890  0.8572  0.7122 -1.6514
13320TIP3    H261376   2.715   5.857  16.863  2.5851 -2.1343 -0.6213
13321TIP3   OH261377   2.517   0.916   3.725 -0.1487  0.5453 -0.3635
13321TIP3    H161378   2.607   0.937   3.752 -0.6566  1.6946  0.4946
13321TIP3    H261379   2.499   0.977   3.654  0.4405 -1.0722 -1.9757
13322TIP3   OH261380   3.835   6.747  14.071 -0.6964 -0.3727 -0.4736
13322TIP3    H161381   3.848   6.666  14.120  1.8837  0.0125 -0.4060
13322TIP3    H261382   3.740   6.753  14.061 -1.0067 -3.1150 -0.0450
13323TIP3   OH261383   5.988   2.196   1.071 -0.0661  0.9015 -0.3980
13323TIP3    H161384   6.006   2.131   1.002 -0.3268  0.7717 -0.3438
13323TIP3    H261385   5.913   2.245   1.039  0.3892  1.4570 -0.6298
13324TIP3   OH261386   6.210   4.943  16.802  0.1999  0.9055 -0.0871
13324TIP3    H161387   6.127   4.970  16.764  0.0298 -0.0088 -0.3835
13324TIP3    H261388   6.218   4.996  16.882 -0.8555  0.7141  0.1596
13325TIP3   OH261389   0.821   2.144  15.651  0.1072 -0.5176  0.2719
13325TIP3    H161390   0.901   2.120  15.697  0.5672  0.6786  0.1316
13325TIP3    H261391   0.790   2.062  15.612  0.8882 -1.1207  0.8875
13326TIP3   OH261392   2.709   1.559  12.271  0.3305  0.1187 -0.3233
13326TIP3    H161393   2.714   1.644  12.314 -1.2463 -0.3212  0.8436
13326TIP3    H261394   2.618   1.552  12.241 -1.0354 -2.8521  3.5721
13327TIP3   OH261395   2.704   0.206   5.592  0.6289  0.2688 -0.3268
13327TIP3    H161396   2.742   0.169   5.512  0.2803  1.6384 -1.1560
13327TIP3    H261397   2.767   0.183   5.660  0.0726 -2.4574 -0.6298
13328TIP3   OH261398   3.946   5.805  13.076  0.3013  0.1215  0.1462
13328TIP3    H161399   3.946   5.711  13.055  1.7372  0.0964  0.1619
13328TIP3    H261400   3.956   5.807  13.172  3.0736  0.2483 -0.0574
13329TIP3   OH261401   3.816   3.621  11.771 -0.5062 -0.0791  0.1107
13329TIP3    H161402   3.804   3.547  11.712  0.4825 -0.6370  0.5734
13329TIP3    H261403   3.732   3.630  11.815 -0.6377 -0.9672  0.0778
13330TIP3   OH261404   5.190   5.461   3.077  0.0847 -0.1299  0.2338
13330TIP3    H161405   5.122   5.413   3.029  0.6093 -0.3752 -0.2707
13330TIP3    H261406   5.176   5.438   3.169 -1.2296  0.7152  0.2747
13331TIP3   OH261407   0.795   4.995   2.752  0.2496 -0.4405 -0.0568
13331TIP3    H161408   0.812   4.999   2.657  2.9606 -0.5170  0.3300
13331TIP3    H261409   0.707   4.959   2.759 -0.2854  0.1801 -2.5584
13332TIP3   OH261410   1.865   0.454  17.009  0.0399  0.2955  0.2273
13332TIP3    H161411   1.856   0.535  16.959 -0.3725  0.2713  0.2545
13332TIP3    H261412   1.898   0.482  17.094 -1.9986  0.6929  0.9401
13333TIP3   OH261413   5.910   2.105   4.933  0.4522  0.1360  0.5833
13333TIP3    H161414   5.908   2.017   4.969 -0.0457  0.8796  2.5068
13333TIP3    H261415   5.899   2.093   4.839  0.4251 -1.8357  0.7962
13334TIP3   OH261416   5.810   5.143  10.987  0.1161  0.3195 -0.5688
13334TIP3    H161417   5.831   5.073  11.050  1.0435  0.3060 -0.8760
13334TIP3    H261418   5.716   5.155  10.996  0.2000  0.2158  0.7225
13335TIP3   OH261419   5.764   1.448  11.692 -0.0693  0.2608  0.0110
13335TIP3    H161420   5.730   1.374  11.642 -1.0011  0.5916  0.1359
13335TIP3    H261421   5.835   1.483  11.638  0.5122 -0.8254  0.0372
13336TIP3   OH261422   5.182   1.555   0.938 -0.0906  0.1936 -0.3407
13336TIP3    H161423   5.154   1.541   1.028 -1.5550 -1.4505 -0.9872
13336TIP3    H261424   5.192   1.467   0.902 -1.0327  0.7715 -2.1849
13337TIP3   OH261425   1.198   1.236  12.766 -0.1378 -0.2021 -0.0125
13337TIP3    H161426   1.164   1.205  12.682 -0.7838  0.5691 -0.0410
13337TIP3    H261427   1.164   1.173  12.830 -0.6044 -0.1249 -0.1862
13338TIP3   OH261428   5.796   2.872  12.590  0.1402 -0.1349 -0.6664
13338TIP3    H161429   5.823   2.963  12.575 -0.8316  0.3979  0.6139
13338TIP3    H261430   5.711   2.879  12.634 -0.0949 -1.6768 -0.8170
13339TIP3   OH261431   4.582   3.935   0.281 -0.2233  0.0886 -0.0568
13339TIP3    H161432   4.538   3.850   0.286 -0.1585  0.0316 -0.4798
13339TIP3    H261433   4.668   3.920   0.321 -0.7734  0.3304  1.2678
13340TIP3   OH261434   4.020   5.677  11.823  0.4709 -0.2817 -0.2111
13340TIP3    H161435   3.974   5.722  11.894 -0.5634 -1.8167  0.1332
13340TIP3    H261436   4.097   5.731  11.808  0.7139  0.1358  2.0505
13341TIP3   OH261437   3.451   0.653   4.858 -0.3833 -0.4672 -0.5929
13341TIP3    H161438   3.489   0.688   4.939 -1.8765 -0.7794  0.2926
13341TIP3    H261439   3.525   0.644   4.799  0.3132  3.1399 -0.5264
13342TIP3   OH261440   2.875   4.949  12.551 -0.0300  0.3373 -0.3982
13342TIP3    H161441   2.923   4.873  12.583  1.2509  1.2734 -0.0179
13342TIP3    H261442   2.934   5.023  12.566 -1.7584  1.6055  0.4511
13343TIP3   OH261443   0.480   6.469   3.124  0.2615  0.3564  0.2962
13343TIP3    H161444   0.512   6.559   3.118 -0.2268  0.7350  2.5162
13343TIP3    H261445   0.473   6.452   3.218 -2.9319 -0.8241 -0.0311
13344TIP3   OH261446   4.121   2.722  12.960  0.0250  0.1276  0.5803
13344TIP3    H161447   4.037   2.721  12.913 -0.2187  0.5890  0.9913
13344TIP3    H261448   4.137   2.630  12.982  0.1397 -0.1003 -0.3831
13345TIP3   OH261449   6.150   2.371  11.784  0.1208  0.4016  0.5972
13345TIP3    H161450   6.225   2.367  11.725  1.2615 -1.2849  2.0814
13345TIP3    H261451   6.188   2.376  11.872 -1.5069  0.0445  1.3663
13346TIP3   OH261452   6.045   3.858   2.533 -0.1989 -0.4335 -0.5153
13346TIP3    H161453   5.981   3.890   2.597  0.1680 -0.6725 -0.0222
13346TIP3    H261454   6.048   3.926   2.467 -0.0587  0.1642  0.0921
13347TIP3   OH261455   5.072   0.790  15.856  0.1657  0.0154 -0.3034
13347TIP3    H161456   5.002   0.728  15.841 -0.1642  0.4364 -0.5242
13347TIP3    H261457   5.062   0.856  15.787  0.1359  0.6388  0.2828
13348TIP3   OH261458   2.277   1.427  15.117  0.0386  0.4019  0.0175
13348TIP3    H161459   2.196   1.432  15.169 -0.9459  0.4610 -1.4476
13348TIP3    H261460   2.280   1.336  15.087  0.8765  0.2343  0.6168
13349TIP3   OH261461   0.581   1.834  13.917  0.3654  0.1670 -0.3976
13349TIP3    H161462   0.643   1.826  13.989  2.4285 -1.1244 -2.1778
13349TIP3    H261463   0.540   1.748  13.911 -0.6300  0.6025 -0.1132
13350TIP3   OH261464   3.840   3.202   1.280 -0.0259 -0.4590  0.8496
13350TIP3    H161465   3.876   3.120   1.248  0.5818 -0.8527  2.4802
13350TIP3    H261466   3.794   3.239   1.204  2.7156 -0.5202 -0.9944
13351TIP3   OH261467   3.163   5.249  16.528  0.1420  0.1061  0.4066
13351TIP3    H161468   3.123   5.246  16.616  0.9207 -0.2191  0.7538
13351TIP3    H261469   3.250   5.212  16.540  1.5221  3.0319  0.1695
13352TIP3   OH261470   4.754   1.925   4.339 -0.6882 -0.8351  0.1078
13352TIP3    H161471   4.685   1.903   4.277 -0.6874 -1.5109  0.3469
13352TIP3    H261472   4.833   1.887   4.301  0.2690  2.6768 -1.8995
13353TIP3   OH261473   1.684   5.053   2.791  0.0714 -0.2684  0.1977
13353TIP3    H161474   1.670   5.089   2.704 -0.6693  0.3718  0.5635
13353TIP3    H261475   1.613   5.089   2.844  0.7601 -0.2806  1.1763
13354TIP3   OH261476   5.869   1.509   4.465 -0.7086  0.0209  0.6429
13354TIP3    H161477   5.884   1.475   4.377  0.5268  0.5771  0.6177
13354TIP3    H261478   5.867   1.431   4.522  2.9287 -0.1723  0.7167
13355TIP3   OH261479   2.468   0.560   0.764  0.4082 -0.2607 -0.2886
13355TIP3    H161480   2.507   0.478   0.734  0.5307 -0.2926 -0.0427
13355TIP3    H261481   2.501   0.572   0.853  0.1269 -0.1140 -0.2008
13356TIP3   OH261482   0.016   5.540   2.926  0.0576 -0.1663  0.2739
13356TIP3    H161483  -0.057   5.497   2.971 -0.2068 -1.0374 -0.9245
13356TIP3    H261484  -0.017   5.556   2.838  1.3230 -0.6202 -0.3035
13357TIP3   OH261485   0.833   6.274  12.519 -0.4052 -0.4424  0.1360
13357TIP3    H161486   0.844   6.203  12.456  0.0113 -1.0796  0.9150
13357TIP3    H261487   0.873   6.241  12.600 -0.3998  0.5937  0.5665
13358TIP3   OH261488   3.188   1.591  14.521 -0.1930  0.0232 -0.0743
13358TIP3    H161489   3.144   1.534  14.458 -3.2082  1.6729  0.3787
13358TIP3    H261490   3.154   1.678  14.503  3.0119  1.4980  0.3612
13359TIP3   OH261491   2.649   1.434  13.348 -0.0713 -0.3160 -0.5911
13359TIP3    H161492   2.597   1.514  13.353  1.7135  0.8455  0.6542
13359TIP3    H261493   2.692   1.438  13.263 -0.7093 -0.4283 -0.9179
13360TIP3   OH261494   2.448   0.476   5.204  0.1803 -0.2399  0.3449
13360TIP3    H161495   2.465   0.419   5.280  1.6134 -0.2393  0.0597
13360TIP3    H261496   2.357   0.503   5.214  0.0582 -1.0116  1.5481
13361TIP3   OH261497   1.325   5.709   0.139  0.3648  0.3393 -0.8032
13361TIP3    H161498   1.322   5.732   0.232  3.1139 -2.2177  0.0718
13361TIP3    H261499   1.233   5.699   0.114 -0.4900 -1.6049  2.4483
13362TIP3   OH261500   6.084   0.261   5.603 -0.4846  0.0137  0.1910
13362TIP3    H161501   6.098   0.211   5.683  0.4962  2.9996  2.0384
13362TIP3    H261502   5.996   0.237   5.574 -0.5268 -1.7782  1.6483
13363TIP3   OH261503   3.267   4.195  16.507 -0.0744 -0.1601 -0.5093
13363TIP3    H161504   3.178   4.162  16.497  0.3620 -1.6100  0.0770
13363TIP3    H261505   3.261   4.265  16.572 -0.6135 -1.1164  0.5012
13364TIP3   OH261506   0.351   5.755  15.549 -0.2553 -0.7314  0.0687
13364TIP3    H161507   0.301   5.675  15.532  1.0311 -1.4869 -0.3051
13364TIP3    H261508   0.290   5.826  15.530 -2.0092 -1.5764  2.0721
13365TIP3   OH261509   4.143   3.900  10.373  0.3046 -0.1674 -0.1637
13365TIP3    H161510   4.123   3.981  10.419 -0.5855 -0.3990 -0.1236
13365TIP3    H261511   4.233   3.879  10.399  0.6755  0.9906 -0.4762
13366TIP3   OH261512   3.653   2.274  16.115 -0.0818  0.3439  0.6116
13366TIP3    H161513   3.609   2.192  16.092 -0.2228 -0.1546  2.4918
13366TIP3    H261514   3.633   2.333  16.042  0.3095 -1.3628 -0.9624
13367TIP3   OH261515   0.538   3.153   2.718 -0.0317 -0.1461 -0.3828
13367TIP3    H161516   0.480   3.172   2.792  1.4106 -0.8738  0.9817
13367TIP3    H261517   0.485   3.175   2.641 -2.0291 -0.5138  0.7917
13368TIP3   OH261518   3.971   1.958   5.836  0.3604  0.4273 -0.4142
13368TIP3    H161519   3.959   2.051   5.819 -1.3252  0.0078 -1.8078
13368TIP3    H261520   4.065   1.943   5.822  0.9233  2.1204  1.1872
13369TIP3   OH261521   2.728   3.187   0.595 -0.0376 -0.0393 -0.3009
13369TIP3    H161522   2.647   3.190   0.543  0.8844 -1.1871 -1.9341
13369TIP3    H261523   2.736   3.095   0.620 -0.3864  0.4719  1.8638
13370TIP3   OH261524   2.783   6.592   0.832  0.0164  0.0260 -0.2810
13370TIP3    H161525   2.694   6.603   0.798 -0.3188 -1.2955  0.0822
13370TIP3    H261526   2.828   6.541   0.765  0.6358  1.0324 -0.6430
13371TIP3   OH261527   1.107   4.517  16.526 -0.3753 -0.4379  0.9923
13371TIP3    H161528   1.073   4.430  16.506 -0.2758 -0.0676 -0.9202
13371TIP3    H261529   1.030   4.569  16.546 -0.8194 -0.1374 -1.2537
13372TIP3   OH261530   4.882   6.006  16.354 -0.0586  0.7585 -0.0525
13372TIP3    H161531   4.886   6.050  16.439  1.2902  2.7301 -1.0469
13372TIP3    H261532   4.955   5.945  16.355 -1.0610 -0.4685  0.7955
13373TIP3   OH261533   5.696   3.728   3.989  0.4880  0.3205  0.1281
13373TIP3    H161534   5.614   3.728   3.940  0.7036  0.1858 -0.2426
13373TIP3    H261535   5.751   3.665   3.943  1.2421  1.3279 -0.4048
13374TIP3   OH261536   5.964   1.078  12.650  0.2642 -0.1011  0.7423
13374TIP3    H161537   5.882   1.055  12.694  0.5120 -1.0192  0.7490
13374TIP3    H261538   5.941   1.087  12.558 -0.1972  1.5170  0.9868
13375TIP3   OH261539   0.187   5.506  15.648  0.8466 -0.0495  0.3449
13375TIP3    H161540   0.165   5.518  15.556  1.3763  3.3109  0.5435
13375TIP3    H261541   0.126   5.439  15.679  1.3042 -2.0202 -2.5915
13376TIP3   OH261542   4.425   1.090  11.620  0.0578 -0.6524  0.3067
13376TIP3    H161543   4.493   1.063  11.559 -2.4361 -1.0115 -2.5427
13376TIP3    H261544   4.424   1.186  11.614 -1.5977 -0.7447 -2.0646
13377TIP3   OH261545   6.359   3.275  16.103 -0.4305  0.2236 -0.6409
13377TIP3    H161546   6.424   3.314  16.161 -1.0017  0.8878 -0.4419
13377TIP3    H261547   6.365   3.181  16.120 -1.1270  0.4641  1.0675
13378TIP3   OH261548   2.153   4.145   4.509  0.1864 -0.1877 -0.0004
13378TIP3    H161549   2.219   4.131   4.441 -1.0517  0.0018 -1.2698
13378TIP3    H261550   2.199   4.125   4.591  2.4135  1.8367 -0.6361
13379TIP3   OH261551   6.338   6.018  15.286 -0.5047  0.5012 -0.2313
13379TIP3    H161552   6.403   5.949  15.297 -1.5978 -0.4633  0.4638
13379TIP3    H261553   6.288   5.992  15.208 -0.1940  1.1260 -0.6466
13380TIP3   OH261554   5.955   5.187  13.901 -0.6449  0.4477 -0.1814
13380TIP3    H161555   5.945   5.248  13.827 -1.5554 -0.8774 -1.1874
13380TIP3    H261556   5.919   5.234  13.976 -0.6891  1.4127 -0.7918
13381TIP3   OH261557   6.395   0.926  14.834 -0.3854 -0.1744 -0.7350
13381TIP3    H161558   6.372   0.905  14.744  1.1113  0.1741 -1.2457
13381TIP3    H261559   6.417   0.842  14.874 -3.2934 -0.6514  0.0684
13382TIP3   OH261560   0.848   4.779   5.255 -0.4391  0.4827 -0.4674
13382TIP3    H161561   0.855   4.786   5.350 -1.8760 -0.5984 -0.2433
13382TIP3    H261562   0.754   4.791   5.237 -0.3872 -0.5774 -1.6088
13383TIP3   OH261563   6.379   0.132   3.735 -0.0484 -0.3780  0.0277
13383TIP3    H161564   6.432   0.193   3.786  0.8774 -1.8063  0.8404
13383TIP3    H261565   6.303   0.183   3.708 -0.3585  0.6012  2.4669
13384TIP3   OH261566   2.560   2.684  16.330 -0.7478  0.1387  0.1735
13384TIP3    H161567   2.601   2.730  16.257 -0.2827  1.6990  1.3310
13384TIP3    H261568   2.628   2.681  16.397 -0.1761 -3.8781 -0.3902
13385TIP3   OH261569   4.384   3.248  14.844  0.2192 -0.2570  0.4294
13385TIP3    H161570   4.405   3.280  14.756 -0.9361 -0.1805  0.1724
13385TIP3    H261571   4.391   3.325  14.900  3.9492 -0.8055  1.0181
13386TIP3   OH261572   1.455   0.700   6.508  0.2480  0.0472 -0.1838
13386TIP3    H161573   1.363   0.718   6.528  0.9580  2.3013  1.5499
13386TIP3    H261574   1.453   0.628   6.446 -2.7050  0.3777 -0.6024
13387TIP3   OH261575   2.468   1.219   0.301 -0.1371 -0.2555  0.4543
13387TIP3    H161576   2.508   1.304   0.285  1.0330 -0.6390  1.2217
13387TIP3    H261577   2.383   1.240   0.339 -0.2042  0.5652 -0.1195
13388TIP3   OH261578   6.415   4.615   5.369 -0.7492 -0.5361 -1.0482
13388TIP3    H161579   6.397   4.541   5.426 -0.2257 -0.2516 -0.5046
13388TIP3    H261580   6.415   4.578   5.280  1.5577 -1.6285 -0.6707
13389TIP3   OH261581   5.647   1.117  15.415  0.5934 -0.7283  0.0456
13389TIP3    H161582   5.630   1.192  15.471 -0.1558 -0.0362 -1.0596
13389TIP3    H261583   5.562   1.094  15.378  1.3775  0.8033 -3.1423
13390TIP3   OH261584   5.008   4.339   2.639 -0.2983 -0.3484 -0.0133
13390TIP3    H161585   4.999   4.321   2.732 -0.0171 -1.5012 -0.1843
13390TIP3    H261586   5.097   4.309   2.618  0.1624  1.1953 -0.3822
13391TIP3   OH261587   1.985   4.986   4.862  0.3330 -0.2563 -0.2374
13391TIP3    H161588   2.066   5.037   4.862 -0.1804  0.5906  0.3512
13391TIP3    H261589   1.981   4.948   4.775  1.4477 -0.4548 -0.2175
13392TIP3   OH261590   5.739   4.535  16.345 -0.6777  0.4046  0.0229
13392TIP3    H161591   5.817   4.480  16.345  0.0673  1.4145 -1.4730
13392TIP3    H261592   5.690   4.506  16.422  1.1065 -0.3197  0.9466
13393TIP3   OH261593   0.638   0.556  12.230  0.3483  0.4818 -0.0982
13393TIP3    H161594   0.711   0.536  12.171  0.9218 -0.1242  0.8088
13393TIP3    H261595   0.623   0.475  12.278 -0.3203  0.8860  0.3837
13394TIP3   OH261596   2.952   6.303  11.924  0.4824 -0.0030 -0.1078
13394TIP3    H161597   2.994   6.223  11.893 -0.2448 -0.4918  0.1582
13394TIP3    H261598   3.001   6.374  11.881  2.1204 -0.5137  0.8335
13395TIP3   OH261599   4.520   4.452  16.660  0.1626  0.0616 -0.5760
13395TIP3    H161600   4.441   4.412  16.695  0.3300 -0.2686 -0.5640
13395TIP3    H261601   4.510   4.546  16.676  0.4338 -0.1202  0.7827
13396TIP3   OH261602   0.745   1.644   2.661 -0.0275 -0.1460 -0.0528
13396TIP3    H161603   0.771   1.624   2.750 -0.3008  1.0931  0.3260
13396TIP3    H261604   0.784   1.574   2.608  0.6097 -0.5773  0.9567
13397TIP3   OH261605   4.401   4.797   2.165  0.3129 -0.1684  0.3075
13397TIP3    H161606   4.337   4.727   2.177  0.2852  0.0637  1.8159
13397TIP3    H261607   4.486   4.754   2.169  0.2873 -0.1767  0.8219
13398TIP3   OH261608   0.792   5.826  15.325 -0.1156 -0.4243 -0.5319
13398TIP3    H161609   0.786   5.893  15.257  2.4157  1.6697  1.1051
13398TIP3    H261610   0.805   5.744  15.277 -1.1137  0.5540 -2.5696
13399TIP3   OH261611   6.505   4.614   2.765  0.3374  0.1542  0.4049
13399TIP3    H161612   6.546   4.646   2.685  1.0188 -1.3601  0.1168
13399TIP3    H261613   6.501   4.519   2.754  0.0042 -0.0431  1.9653
13400TIP3   OH261614   2.039   0.889   2.085 -0.7579  0.4715  0.2708
13400TIP3    H161615   1.965   0.915   2.140  1.4336  0.4631  3.5494
13400TIP3    H261616   2.083   0.971   2.062  0.3378  0.3480  1.7451
13401TIP3   OH261617   1.920   0.866  13.134 -0.0008  0.4337  1.0427
13401TIP3    H161618   1.920   0.775  13.163  1.4077  0.7602  2.1435
13401TIP3    H261619   1.902   0.860  13.040 -1.5687 -0.8435  1.3704
13402TIP3   OH261620   4.536   2.703  12.272 -0.2132 -0.0942  0.1115
13402TIP3    H161621   4.593   2.671  12.203 -2.1218 -0.1177 -1.5381
13402TIP3    H261622   4.513   2.625  12.322  0.8487 -0.1380  0.5665
13403TIP3   OH261623   6.638   0.912  12.878 -0.3364 -0.4033 -0.1881
13403TIP3    H161624   6.582   0.927  12.802 -0.2672  0.9998  0.0227
13403TIP3    H261625   6.708   0.977  12.871 -0.4285 -0.1223  1.1656
13404TIP3   OH261626   2.447   0.138  10.596 -0.1795 -0.5702  0.4513
13404TIP3    H161627   2.439   0.043  10.583 -1.1838 -0.3106 -1.1329
13404TIP3    H261628   2.364   0.163  10.637 -0.0648 -0.3223  0.5323
13405TIP3   OH261629   0.549   4.706  12.332 -0.0873 -0.2686  0.8846
13405TIP3    H161630   0.472   4.718  12.388  0.7499  2.1700  1.6378
13405TIP3    H261631   0.525   4.747  12.249  0.7995  1.7194  1.5601
13406TIP3   OH261632   1.156   5.422   1.020  0.6246 -0.6813  0.2899
13406TIP3    H161633   1.092   5.443   1.088  0.4163  0.1997 -0.1578
13406TIP3    H261634   1.112   5.444   0.938  1.5557  0.1092 -0.0170
13407TIP3   OH261635   1.180   4.576  12.458 -0.2864  0.5990  0.0858
13407TIP3    H161636   1.163   4.513  12.528 -0.4380  0.6346  0.0799
13407TIP3    H261637   1.272   4.561  12.434 -0.5593 -0.2163 -0.5058
13408TIP3   OH261638   2.018   5.917  11.407  0.6841 -0.3486 -0.3491
13408TIP3    H161639   1.928   5.891  11.390  0.5556 -0.0663 -0.1055
13408TIP3    H261640   2.022   6.009  11.381  0.9285 -0.3848 -0.4483
13409TIP3   OH261641   1.052   0.423  11.875  0.3284 -0.1208  0.0886
13409TIP3    H161642   1.042   0.397  11.784 -2.9829  1.0045  0.0263
13409TIP3    H261643   1.083   0.514  11.871 -1.0899  0.3798  0.0069
13410TIP3   OH261644   6.679   6.103  11.994 -0.4825  1.0004 -0.2329
13410TIP3    H161645   6.703   6.195  11.985  1.1462  0.5493 -0.6942
13410TIP3    H261646   6.760   6.058  12.019 -1.1505 -0.3743 -0.4073
13411TIP3   OH261647   2.416   2.170   0.811  0.1252  0.0293 -0.0263
13411TIP3    H161648   2.349   2.180   0.879 -0.8325  1.1794 -1.0846
13411TIP3    H261649   2.470   2.097   0.841  0.8911  1.6411  2.9052
13412TIP3   OH261650   3.530   3.093  15.022  0.5978 -0.4528 -0.3498
13412TIP3    H161651   3.535   2.998  15.037  1.0747 -0.3882 -0.0972
13412TIP3    H261652   3.437   3.113  15.029  0.7742 -0.3070  3.3143
13413TIP3   OH261653   5.882   5.118   0.420  0.0958  0.1283 -0.4071
13413TIP3    H161654   5.805   5.094   0.369 -0.2749  0.0352  0.2025
13413TIP3    H261655   5.864   5.207   0.451 -0.9939 -0.8692  2.0385
13414TIP3   OH261656   6.487   1.773  13.787  0.1936  0.0830 -0.0658
13414TIP3    H161657   6.401   1.811  13.774  0.5093  0.6596 -0.5494
13414TIP3    H261658   6.493   1.759  13.881  0.6551  2.7591  0.4069
13415TIP3   OH261659   4.125   2.537   5.220  0.0057 -0.1997 -0.2800
13415TIP3    H161660   4.150   2.608   5.279 -2.1539 -0.6714  1.3073
13415TIP3    H261661   4.044   2.569   5.178  0.5505 -0.5999 -1.6975
13416TIP3   OH261662   6.229   0.172  14.890  0.3629 -0.1575  0.1682
13416TIP3    H161663   6.246   0.197  14.981 -0.0119 -1.3021  0.5679
13416TIP3    H261664   6.155   0.227  14.864  1.5436  1.4265 -0.0449
13417TIP3   OH261665   3.965   3.775   1.339  0.7514  0.0232 -0.2126
13417TIP3    H161666   3.890   3.832   1.321 -0.3122 -1.5620 -1.0623
13417TIP3    H261667   4.037   3.835   1.357 -0.6276  1.6101  0.2762
13418TIP3   OH261668   4.799   2.108   4.042  0.4854  0.4442  0.1502
13418TIP3    H161669   4.811   2.200   4.021  0.6852  0.4778  0.3961
13418TIP3    H261670   4.776   2.066   3.959  1.0869  0.5983 -0.1018
13419TIP3   OH261671   3.007   4.684   1.946 -0.3826 -0.5564 -0.0423
13419TIP3    H161672   2.967   4.606   1.985 -0.8363 -0.1955  0.2208
13419TIP3    H261673   3.037   4.655   1.859 -0.8932 -0.9243 -0.0982
13420TIP3   OH261674   1.252   1.764  14.040  0.1808  0.0550 -0.0434
13420TIP3    H161675   1.348   1.760  14.043  0.1950 -0.1658 -0.6272
13420TIP3    H261676   1.224   1.673  14.051  0.1145 -0.1807 -1.7990
13421TIP3   OH261677   0.270   0.987   5.645 -0.1446  0.1282  0.4338
13421TIP3    H161678   0.308   1.038   5.717 -0.8437  0.4050  0.6185
13421TIP3    H261679   0.177   1.011   5.645 -0.7441 -2.0168  1.2642
13422TIP3   OH261680   6.385   4.817   1.400  0.6826  0.2801 -0.0740
13422TIP3    H161681   6.430   4.749   1.349 -1.7068 -0.7021 -1.0401
13422TIP3    H261682   6.384   4.893   1.342  1.4020  0.4323  0.1058
13423TIP3   OH261683   1.770   4.173  14.182 -0.3267 -0.7551  0.3489
13423TIP3    H161684   1.692   4.123  14.206 -0.8545 -0.2177 -0.1978
13423TIP3    H261685   1.843   4.125  14.220 -1.0021 -0.7525  1.6981
13424TIP3   OH261686   4.397   4.463  15.484 -0.5370  0.3749 -0.2024
13424TIP3    H161687   4.331   4.513  15.437  0.3435  1.2141 -0.5895
13424TIP3    H261688   4.391   4.375  15.448 -1.5903  0.3723 -0.0605
13425TIP3   OH261689   5.192   4.056   3.534 -0.0722 -0.3664  0.8063
13425TIP3    H161690   5.159   4.092   3.452  0.4522  1.0246  1.1819
13425TIP3    H261691   5.125   4.075   3.599  1.5081  2.9820  1.6944
13426TIP3   OH261692   2.186   4.203   0.209 -0.7748 -0.1425 -0.8326
13426TIP3    H161693   2.260   4.206   0.149 -1.8048  0.7900 -2.0977
13426TIP3    H261694   2.109   4.207   0.153 -1.7755  0.6713  0.5361
13427TIP3   OH261695   6.311   1.705  16.152  0.0209  0.3347  0.0099
13427TIP3    H161696   6.385   1.650  16.180 -0.2701 -0.0476  0.0377
13427TIP3    H261697   6.254   1.645  16.105 -0.0234  0.7428 -0.4601
13428TIP3   OH261698   2.086   2.646  15.667 -0.1883 -0.0020  0.1148
13428TIP3    H161699   2.117   2.567  15.713 -1.0322 -0.0073  0.6883
13428TIP3    H261700   2.152   2.661  15.599 -1.3789 -2.8455 -1.8701
13429TIP3   OH261701   3.874   6.053  16.996 -0.6679  0.0206 -0.2173
13429TIP3    H161702   3.862   6.014  17.083 -1.5765  0.3230 -0.2032
13429TIP3    H261703   3.789   6.090  16.974 -0.8456 -1.2277 -1.8203
13430TIP3   OH261704   4.162   4.782   3.604 -0.2182 -0.5635  1.0850
13430TIP3    H161705   4.128   4.816   3.521  0.3873  1.1418  1.5012
13430TIP3    H261706   4.256   4.772   3.589 -0.2302 -1.0305  1.3149
13431TIP3   OH261707   3.472   1.628  15.052  0.4612  0.6550  0.3761
13431TIP3    H161708   3.430   1.554  15.095  0.6735 -0.4592 -1.2611
13431TIP3    H261709   3.517   1.590  14.976 -2.2163  2.8028 -2.5452
13432TIP3   OH261710   6.089   6.392  15.622 -0.1996  0.3101 -0.0607
13432TIP3    H161711   6.116   6.358  15.537 -0.9179 -0.0436 -0.1567
13432TIP3    H261712   6.006   6.346  15.641 -0.5749  1.1379  0.3530
13433TIP3   OH261713   4.270   0.528   1.385  0.2406 -0.3196  0.1454
13433TIP3    H161714   4.192   0.477   1.409  2.2906 -3.6897  0.2480
13433TIP3    H261715   4.299   0.490   1.302 -0.2176  3.4576 -2.0106
13434TIP3   OH261716   0.381   6.364  15.660 -0.8959 -0.2731 -0.0035
13434TIP3    H161717   0.301   6.312  15.669 -1.4944  0.6091 -0.1470
13434TIP3    H261718   0.384   6.387  15.567  0.2325 -1.3800 -0.2857
13435TIP3   OH261719   4.074   6.475   0.906  0.3210  0.0331 -0.0175
13435TIP3    H161720   3.988   6.461   0.946  0.4099  0.0103  0.1663
13435TIP3    H261721   4.121   6.529   0.970 -0.1719  1.5714 -0.8954
13436TIP3   OH261722   0.793   2.734  14.112  0.2323  0.6504 -0.2230
13436TIP3    H161723   0.797   2.671  14.040  0.2952  1.6734 -1.1308
13436TIP3    H261724   0.810   2.681  14.190  0.0507 -0.4980 -0.9359
13437TIP3   OH261725   3.312   2.160   6.387  0.2954  0.3471 -0.0844
13437TIP3    H161726   3.316   2.077   6.433 -1.5732  0.4992  0.4449
13437TIP3    H261727   3.307   2.226   6.456 -1.1135  0.6736 -0.4644
13438TIP3   OH261728   1.328   4.370  16.041  0.2055  0.1520 -0.2443
13438TIP3    H161729   1.345   4.407  15.955  1.3481  0.1136 -0.0516
13438TIP3    H261730   1.337   4.275  16.028  1.3966  0.1986  0.1077
13439TIP3   OH261731   6.787   1.635   0.409  0.4445  0.1530  0.0499
13439TIP3    H161732   6.824   1.693   0.343 -1.1383 -1.0764 -2.0145
13439TIP3    H261733   6.853   1.566   0.420  0.3376 -0.1022 -0.8919
13440TIP3   OH261734   1.771   4.881  17.122  0.6095 -0.2332 -0.6672
13440TIP3    H161735   1.802   4.864  17.211 -0.5364  0.2858 -0.1394
13440TIP3    H261736   1.830   4.948  17.088  0.0305  0.8282  0.3499
13441TIP3   OH261737   2.008   2.447   3.248  0.0081  0.1809 -0.5865
13441TIP3    H161738   1.934   2.432   3.306  0.2047  0.4957 -0.2454
13441TIP3    H261739   2.080   2.397   3.286 -0.8393 -3.0548 -2.8128
13442TIP3   OH261740   2.141   1.011  14.441  0.7312  0.1688  0.3660
13442TIP3    H161741   2.197   1.085  14.465 -1.0602  1.7302 -0.0377
13442TIP3    H261742   2.052   1.045  14.447 -0.0688 -1.1484 -2.4379
13443TIP3   OH261743   0.376   1.305   2.716  0.5480  0.0097 -0.2338
13443TIP3    H161744   0.382   1.384   2.770 -0.7254 -0.5941  0.8353
13443TIP3    H261745   0.291   1.268   2.737  1.4742 -2.1387 -0.0518
13444TIP3   OH261746   3.828   1.953  12.976  0.1877 -0.3487 -0.3742
13444TIP3    H161747   3.797   1.865  12.995 -0.6133  0.0051 -0.0129
13444TIP3    H261748   3.771   2.011  13.026  1.0939  0.3539 -0.1171
13445TIP3   OH261749   6.135   1.610  13.464 -0.3550  0.5521 -0.3851
13445TIP3    H161750   6.162   1.536  13.409 -1.1137  0.4980 -0.6948
13445TIP3    H261751   6.130   1.684  13.405  1.0392  1.0185  0.0492
13446TIP3   OH261752   2.884   0.089   1.817  0.0232  0.5390  0.3365
13446TIP3    H161753   2.805   0.066   1.768 -0.4162 -0.7245  1.5917
13446TIP3    H261754   2.956   0.067   1.757 -0.4354 -2.5218  0.7691
13447TIP3   OH261755   2.473   1.733   1.915  0.0763  0.5090 -0.0760
13447TIP3    H161756   2.525   1.654   1.904  0.2363  0.5850  0.1236
13447TIP3    H261757   2.537   1.802   1.934 -0.0090  0.8041 -0.8199
13448TIP3   OH261758   5.655   4.332   1.842 -0.3474  0.3076  0.7363
13448TIP3    H161759   5.682   4.294   1.926  0.8252  0.7315  0.5651
13448TIP3    H261760   5.577   4.383   1.864  0.8168  1.6900  1.9109
13449TIP3   OH261761   0.631   1.983   3.246 -0.4070  0.4704 -0.8228
13449TIP3    H161762   0.590   2.009   3.328  0.8563  0.9073 -0.3053
13449TIP3    H261763   0.595   2.043   3.180  0.0006  1.3716 -0.2373
13450TIP3   OH261764   5.885   1.124  12.079  0.4498 -0.0896 -0.3450
13450TIP3    H161765   5.885   1.215  12.048  0.1243 -0.8729 -2.8687
13450TIP3    H261766   5.930   1.075  12.011 -0.4078 -2.0112  0.4003
13451TIP3   OH261767   5.289   3.901   4.444  0.1142  0.6552 -0.3762
13451TIP3    H161768   5.210   3.902   4.389  0.2872 -0.2165 -0.6605
13451TIP3    H261769   5.299   3.991   4.473 -1.7732  0.5581  0.7798
13452TIP3   OH261770   5.689   6.521  15.643 -0.2512  0.4901  0.0092
13452TIP3    H161771   5.731   6.440  15.670  0.1044 -0.4040 -2.8785
13452TIP3    H261772   5.749   6.590  15.673  1.4444 -0.5608 -0.8197
13453TIP3   OH261773   1.360   3.485  14.119 -0.2442 -0.1763  0.2202
13453TIP3    H161774   1.429   3.551  14.113  1.7870 -2.1235  0.8317
13453TIP3    H261775   1.278   3.536  14.121  1.2114  2.3093  1.0875
13454TIP3   OH261776   6.115   4.751   1.530 -0.6616  0.2696 -0.7025
13454TIP3    H161777   6.200   4.784   1.559  0.5705 -3.4660  0.4513
13454TIP3    H261778   6.123   4.746   1.435  1.8374 -2.9634 -0.5068
13455TIP3   OH261779   1.246   1.828   4.946 -0.4921  0.4795  0.0754
13455TIP3    H161780   1.325   1.882   4.945 -0.7839  1.0075  1.9287
13455TIP3    H261781   1.229   1.811   5.039 -0.8018 -2.2782 -0.3982
13456TIP3   OH261782   2.431   3.210  15.483 -0.3903 -0.3114  0.5809
13456TIP3    H161783   2.481   3.239  15.560  0.8384 -0.2691 -0.2019
13456TIP3    H261784   2.372   3.283  15.465  2.1415  1.5299 -0.9139
13457TIP3   OH261785   6.415   3.370   1.581  0.6318  0.0001 -0.2336
13457TIP3    H161786   6.391   3.433   1.649 -0.9164 -0.8487  0.0820
13457TIP3    H261787   6.377   3.405   1.501 -0.1792 -0.4665 -0.0685
13458TIP3   OH261788   6.571   4.189   5.661 -0.2320  0.4211 -1.0389
13458TIP3    H161789   6.539   4.258   5.603 -0.5343  1.2281  0.0542
13458TIP3    H261790   6.499   4.127   5.669 -0.4063  0.6241 -1.0489
13459TIP3   OH261791   4.526   3.723   0.641 -0.0183  0.4165 -0.0676
13459TIP3    H161792   4.536   3.709   0.547 -2.7762 -1.2597 -0.2179
13459TIP3    H261793   4.613   3.751   0.670  1.3990 -0.7144 -2.8120
13460TIP3   OH261794   4.837   1.110  15.580  0.2572  0.1347 -0.2499
13460TIP3    H161795   4.746   1.114  15.552  0.3982 -0.5775 -0.8471
13460TIP3    H261796   4.860   1.200  15.601 -0.4132  0.4052 -0.6510
13461TIP3   OH261797   6.738   1.977  11.431  0.4469 -0.4905 -0.2049
13461TIP3    H161798   6.752   1.907  11.495  1.8840 -2.0868 -2.1402
13461TIP3    H261799   6.826   2.008  11.410 -0.1574  2.2597  0.8645
13462TIP3   OH261800   0.724   3.567   2.563  0.0499  0.3672 -0.5733
13462TIP3    H161801   0.647   3.624   2.568  1.5182  2.5066 -0.9898
13462TIP3    H261802   0.763   3.586   2.478  1.6686  0.1947  0.0996
13463TIP3   OH261803   4.840   2.199   5.376 -0.0126  0.0816 -0.3182
13463TIP3    H161804   4.781   2.201   5.300  0.3705  0.1435 -0.6214
13463TIP3    H261805   4.909   2.261   5.353 -0.1638  0.4961  0.3113
13464TIP3   OH261806   2.713   0.096   1.296 -0.2867  0.4372 -0.6582
13464TIP3    H161807   2.746   0.066   1.211  2.7107 -0.2424  0.6196
13464TIP3    H261808   2.658   0.024   1.326  0.2598 -0.2233 -1.1837
13465TIP3   OH261809   1.488   2.646   5.102  0.0782  0.0828 -0.2522
13465TIP3    H161810   1.538   2.713   5.149 -0.2944 -0.3854  0.8471
13465TIP3    H261811   1.488   2.676   5.011 -0.4065  1.7827  0.2655
13466TIP3   OH261812   5.576   6.719  13.899  0.5140  0.0378  0.0087
13466TIP3    H161813   5.654   6.743  13.949 -0.4282  1.3304  0.9155
13466TIP3    H261814   5.596   6.632  13.864  2.1894  0.1751  0.5507
13467TIP3   OH261815   1.227   3.324  13.068  0.1721  0.4559  0.2246
13467TIP3    H161816   1.224   3.248  13.010  0.5799  1.2034 -0.8121
13467TIP3    H261817   1.306   3.371  13.041  0.8413  0.3833  1.9679
13468TIP3   OH261818   5.751   0.468   1.436  0.8174 -0.4629  0.1129
13468TIP3    H161819   5.662   0.437   1.420  0.8669 -0.4710 -0.1582
13468TIP3    H261820   5.740   0.555   1.475  0.6883  0.7531 -2.3988
13469TIP3   OH261821   4.596   0.548   2.085  0.4647  0.7038 -0.1271
13469TIP3    H161822   4.572   0.635   2.119  0.4176  1.6163 -2.3005
13469TIP3    H261823   4.543   0.539   2.005 -1.6060 -2.5281  1.3798
13470TIP3   OH261824   1.835   3.655   1.113  0.4370  0.5108 -0.6310
13470TIP3    H161825   1.913   3.708   1.130 -0.1359  1.1127  0.1682
13470TIP3    H261826   1.870   3.570   1.084  1.4119  0.5267  0.4053
13471TIP3   OH261827   0.783   0.949  16.033  0.4335 -0.0339  0.5591
13471TIP3    H161828   0.871   0.918  16.012  0.3369 -0.9301  1.3974
13471TIP3    H261829   0.794   1.006  16.108  0.5506  1.6600 -0.6973
13472TIP3   OH261830   2.575   1.630  16.514  0.3418  0.2688 -0.2428
13472TIP3    H161831   2.661   1.611  16.476 -0.4157  0.0410 -1.9192
13472TIP3    H261832   2.594   1.659  16.603  2.1020 -0.5119 -0.3214
13473TIP3   OH261833   4.920   5.448  14.779  0.4573 -0.0143  0.4761
13473TIP3    H161834   4.900   5.535  14.743 -1.0221 -0.1814  0.8133
13473TIP3    H261835   4.997   5.461  14.833 -0.7308  1.4846  1.9021
13474TIP3   OH261836   3.361   6.720  11.430  0.3853  0.2366  0.2184
13474TIP3    H161837   3.380   6.631  11.400 -1.0531 -0.1059  0.2757
13474TIP3    H261838   3.339   6.768  11.350 -1.8044 -0.2531  0.4753
13475TIP3   OH261839   3.890   1.698   1.413 -0.1756 -0.2838  0.2717
13475TIP3    H161840   3.969   1.692   1.359 -1.1000 -1.6775 -1.0124
13475TIP3    H261841   3.923   1.723   1.500  1.4499  1.1168 -0.6628
13476TIP3   OH261842   3.649   4.885   3.870  0.3901  0.1484  0.9556
13476TIP3    H161843   3.556   4.865   3.872  0.6081 -0.9541  0.4514
13476TIP3    H261844   3.653   4.980   3.860 -0.6782  0.1268  0.2376
13477TIP3   OH261845   1.701   0.890  14.854 -0.0087  0.0151  0.0853
13477TIP3    H161846   1.774   0.879  14.793 -0.7826  2.6204 -1.4992
13477TIP3    H261847   1.737   0.942  14.926  0.3153 -1.0674  0.7403
13478TIP3   OH261848   6.543   5.812  15.327  0.5297 -0.3121 -0.3269
13478TIP3    H161849   6.520   5.745  15.391  1.5127 -0.2133  0.1475
13478TIP3    H261850   6.604   5.870  15.373  1.7657 -0.5951 -1.5416
13479TIP3   OH261851   2.476   4.790  12.751  0.1108 -0.5707  0.3133
13479TIP3    H161852   2.474   4.861  12.686 -0.0975 -0.1289  0.7925
13479TIP3    H261853   2.530   4.722  12.711  0.3865 -0.1050 -0.1191
13480TIP3   OH261854   6.375   6.235   4.013  0.8109  0.4393  0.7108
13480TIP3    H161855   6.383   6.312   4.070 -0.6697  1.8364 -0.8580
13480TIP3    H261856   6.455   6.236   3.961  0.2448  1.7276 -0.1921
13481TIP3   OH261857   5.493   2.425  15.121  0.3339  0.6252 -0.1741
13481TIP3    H161858   5.464   2.381  15.201 -0.4681  0.4345 -0.5555
13481TIP3    H261859   5.487   2.358  15.054  0.5430  0.9151 -0.4827
13482TIP3   OH261860   2.352   3.887  14.496 -0.1472 -0.4441  0.1058
13482TIP3    H161861   2.315   3.800  14.479  0.1563 -0.5909  0.1863
13482TIP3    H261862   2.357   3.893  14.591  1.0576 -0.8691  0.0825
13483TIP3   OH261863   5.400   5.919  12.368 -0.1178 -0.3678 -0.8433
13483TIP3    H161864   5.317   5.967  12.373 -0.4615 -0.4908 -3.9862
13483TIP3    H261865   5.376   5.828  12.379 -0.4242 -0.3995 -1.7123
13484TIP3   OH261866   3.183   2.938   5.734 -0.2483  0.5524 -0.4663
13484TIP3    H161867   3.269   2.970   5.761 -0.2061 -1.3867  2.0048
13484TIP3    H261868   3.169   2.979   5.648  2.2296  2.4863 -0.0886
13485TIP3   OH261869   5.737   5.549  15.156  0.4258  0.7036 -0.4989
13485TIP3    H161870   5.729   5.478  15.220  2.4497 -0.3771 -1.3535
13485TIP3    H261871   5.766   5.624  15.208  0.7604  0.2050  0.0511
13486TIP3   OH261872   3.102   3.248   1.683  0.0617  0.1118 -0.7248
13486TIP3    H161873   3.140   3.310   1.620 -0.2490  0.8673 -0.1777
13486TIP3    H261874   3.169   3.181   1.693  0.0180 -0.1582 -2.0501
13487TIP3   OH261875   2.672   0.944   3.001 -0.1013 -0.0946  0.3108
13487TIP3    H161876   2.585   0.906   3.008 -0.5969  0.8481 -0.4933
13487TIP3    H261877   2.657   1.038   2.999  0.8508  0.0560 -0.8027
13488TIP3   OH261878   2.001   3.197   2.507  0.2526  0.4092  0.2892
13488TIP3    H161879   1.932   3.217   2.570 -1.0743  0.5772 -1.1642
13488TIP3    H261880   1.989   3.261   2.437  0.4146 -0.9899 -1.0715
13489TIP3   OH261881   6.712   0.271  15.612  0.4822  0.1186  0.1501
13489TIP3    H161882   6.669   0.189  15.635 -1.8255  1.1482 -0.1890
13489TIP3    H261883   6.654   0.339  15.645  1.4496  1.6242 -1.0876
13490TIP3   OH261884   1.966   2.035   4.654 -0.1333 -0.5117  0.2300
13490TIP3    H161885   2.007   1.963   4.606 -0.2343 -0.3014 -0.1780
13490TIP3    H261886   2.026   2.109   4.642 -0.1199 -0.4801  0.4952
13491TIP3   OH261887   1.395   3.463   4.574  0.0406  0.1842 -0.5125
13491TIP3    H161888   1.312   3.499   4.543  0.1839  1.4121  0.4412
13491TIP3    H261889   1.450   3.458   4.497  0.2373  2.7174 -0.6079
13492TIP3   OH261890   2.176   0.652  11.694  0.2446 -0.7762  0.0263
13492TIP3    H161891   2.087   0.686  11.701  0.5365 -0.2019  1.1161
13492TIP3    H261892   2.164   0.560  11.669 -0.7013 -0.9895  1.1575
13493TIP3   OH261893   4.145   3.549  16.786  0.2677  0.0832 -0.4375
13493TIP3    H161894   4.068   3.595  16.819 -0.2974 -0.4625 -0.9834
13493TIP3    H261895   4.149   3.572  16.693 -0.6021 -1.7256 -0.9702
13494TIP3   OH261896   2.790   2.790   0.962 -0.2427  0.1251 -0.1294
13494TIP3    H161897   2.753   2.711   1.002  0.5356 -0.9180 -1.4133
13494TIP3    H261898   2.713   2.840   0.933 -0.7679  0.2171  1.3382
13495TIP3   OH261899   4.119   2.563   6.748 -0.0415 -0.3855 -0.2945
13495TIP3    H161900   4.179   2.488   6.752  1.1454  0.5942  2.8880
13495TIP3    H261901   4.038   2.530   6.786  0.0320 -0.4213 -0.1681
13496TIP3   OH261902   5.789   2.925  13.203  0.3164  0.1769 -0.0646
13496TIP3    H161903   5.882   2.905  13.203 -0.0184 -1.5639 -0.6275
13496TIP3    H261904   5.780   3.000  13.263  2.1780  1.0455 -0.7857
13497TIP3   OH261905   6.296   3.797   2.605  0.2922  0.1539  0.5276
13497TIP3    H161906   6.205   3.824   2.596  0.6581  3.2427  3.7198
13497TIP3    H261907   6.294   3.725   2.667  0.0575  1.8741  2.6250
13498TIP3   OH261908   0.362   4.365  14.931  0.3431 -0.1086  0.4801
13498TIP3    H161909   0.417   4.415  14.992 -1.0792  1.7114  0.3573
13498TIP3    H261910   0.283   4.345  14.980 -0.3487  0.3828 -0.4065
13499TIP3   OH261911   3.112   2.701   2.769 -0.0535 -0.2221 -0.6545
13499TIP3    H161912   3.156   2.782   2.797  0.4886 -0.5714 -0.4816
13499TIP3    H261913   3.100   2.651   2.849  0.5675 -0.7741 -0.9003
13500TIP3   OH261914   5.618   6.570  11.544 -0.4269  0.4230 -0.4144
13500TIP3    H161915   5.530   6.577  11.505 -0.1468  1.2410 -0.9361
13500TIP3    H261916   5.605   6.516  11.622 -1.9118  2.5382  0.9508
13501TIP3   OH261917   3.697   1.467   6.296  0.0153  0.5454 -0.0790
13501TIP3    H161918   3.718   1.561   6.296  0.4417  0.4721  0.9310
13501TIP3    H261919   3.609   1.462   6.259  1.1190  1.0153 -3.0268
13502TIP3   OH261920   5.699   0.353   6.369  0.2529  0.3427 -0.3461
13502TIP3    H161921   5.772   0.305   6.328  1.1645 -1.0376  2.5967
13502TIP3    H261922   5.729   0.444   6.371  1.2825  0.0237 -0.4750
13503TIP3   OH261923   4.363   3.185  16.423 -0.0077 -0.5407 -0.4095
13503TIP3    H161924   4.291   3.194  16.486 -0.8681 -1.0489 -1.2909
13503TIP3    H261925   4.442   3.191  16.476 -0.7021 -2.7310  1.0105
13504TIP3   OH261926   1.333   4.301   1.698  0.3471 -0.0023 -0.1564
13504TIP3    H161927   1.356   4.208   1.698  0.0736 -0.1146  1.9419
13504TIP3    H261928   1.242   4.303   1.726  0.6478  0.9342  0.8196
13505TIP3   OH261929   0.631   5.095   4.843 -0.2021 -0.4083 -0.0611
13505TIP3    H161930   0.600   5.177   4.806 -0.8306 -1.1680 -1.2597
13505TIP3    H261931   0.553   5.041   4.854  0.3312 -1.2992 -0.4638
13506TIP3   OH261932   4.437   3.205   3.451  0.2535 -0.3024  0.2012
13506TIP3    H161933   4.387   3.180   3.529  1.9691 -0.3446  1.3614
13506TIP3    H261934   4.527   3.176   3.471  0.5663 -1.2260 -2.2362
13507TIP3   OH261935   5.372   5.418   2.848 -0.0631 -0.0623  0.2399
13507TIP3    H161936   5.305   5.437   2.913 -2.1706 -1.0787 -1.4836
13507TIP3    H261937   5.388   5.502   2.804 -0.0229  0.2430  0.8374
13508TIP3   OH261938   2.387   0.013  15.801  0.1226 -0.0409  0.0373
13508TIP3    H161939   2.451   0.078  15.772 -0.3032  0.4923  0.2814
13508TIP3    H261940   2.319   0.015  15.734 -0.6904  0.9383  0.8622
13509TIP3   OH261941   0.927   4.540  15.950 -0.1044 -0.3949 -0.0141
13509TIP3    H161942   0.920   4.588  15.867 -0.1891  0.3887  0.4385
13509TIP3    H261943   0.846   4.490  15.956 -0.2057 -0.2640 -0.2862
13510TIP3   OH261944   1.158   5.034  10.467 -0.1303  0.0430  0.5575
13510TIP3    H161945   1.253   5.041  10.466 -0.1341  0.9780 -1.8675
13510TIP3    H261946   1.139   4.966  10.531  2.0582  0.8142  2.1340
13511TIP3   OH261947   4.368   3.465   2.876  0.1809 -0.1173 -0.0156
13511TIP3    H161948   4.347   3.547   2.920  0.0449 -0.7519  1.1488
13511TIP3    H261949   4.379   3.402   2.947  2.2501 -0.6855 -0.7732
13512TIP3   OH261950   1.523   3.328  13.662 -0.0158  0.1214  0.2417
13512TIP3    H161951   1.565   3.411  13.640 -0.1381 -0.3003 -1.8630
13512TIP3    H261952   1.577   3.291  13.731  0.9291  1.2583  0.1519
13513TIP3   OH261953   4.253   1.389   5.066  0.2428 -0.0913  1.0197
13513TIP3    H161954   4.285   1.416   4.980  1.1355 -0.7631  1.1253
13513TIP3    H261955   4.230   1.471   5.109  2.0240  0.4837  0.9894
13514TIP3   OH261956   5.474   4.324   1.090  0.8530 -1.0784 -0.2348
13514TIP3    H161957   5.452   4.254   1.150 -2.4547 -0.2379 -0.2483
13514TIP3    H261958   5.506   4.279   1.011 -0.0574 -2.5011  0.1731
13515TIP3   OH261959   1.864   3.558  16.841 -0.2517  0.1420 -0.2096
13515TIP3    H161960   1.779   3.546  16.800 -0.3387 -2.8881  0.6173
13515TIP3    H261961   1.927   3.527  16.776 -0.1328 -1.2157  0.4959
13516TIP3   OH261962   3.613   6.665  14.434 -0.0180 -0.1756 -0.0938
13516TIP3    H161963   3.646   6.579  14.410 -0.7862 -0.8792  1.2581
13516TIP3    H261964   3.679   6.726  14.402  0.2189 -1.2102 -1.6609
13517TIP3   OH261965   1.652   3.191  13.856 -0.0539 -0.0347  0.3985
13517TIP3    H161966   1.657   3.096  13.862 -0.4072 -0.3017 -2.3244
13517TIP3    H261967   1.593   3.216  13.928 -1.2728 -2.0398  0.1818
13518TIP3   OH261968   6.472   4.367   0.021  0.2481 -0.0967 -0.3307
13518TIP3    H161969   6.502   4.354   0.111 -1.6465 -0.3093  0.2985
13518TIP3    H261970   6.534   4.430  -0.015  0.7724  0.3596  1.2668
13519TIP3   OH261971   1.960   2.730   3.266  0.3600  0.0385  0.0612
13519TIP3    H161972   2.046   2.774   3.265  0.1947  0.4930  1.8370
13519TIP3    H261973   1.981   2.638   3.283  0.4852  0.3205  1.5916
13520TIP3   OH261974   4.915   5.576   3.901  0.6611 -0.5080  0.4030
13520TIP3    H161975   4.897   5.601   3.811  0.1627 -0.1872  0.5845
13520TIP3    H261976   4.835   5.599   3.949  1.5482  1.0030  1.2559
13521TIP3   OH261977   1.182   2.098  15.172  0.1317 -0.3006 -0.6560
13521TIP3    H161978   1.122   2.045  15.224  0.8378  0.8175  1.3962
13521TIP3    H261979   1.264   2.049  15.172  0.3719  0.0919  0.0205
13522TIP3   OH261980   1.677   0.465   3.662  0.0678 -0.0464  0.0534
13522TIP3    H161981   1.652   0.477   3.754  0.5120  0.1482  0.1496
13522TIP3    H261982   1.624   0.530   3.615  0.3772  0.3628  0.2596
13523TIP3   OH261983   5.899   6.048   1.289 -0.0589 -0.2806 -0.0060
13523TIP3    H161984   5.915   6.076   1.379  0.4303  0.7963 -0.4033
13523TIP3    H261985   5.842   6.117   1.253  0.2738 -0.3656 -0.7019
13524TIP3   OH261986   0.463   4.852  15.885 -0.4169  0.2039 -0.4311
13524TIP3    H161987   0.476   4.930  15.832  2.2072  0.2817  0.1696
13524TIP3    H261988   0.527   4.860  15.956 -0.9669 -1.8726  0.3853
13525TIP3   OH261989   6.005   5.546   2.589  0.0873 -0.1677  0.0154
13525TIP3    H161990   5.957   5.488   2.648 -1.5980  2.1100  1.0127
13525TIP3    H261991   6.095   5.512   2.590 -0.4015 -1.5868  2.0488
13526TIP3   OH261992   4.007   0.597   5.678 -0.1538 -0.5081 -0.8025
13526TIP3    H161993   4.001   0.521   5.735 -0.4208 -0.5304 -0.8609
13526TIP3    H261994   4.038   0.562   5.594  0.5057 -0.4362 -0.5944
13527TIP3   OH261995   3.997   6.761  10.478  0.1073 -0.2731  0.3662
13527TIP3    H161996   4.034   6.786  10.562  0.4583 -0.4403  0.2663
13527TIP3    H261997   3.911   6.724  10.499  0.0319  0.0456  0.6107
13528TIP3   OH261998   1.178   4.937   1.564 -0.2737  0.2121  0.8317
13528TIP3    H161999   1.164   4.886   1.484 -0.6271 -1.1509  1.7315
13528TIP3    H262000   1.272   4.953   1.566  0.0732 -1.6516  1.2226
13529TIP3   OH262001   2.450   4.114   3.862 -0.4056  0.8046  0.1071
13529TIP3    H162002   2.497   4.136   3.782  1.6354  2.5297  1.6582
13529TIP3    H262003   2.423   4.198   3.899  2.7403  0.6636  3.4220
13530TIP3   OH262004   6.254   4.576   2.359 -0.1241  0.1848 -0.0067
13530TIP3    H162005   6.316   4.513   2.324 -0.4609 -0.3455  0.3422
13530TIP3    H262006   6.263   4.653   2.302 -0.0560 -0.3454 -0.7237
13531TIP3   OH262007   6.770   5.298  12.624  0.6469 -0.0187 -0.0071
13531TIP3    H162008   6.753   5.230  12.689  1.3851 -0.0817  0.1348
13531TIP3    H262009   6.832   5.357  12.668  2.2392 -0.7979 -1.1110
13532TIP3   OH262010   6.129   1.826   5.289  0.7134  0.1675 -0.0193
13532TIP3    H162011   6.105   1.815   5.381 -1.0448 -0.7861 -0.5528
13532TIP3    H262012   6.149   1.738   5.258 -2.4537 -0.1702 -1.4691
13533TIP3   OH262013   0.914   4.360   5.796 -0.1298 -0.5838 -0.5560
13533TIP3    H162014   0.825   4.395   5.789 -0.0292 -0.0734  0.5254
13533TIP3    H262015   0.902   4.271   5.827 -0.2190  0.2168  1.9050
13534TIP3   OH262016   2.644   2.870   4.637 -0.2439  0.0440 -0.3001
13534TIP3    H162017   2.577   2.877   4.704 -0.0443  1.0356 -0.1835
13534TIP3    H262018   2.609   2.919   4.562 -0.2232 -0.5723 -0.7214
13535TIP3   OH262019   6.551   5.983   5.821 -0.0453  0.4209 -0.0651
13535TIP3    H162020   6.624   5.937   5.779  0.4971  1.6616 -0.5270
13535TIP3    H262021   6.570   6.076   5.808 -1.2225  0.7885  0.6534
13536TIP3   OH262022   3.025   1.520   3.739  0.3937 -0.5257  0.0443
13536TIP3    H162023   3.068   1.564   3.666 -2.2688 -0.3047 -1.5207
13536TIP3    H262024   3.016   1.429   3.711 -2.2019 -0.0925 -0.7891
13537TIP3   OH262025   2.715   5.076  14.635 -0.4622  0.1503  0.4180
13537TIP3    H162026   2.712   4.993  14.681 -2.5161  0.6209  1.2512
13537TIP3    H262027   2.693   5.054  14.544  0.1449 -0.3509  0.3895
13538TIP3   OH262028   3.826   4.147  14.714  0.1561  0.0736  0.1590
13538TIP3    H162029   3.747   4.093  14.717 -0.9075  1.1193 -3.5917
13538TIP3    H262030   3.809   4.217  14.776 -2.0405  0.3993 -0.7222
13539TIP3   OH262031   5.481   5.207   5.833  0.0186 -0.6847  0.4515
13539TIP3    H162032   5.461   5.295   5.799 -0.4860 -0.8858  0.2191
13539TIP3    H262033   5.576   5.202   5.831  0.1102  0.2206  1.3774
13540TIP3   OH262034   0.820   2.504  15.044  0.0283 -0.0678 -0.2851
13540TIP3    H162035   0.768   2.427  15.021 -0.0844 -0.5221  1.3378
13540TIP3    H262036   0.898   2.498  14.988 -1.2270  0.1521 -2.1207
13541TIP3   OH262037   6.092   2.806   5.145  0.3425 -0.0163 -0.3107
13541TIP3    H162038   6.019   2.767   5.193  1.0332 -0.5994  0.2962
13541TIP3    H262039   6.147   2.846   5.213 -0.3361  2.0461 -0.9193
13542TIP3   OH262040   0.903   1.495  14.449 -0.1293  0.7206 -0.1227
13542TIP3    H162041   0.826   1.466  14.400 -0.0321  1.8000 -0.9383
13542TIP3    H262042   0.941   1.564  14.396 -0.3396  2.3393  1.7358
13543TIP3   OH262043   5.037   1.873  13.962 -0.7332 -0.2783  0.3245
13543TIP3    H162044   4.971   1.825  13.912  0.3797 -1.0700 -0.4171
13543TIP3    H262045   4.991   1.952  13.993 -1.7831 -0.3947 -0.8712
13544TIP3   OH262046   1.208   0.711  10.631  0.1947  0.0720  0.0293
13544TIP3    H162047   1.133   0.688  10.686  0.0121  1.0592  0.2128
13544TIP3    H262048   1.244   0.627  10.603 -0.7096 -0.4161  0.3054
13545TIP3   OH262049   3.717   0.388   1.973 -0.0617 -0.3592  0.3501
13545TIP3    H162050   3.698   0.471   2.018 -1.4934  0.4902 -1.6442
13545TIP3    H262051   3.781   0.411   1.906  0.8748 -1.2601  0.9182
13546TIP3   OH262052   5.603   0.467   0.235  0.5949  0.0532 -0.6324
13546TIP3    H162053   5.532   0.434   0.180 -0.2912  1.0472 -0.1180
13546TIP3    H262054   5.679   0.415   0.209 -0.4041 -1.3350 -0.8944
13547TIP3   OH262055   5.544   3.697  12.137  0.1105  0.1656 -0.5127
13547TIP3    H162056   5.458   3.681  12.098 -0.6288  1.0918  0.6626
13547TIP3    H262057   5.601   3.716  12.063 -0.9550  0.6252 -1.2376
13548TIP3   OH262058   1.769   2.283  13.119 -0.0676 -0.8203  0.3676
13548TIP3    H162059   1.776   2.260  13.211 -1.1421 -0.7276  0.4831
13548TIP3    H262060   1.768   2.379  13.118  1.6653 -0.7612  0.1008
13549TIP3   OH262061   0.747   0.954   5.988 -0.6398 -0.2162  0.3325
13549TIP3    H162062   0.712   0.936   6.075 -0.3863  0.5521  0.6030
13549TIP3    H262063   0.792   1.038   5.997 -0.7127 -0.0670 -0.5704
13550TIP3   OH262064   3.003   5.314   2.072  0.0343 -0.6133 -0.1592
13550TIP3    H162065   3.041   5.229   2.049 -0.3828 -0.7096 -0.5058
13550TIP3    H262066   2.934   5.292   2.135 -0.7493 -0.6361 -1.0124
13551TIP3   OH262067   1.182   1.045   1.462 -0.2833 -0.0410  0.0240
13551TIP3    H162068   1.143   0.992   1.393  0.3183 -0.8533  0.2916
13551TIP3    H262069   1.138   1.016   1.542  0.3941 -0.5088  0.2377
13552TIP3   OH262070   0.493   4.047  15.399  0.8235 -0.3244  0.1866
13552TIP3    H162071   0.443   3.992  15.340  0.0943  0.9542 -0.4290
13552TIP3    H262072   0.437   4.057  15.476  0.5342  0.2991 -0.0936
13553TIP3   OH262073   4.501   2.170   4.539 -0.5813 -0.2016 -0.3204
13553TIP3    H162074   4.494   2.107   4.611  0.1725 -0.0199 -0.0731
13553TIP3    H262075   4.594   2.170   4.517 -0.8675 -0.5692 -1.5926
13554TIP3   OH262076   1.319   4.757  15.918 -0.5356 -0.4495 -0.1426
13554TIP3    H162077   1.341   4.666  15.900 -0.0086  0.2312 -3.7184
13554TIP3    H262078   1.374   4.780  15.993  1.9863 -2.1478 -1.3270
13555TIP3   OH262079   5.768   6.057   4.764 -0.2809  0.1450 -0.5070
13555TIP3    H162080   5.806   6.143   4.780 -1.9312  0.5696  1.5276
13555TIP3    H262081   5.675   6.074   4.748 -0.6855 -1.2436  0.1405
13556TIP3   OH262082   4.625   1.753   5.475 -0.0163 -0.2008  0.3886
13556TIP3    H162083   4.560   1.696   5.516  0.1819 -1.0484 -0.4560
13556TIP3    H262084   4.704   1.699   5.469  0.4324  0.4427  0.3395
13557TIP3   OH262085   6.153   6.089   1.513 -0.7938 -0.8210 -0.2672
13557TIP3    H162086   6.163   6.068   1.420 -1.8473 -1.8427 -0.1631
13557TIP3    H262087   6.200   6.172   1.523 -0.8725 -0.5654 -1.7599
13558TIP3   OH262088   6.117   4.863   0.889 -0.5796 -0.1913  0.0761
13558TIP3    H162089   6.157   4.794   0.835  2.0555  0.3518  1.2068
13558TIP3    H262090   6.152   4.944   0.853 -0.8655  0.3267  0.9625
13559TIP3   OH262091   4.393   1.920  16.229 -0.0894 -0.5856  0.4169
13559TIP3    H162092   4.419   1.833  16.256  1.0450 -0.4803 -0.2527
13559TIP3    H262093   4.423   1.927  16.138  0.5507  0.7690  0.7016
13560TIP3   OH262094   2.965   5.956   2.347 -0.2334  0.3039  0.4915
13560TIP3    H162095   3.011   6.016   2.288 -1.4825  1.6252  0.8060
13560TIP3    H262096   2.972   5.870   2.304 -1.3408  1.2504 -1.7672
13561TIP3   OH262097   4.481   3.079   1.600 -0.0114  0.1143 -0.2795
13561TIP3    H162098   4.575   3.065   1.610 -0.0471 -1.7658 -2.0988
13561TIP3    H262099   4.473   3.148   1.535  0.1609 -1.6177 -2.2168
13562TIP3   OH262100   2.724   5.979  16.740  0.4614  0.1187  0.0426
13562TIP3    H162101   2.802   6.023  16.705  1.2924 -0.8433  0.6413
13562TIP3    H262102   2.651   6.034  16.711  1.4919  2.3660  1.4240
13563TIP3   OH262103   4.867   6.036   0.848  0.4437 -0.2727 -0.5547
13563TIP3    H162104   4.860   5.968   0.781 -0.0452  0.5119 -1.3149
13563TIP3    H262105   4.780   6.039   0.888 -0.0673  1.0769 -1.7032
13564TIP3   OH262106   1.626   1.745  13.330  0.9300  0.0975 -0.6505
13564TIP3    H162107   1.606   1.678  13.395  0.8500  0.3423 -0.4189
13564TIP3    H262108   1.631   1.826  13.381 -0.4653  0.5044 -1.1343
13565TIP3   OH262109   4.436   6.096   1.518  0.5727  0.3297  0.3509
13565TIP3    H162110   4.487   6.042   1.457  0.0818  1.8309 -1.5038
13565TIP3    H262111   4.345   6.080   1.492  0.1980 -0.4758  2.0290
13566TIP3   OH262112   4.145   2.152   4.037  0.0661 -1.1966  0.4249
13566TIP3    H162113   4.231   2.193   4.044 -1.0233  0.9608  2.0488
13566TIP3    H262114   4.144   2.087   4.107 -0.3003  0.1805  1.7443
13567TIP3   OH262115   2.623   1.944   0.740  0.3115  0.0629  0.1551
13567TIP3    H162116   2.674   2.007   0.690  0.5523 -0.2058  0.0656
13567TIP3    H262117   2.687   1.883   0.776  0.0210 -0.5498 -0.3468
13568TIP3   OH262118   2.404   5.615  15.713  0.0837  0.1035  0.2490
13568TIP3    H162119   2.327   5.638  15.661  0.4557  0.4747 -0.1445
13568TIP3    H262120   2.467   5.583  15.649 -0.6986 -2.9286  0.8309
13569TIP3   OH262121   0.887   5.438   5.218 -0.5793 -0.0987 -0.4152
13569TIP3    H162122   0.858   5.347   5.221 -0.5205 -0.1627 -1.4158
13569TIP3    H262123   0.901   5.455   5.125 -1.7428  1.2980 -0.3639
13570TIP3   OH262124   0.995   5.939  11.351 -0.0252  0.4209  0.0520
13570TIP3    H162125   1.064   5.965  11.412  1.2876  0.2720 -1.2843
13570TIP3    H262126   0.967   6.021  11.311  0.9295  0.3000 -0.9292
13571TIP3   OH262127   3.400   0.276  14.950  0.0020  0.2009  0.1894
13571TIP3    H162128   3.456   0.254  15.025  0.3504  0.5799  0.0453
13571TIP3    H262129   3.311   0.271  14.984  0.1527  0.2697  0.6036
13572TIP3   OH262130   6.098   4.939   0.453 -0.1372  0.0323  0.0933
13572TIP3    H162131   6.171   4.994   0.482  1.0735  0.1970 -2.9551
13572TIP3    H262132   6.049   4.993   0.391  0.1558 -1.7181 -1.7751
13573TIP3   OH262133   3.311   3.522  16.716  0.3089 -0.2200 -0.1518
13573TIP3    H162134   3.367   3.562  16.782  0.0087 -0.9036  0.5346
13573TIP3    H262135   3.306   3.587  16.646  0.0965  0.8137  0.7882
13574TIP3   OH262136   1.875   0.207   2.670 -0.7537 -0.5428 -0.7230
13574TIP3    H162137   1.837   0.260   2.600  3.3181  1.2914 -1.8217
13574TIP3    H262138   1.808   0.207   2.739 -2.5237  2.8312 -2.1972
13575TIP3   OH262139   5.713   2.512   2.322 -0.1528 -0.4932  0.0648
13575TIP3    H162140   5.641   2.451   2.340 -1.3000  0.7667 -0.0719
13575TIP3    H262141   5.681   2.597   2.353  1.1340  0.1776 -0.3557
13576TIP3   OH262142   6.710   6.674  13.182  0.2217  0.9973 -0.6602
13576TIP3    H162143   6.681   6.650  13.094  0.9133 -0.5508 -0.4986
13576TIP3    H262144   6.663   6.755  13.202 -0.3349  1.0908 -2.2407
13577TIP3   OH262145   1.442   0.883  10.668 -0.2705  0.2268  0.6446
13577TIP3    H162146   1.371   0.835  10.624 -0.1632  0.1857  0.5164
13577TIP3    H262147   1.468   0.950  10.605  1.1004 -0.9449 -0.0966
13578TIP3   OH262148   1.571   1.252   4.909  0.2570 -0.0017  0.9519
13578TIP3    H162149   1.544   1.344   4.914 -0.2337  0.1750 -2.5202
13578TIP3    H262150   1.662   1.256   4.878  0.6813 -0.7327  2.0205
13579TIP3   OH262151   6.495   1.559  14.711  0.2882 -0.5537  0.0086
13579TIP3    H162152   6.529   1.572  14.623  3.0786 -1.3394  0.8602
13579TIP3    H262153   6.506   1.465  14.728  0.6686 -0.2719  1.4929
13580TIP3   OH262154   3.838   0.885  16.513 -0.2658 -0.3534  0.1841
13580TIP3    H162155   3.846   0.841  16.428  0.6315  0.0968  0.0192
13580TIP3    H262156   3.889   0.829  16.573  3.1641  1.6796 -0.5330
13581TIP3   OH262157   3.670   1.680   2.884  0.4453 -0.3239  0.2310
13581TIP3    H162158   3.729   1.604   2.893  1.8046  0.8706  2.2517
13581TIP3    H262159   3.717   1.751   2.927 -1.9716  1.0146  0.8082
13582TIP3   OH262160   1.698   6.099   6.265 -0.7277  0.4325 -0.4222
13582TIP3    H162161   1.632   6.126   6.201  0.9687  0.9249 -2.0700
13582TIP3    H262162   1.753   6.037   6.217  0.2952  0.3993  0.7384
13583TIP3   OH262163   2.503   5.970   0.257  0.4415 -0.2789 -0.4568
13583TIP3    H162164   2.587   5.956   0.214 -0.6820  1.5274 -3.5403
13583TIP3    H262165   2.439   5.966   0.187 -2.1452 -1.6438  1.7700
13584TIP3   OH262166   3.331   1.280   3.040 -0.1566 -0.4949  0.3846
13584TIP3    H162167   3.314   1.305   3.131 -1.1658 -0.6259  0.2461
13584TIP3    H262168   3.294   1.192   3.032 -0.4918 -0.3004 -0.2674
13585TIP3   OH262169   5.748   5.630   3.688 -0.4495  0.0962  0.3297
13585TIP3    H162170   5.699   5.551   3.663 -1.7446  0.1085  2.5452
13585TIP3    H262171   5.829   5.597   3.726 -0.6649 -0.1384  0.5917
13586TIP3   OH262172   6.439   6.662   1.122 -0.3367 -0.0481  0.4135
13586TIP3    H162173   6.410   6.572   1.109 -0.2544 -0.1119  0.6555
13586TIP3    H262174   6.519   6.654   1.173 -0.6012  0.1811  0.8769
13587TIP3   OH262175   3.269   6.770  11.175 -0.5589 -0.8266 -0.9750
13587TIP3    H162176   3.177   6.783  11.200 -0.6154  2.5303 -2.4279
13587TIP3    H262177   3.266   6.751  11.081  0.2271  0.3627 -1.2670
13588TIP3   OH262178   4.962   5.056  13.513 -0.1802  0.3921 -0.5894
13588TIP3    H162179   4.940   5.136  13.465 -1.0653  0.5526  0.0506
13588TIP3    H262180   4.879   5.028  13.551 -0.0707 -1.3287 -1.5148
13589TIP3   OH262181   2.976   5.655   1.109 -0.1957  0.1315  0.2975
13589TIP3    H162182   2.899   5.702   1.142 -0.2514 -0.5967  1.2324
13589TIP3    H262183   2.940   5.584   1.056 -0.1068  1.5304 -1.7901
13590TIP3   OH262184   5.916   1.728  15.262 -0.3248  0.0256  0.2374
13590TIP3    H162185   6.006   1.699  15.273 -0.5649 -0.4433  0.9798
13590TIP3    H262186   5.924   1.820  15.236  0.3824 -0.2225 -0.4584
13591TIP3   OH262187   2.164   0.983  14.105  0.3017  0.8380  0.0260
13591TIP3    H162188   2.087   1.018  14.060 -0.0733 -0.1996 -0.1738
13591TIP3    H262189   2.164   1.026  14.191 -0.9188  0.3224  0.3037
13592TIP3   OH262190   0.150   5.074   2.663  0.4948  0.2696  0.1873
13592TIP3    H162191   0.108   5.008   2.718  0.6608 -0.0754 -0.0981
13592TIP3    H262192   0.207   5.024   2.605  2.4605  0.8391  1.5632
13593TIP3   OH262193   4.975   4.388  13.549  0.2547  0.5405 -0.3376
13593TIP3    H162194   4.977   4.480  13.574  0.0999  0.3529  0.3722
13593TIP3    H262195   4.932   4.388  13.463  0.1117  1.1111 -0.2681
13594TIP3   OH262196   3.469   2.530   4.702  0.1080  0.0962  0.4958
13594TIP3    H162197   3.490   2.437   4.687  0.6838  0.3295 -0.1579
13594TIP3    H262198   3.405   2.552   4.634 -1.7552 -0.3910  1.9888
13595TIP3   OH262199   1.525   3.162   4.402 -0.3032 -0.4006  0.4446
13595TIP3    H162200   1.586   3.118   4.462  0.1452  0.8955  0.9666
13595TIP3    H262201   1.545   3.255   4.411  0.4987 -0.1783 -2.5069
13596TIP3   OH262202   3.363   5.827   2.653 -0.2930 -0.0783 -0.1733
13596TIP3    H162203   3.288   5.842   2.596 -0.0985 -0.0433 -0.4205
13596TIP3    H262204   3.331   5.848   2.741 -0.3972  0.5268 -0.3543
13597TIP3   OH262205   5.659   6.245  15.089 -0.8497  0.4964 -0.2559
13597TIP3    H162206   5.667   6.339  15.074 -1.1112  0.5440 -0.1007
13597TIP3    H262207   5.569   6.233  15.120 -0.4152  0.3761  1.0337
13598TIP3   OH262208   5.445   4.596  14.206  0.0815  0.0562 -0.2750
13598TIP3    H162209   5.352   4.572  14.206  0.2197 -0.5118 -0.5921
13598TIP3    H262210   5.445   4.691  14.202 -0.4986  0.1827  1.6223
13599TIP3   OH262211   6.465   6.504   0.768  0.2337  0.3768  0.3758
13599TIP3    H162212   6.422   6.421   0.786  0.7518 -0.2034 -0.9150
13599TIP3    H262213   6.394   6.563   0.742  0.1521 -0.5460 -1.6532
13600TIP3   OH262214   5.427   6.132  15.180  0.5232  0.0788 -0.0799
13600TIP3    H162215   5.359   6.176  15.231  0.2035  0.9554 -1.2131
13600TIP3    H262216   5.409   6.039  15.190 -1.6233  0.2877 -1.3071
13601TIP3   OH262217   2.151   2.523   0.027  0.1353  0.0399  0.0162
13601TIP3    H162218   2.156   2.470   0.106  0.1868  0.7946  0.5291
13601TIP3    H262219   2.177   2.611   0.055  1.0245  0.1352 -1.0178
13602TIP3   OH262220   1.654   0.232  11.127  0.0125  0.3476 -0.1504
13602TIP3    H162221   1.620   0.158  11.076 -0.7294  1.3780 -1.2021
13602TIP3    H262222   1.748   0.217  11.132 -0.1620 -0.8223 -0.0858
13603TIP3   OH262223   0.671   1.180  16.195 -0.2423 -0.0123 -0.7824
13603TIP3    H162224   0.698   1.147  16.280  1.2979  1.1089 -0.7918
13603TIP3    H262225   0.579   1.202  16.206 -0.2107 -0.4248  0.4258
13604TIP3   OH262226   3.939   4.328  16.228  0.7407 -0.6028  0.8005
13604TIP3    H162227   3.951   4.329  16.133 -0.1147 -0.6741  0.6856
13604TIP3    H262228   3.875   4.397  16.244  0.9242 -0.5577  1.3347
13605TIP3   OH262229   1.312   4.917   4.429 -0.3992  0.3139  0.1246
13605TIP3    H162230   1.375   4.863   4.476  2.5231  1.5440 -2.0562
13605TIP3    H262231   1.289   4.867   4.352 -1.0709  0.4480  0.2284
13606TIP3   OH262232   2.325   1.389  14.839  0.1416  0.0406  0.0679
13606TIP3    H162233   2.250   1.429  14.881  0.9059  0.5197  1.0131
13606TIP3    H262234   2.300   1.380  14.747 -0.6997  1.0721  0.1854
13607TIP3   OH262235   0.163   1.165   3.971  0.3403 -0.0129  0.1896
13607TIP3    H162236   0.132   1.256   3.970 -1.2360 -0.4759  2.1408
13607TIP3    H262237   0.148   1.134   3.882  1.0445  1.6599 -0.5538
13608TIP3   OH262238   1.268   5.839   4.985 -0.6312 -0.5678 -0.0837
13608TIP3    H162239   1.324   5.764   5.003  0.9073  0.5675  0.1025
13608TIP3    H262240   1.318   5.892   4.923 -1.4606  0.5417  0.1570
13609TIP3   OH262241   5.136   6.515  15.149 -0.6324  0.1833 -0.3785
13609TIP3    H162242   5.117   6.535  15.058 -0.0372  3.2512  0.0677
13609TIP3    H262243   5.073   6.568  15.199  1.6546  1.7812  0.9820
13610TIP3   OH262244   1.027   0.131   6.973  0.4592 -0.2420 -0.3034
13610TIP3    H162245   0.990   0.195   6.913 -0.2255  2.0310  2.3489
13610TIP3    H262246   0.952   0.098   7.023  1.2508 -0.1936  0.9689
13611TIP3   OH262247   3.609   0.985   1.154  0.5253 -0.3831 -0.1818
13611TIP3    H162248   3.598   1.079   1.169 -0.0892 -0.6976  1.5499
13611TIP3    H262249   3.704   0.971   1.163  0.7286  0.1639 -1.2419
13612TIP3   OH262250   0.759   2.214   1.460  0.2412  0.4682 -0.1475
13612TIP3    H162251   0.688   2.178   1.513  1.0230  0.7748  1.1549
13612TIP3    H262252   0.806   2.137   1.428 -1.2640  0.2098 -1.9545
13613TIP3   OH262253   2.443   4.318  16.869 -0.4350  0.4059  0.1260
13613TIP3    H162254   2.393   4.270  16.803 -0.5743 -0.8856  1.1429
13613TIP3    H262255   2.425   4.410  16.849 -4.0643  0.0350  1.0246
13614TIP3   OH262256   6.795   3.174   1.552 -0.4271  0.7361  0.0429
13614TIP3    H162257   6.751   3.119   1.487 -0.5058 -0.6688  1.2371
13614TIP3    H262258   6.801   3.260   1.510  0.0723 -0.2536 -2.0478
13615TIP3   OH262259   0.251   0.475   3.591 -0.0995  0.4238  0.9299
13615TIP3    H162260   0.234   0.554   3.539  1.6792  1.2753  1.5704
13615TIP3    H262261   0.299   0.506   3.667 -0.2104 -1.1798  1.6927
13616TIP3   OH262262   2.383   0.366  16.822  0.0345  0.6354  0.2320
13616TIP3    H162263   2.449   0.310  16.781  1.1259  1.6455  0.5426
13616TIP3    H262264   2.381   0.338  16.914 -0.3567  0.2531  0.1077
13617TIP3   OH262265   0.454   4.897  13.431 -0.2458 -0.3135 -0.1220
13617TIP3    H162266   0.371   4.862  13.461 -0.2755  0.0387  0.2084
13617TIP3    H262267   0.516   4.877  13.501 -0.3842  0.7897  0.3351
13618TIP3   OH262268   2.480   4.799   3.369 -0.4282  0.2610  0.1543
13618TIP3    H162269   2.404   4.750   3.337 -0.1155 -0.6932  0.8410
13618TIP3    H262270   2.443   4.864   3.428 -0.7282 -0.1328  0.4069
13619TIP3   OH262271   4.946   2.497   5.030 -0.2042 -0.0446 -0.1543
13619TIP3    H162272   4.970   2.589   5.042 -1.4242  0.2668 -0.0294
13619TIP3    H262273   4.928   2.489   4.937  0.4890 -0.3209 -0.2762
13620TIP3   OH262274   6.289   0.112  16.346 -0.4432 -0.0716  0.4607
13620TIP3    H162275   6.223   0.085  16.409 -0.9680  1.0050  0.3873
13620TIP3    H262276   6.361   0.146  16.399  0.4184 -1.9095  0.5791
13621TIP3   OH262277   3.813   1.975  15.632  0.0407  0.2038 -0.1728
13621TIP3    H162278   3.775   2.001  15.548 -2.3058  1.5373  1.1989
13621TIP3    H262279   3.778   2.039  15.695  2.4493 -0.1825  1.7049
13622TIP3   OH262280   5.209   1.330   1.666  0.0329  0.1353 -0.2043
13622TIP3    H162281   5.298   1.329   1.701  0.1818  0.6502 -0.5495
13622TIP3    H262282   5.164   1.258   1.711  1.0982 -1.2344 -1.2593
13623TIP3   OH262283   1.169   4.525  14.397 -0.3610  0.1860 -0.4124
13623TIP3    H162284   1.209   4.438  14.396  0.6500  0.6175  0.5723
13623TIP3    H262285   1.082   4.511  14.434  0.5320 -0.1554  1.7128
13624TIP3   OH262286   0.809   5.812  11.559 -0.2042  0.3969  0.0017
13624TIP3    H162287   0.846   5.870  11.493 -0.3972 -0.3326 -0.7622
13624TIP3    H262288   0.737   5.768  11.515 -1.3177  1.0050  1.1587
13625TIP3   OH262289   4.857   6.081   2.172  0.0406  0.5941  0.1109
13625TIP3    H162290   4.822   6.003   2.215 -1.0311  1.4349  0.8183
13625TIP3    H262291   4.940   6.099   2.218  0.0639  0.1332  0.2465
13626TIP3   OH262292   3.611   0.696   0.886 -0.0074 -0.5268 -0.2288
13626TIP3    H162293   3.682   0.633   0.870 -0.7477 -1.4062 -0.1229
13626TIP3    H262294   3.590   0.730   0.799 -0.9408 -1.9199 -0.5795
13627TIP3   OH262295   1.983   5.541  15.071  0.2116  0.0495  0.6660
13627TIP3    H162296   1.933   5.579  14.999 -0.8986  1.3403  2.0373
13627TIP3    H262297   1.920   5.486  15.117  0.1049  1.3289  2.1492
13628TIP3   OH262298   3.191   3.682   5.125 -0.7799  0.0353  0.3690
13628TIP3    H162299   3.281   3.713   5.137 -0.7764  0.1930 -0.0304
13628TIP3    H262300   3.155   3.677   5.213  0.0194 -1.2693  0.6397
13629TIP3   OH262301   2.258   4.469  11.512  0.4123 -0.2776  0.3656
13629TIP3    H162302   2.345   4.481  11.550  0.1915  1.5939  0.3765
13629TIP3    H262303   2.204   4.439  11.586  0.1797  2.5229  1.4707
13630TIP3   OH262304   2.392   0.113   4.916  0.4314 -0.0358 -0.1242
13630TIP3    H162305   2.310   0.064   4.918 -0.2353  0.9814 -1.0652
13630TIP3    H262306   2.444   0.076   4.987 -1.2227 -0.0788  1.1251
13631TIP3   OH262307   0.102   4.474   4.413  0.2199 -0.0101  0.3819
13631TIP3    H162308   0.174   4.530   4.439  0.6021  0.5408 -1.7205
13631TIP3    H262309   0.031   4.496   4.473  1.0214  1.2291  0.8924
13632TIP3   OH262310   3.946   6.139  16.712 -0.0219 -0.0028 -0.1619
13632TIP3    H162311   3.946   6.111  16.803 -1.1163 -1.5411 -0.5987
13632TIP3    H262312   3.955   6.234  16.716  2.9996 -0.2353  1.4137
13633TIP3   OH262313   0.402   0.507  13.936  0.1838 -0.6026  0.0799
13633TIP3    H162314   0.340   0.580  13.930  0.4721 -0.0727  2.5533
13633TIP3    H262315   0.483   0.542  13.897 -0.4862 -0.6862 -1.4947
13634TIP3   OH262316   2.305   1.478  11.683  0.1694  0.1784  0.1646
13634TIP3    H162317   2.274   1.389  11.701 -1.1136  0.3541 -1.0328
13634TIP3    H262318   2.372   1.467  11.616  0.3567  0.0849  0.3644
13635TIP3   OH262319   6.617   2.283  12.259 -0.4710 -0.2468  0.1991
13635TIP3    H162320   6.613   2.193  12.290 -2.7765  0.5597  2.5729
13635TIP3    H262321   6.622   2.336  12.338 -1.4367  1.7749 -1.0069
13636TIP3   OH262322   5.225   2.947   1.927 -0.1930 -0.0732 -0.0593
13636TIP3    H162323   5.170   2.983   1.858  2.5268  4.9193 -0.1383
13636TIP3    H262324   5.298   2.905   1.881 -1.1647 -1.9331 -0.0003
13637TIP3   OH262325   1.717   6.323   1.362  0.2945  0.7999 -0.3907
13637TIP3    H162326   1.729   6.413   1.391 -0.2725  0.4301  1.0661
13637TIP3    H262327   1.805   6.292   1.341  0.6078  1.3818  0.0437
13638TIP3   OH262328   4.164   6.318   3.096 -0.7853 -0.3924 -0.4239
13638TIP3    H162329   4.139   6.359   3.178  1.7060 -0.5650  0.5039
13638TIP3    H262330   4.173   6.391   3.034 -2.9522 -0.2900 -0.7094
13639TIP3   OH262331   4.578   0.031   3.974  0.0006 -0.1062 -0.0666
13639TIP3    H162332   4.508   0.063   3.919  0.8181  0.3312 -0.8847
13639TIP3    H262333   4.536  -0.029   4.035 -0.9140 -0.7192 -1.2653
13640TIP3   OH262334   0.456   4.168  12.226  0.0135  0.3116 -0.6098
13640TIP3    H162335   0.512   4.156  12.149 -0.0004 -0.5589 -0.4910
13640TIP3    H262336   0.376   4.119  12.206  0.2987 -0.5325  0.2441
13641TIP3   OH262337   2.139   3.076   1.634 -0.0496  0.2910  0.7065
13641TIP3    H162338   2.217   3.079   1.578 -1.0608 -0.9206 -0.8438
13641TIP3    H262339   2.073   3.126   1.586 -0.7717 -0.2788  1.0816
13642TIP3   OH262340   6.133   0.000   3.308 -0.0245 -0.1270 -0.3266
13642TIP3    H162341   6.158   0.058   3.236 -0.1143  0.2246 -0.0789
13642TIP3    H262342   6.067  -0.058   3.270 -0.5180  0.4517 -0.3753
13643TIP3   OH262343   3.742   4.166   4.023 -0.1429  0.0689  0.3721
13643TIP3    H162344   3.793   4.139   4.099 -1.5046 -0.8835  0.9797
13643TIP3    H262345   3.802   4.222   3.972  1.2863 -0.5369  1.3429
13644TIP3   OH262346   5.244   4.557  12.890  0.2169  0.3507  0.7123
13644TIP3    H162347   5.307   4.492  12.921  0.7810  1.0452  1.0357
13644TIP3    H262348   5.224   4.609  12.968 -1.2874 -0.2742  0.7834
13645TIP3   OH262349   4.109   0.570   0.362  0.3372 -0.5041  0.0809
13645TIP3    H162350   4.099   0.547   0.270 -0.3757  1.1120 -0.2845
13645TIP3    H262351   4.194   0.615   0.366  0.1348 -0.1151  0.0958
13646TIP3   OH262352   1.700   3.802  16.268 -0.8789  0.1565  0.5151
13646TIP3    H162353   1.645   3.729  16.297 -1.3979 -0.3656 -1.5788
13646TIP3    H262354   1.764   3.761  16.209  0.0298  1.1587  0.7705
13647TIP3   OH262355   5.647   5.658   1.049  0.1740 -0.2199  0.5769
13647TIP3    H162356   5.729   5.702   1.072  0.1230  0.3620 -0.3111
13647TIP3    H262357   5.645   5.659   0.954  0.0611 -1.9712  0.5327
13648TIP3   OH262358   5.663   6.410   0.234 -0.4845  0.5053 -0.0114
13648TIP3    H162359   5.642   6.345   0.167 -0.2709  2.2442 -1.8671
13648TIP3    H262360   5.579   6.430   0.275 -0.1246 -3.3943  3.1208
13649TIP3   OH262361   5.533   6.767  16.171 -0.4604  0.8614  0.2012
13649TIP3    H162362   5.511   6.769  16.078  0.7537 -1.6288 -0.2197
13649TIP3    H262363   5.585   6.846  16.185  1.5412  0.0323 -1.9068
13650TIP3   OH262364   2.574   3.456  11.452 -0.1705  0.2614 -0.4437
13650TIP3    H162365   2.510   3.473  11.384  0.7195 -1.6399 -1.8232
13650TIP3    H262366   2.623   3.379  11.422  1.1242  0.1427  1.7185
13651TIP3   OH262367   2.004   2.746   0.797 -0.4911 -0.1194 -0.2984
13651TIP3    H162368   1.963   2.831   0.808 -1.0719 -0.3755 -0.4602
13651TIP3    H262369   2.090   2.755   0.839  0.0523  0.9948 -1.5538
13652TIP3   OH262370   4.897   2.290   5.905  0.6132 -0.1046 -0.1874
13652TIP3    H162371   4.935   2.284   5.818  0.2552 -0.7825 -0.2997
13652TIP3    H262372   4.808   2.323   5.890  0.4007 -0.6352 -0.1246
13653TIP3   OH262373   2.575   2.662  15.916 -0.4237 -0.1880 -0.7182
13653TIP3    H162374   2.531   2.577  15.918  0.5793 -0.7105  0.0125
13653TIP3    H262375   2.667   2.641  15.906 -0.1364  0.8094 -0.2842
13654TIP3   OH262376   5.526   0.741   3.281 -0.3952  0.2670  0.0305
13654TIP3    H162377   5.533   0.646   3.284  1.0886  0.3671  0.6829
13654TIP3    H262378   5.432   0.759   3.278 -0.6828 -1.2374 -1.5769
13655TIP3   OH262379   6.103   0.202   0.031 -0.2102 -0.2737 -0.4177
13655TIP3    H162380   6.046   0.134   0.066  0.7532 -0.9808 -0.1907
13655TIP3    H262381   6.113   0.179  -0.062  0.7645 -0.9193 -0.1632
13656TIP3   OH262382   2.563   6.591  15.662 -0.3729  0.3746 -0.1904
13656TIP3    H162383   2.484   6.569  15.612 -0.6271 -0.3215  0.5014
13656TIP3    H262384   2.545   6.561  15.751  1.3886 -1.6031 -0.3989
13657TIP3   OH262385   4.386   5.219   4.352 -0.5251  0.2463 -0.8103
13657TIP3    H162386   4.342   5.231   4.437 -1.0037  2.9487 -1.3499
13657TIP3    H262387   4.453   5.153   4.369  0.6533  1.9922  2.2347
13658TIP3   OH262388   2.764   5.798   1.161  0.3452  0.0498 -0.3140
13658TIP3    H162389   2.725   5.824   1.244 -0.1180  0.3961 -0.6343
13658TIP3    H262390   2.696   5.817   1.096  0.4294 -0.9119 -0.6880
13659TIP3   OH262391   1.518   2.882  14.531 -0.2283  0.5751 -0.5129
13659TIP3    H162392   1.455   2.823  14.490 -2.2230  2.1148  0.1934
13659TIP3    H262393   1.488   2.970  14.507 -0.0874  1.4565  2.1922
13660TIP3   OH262394   2.343   4.813   0.565 -0.4261 -0.4237 -0.1504
13660TIP3    H162395   2.282   4.821   0.492  0.0601 -0.0921 -0.5228
13660TIP3    H262396   2.426   4.847   0.531  0.4147 -2.3768 -0.2006
13661TIP3   OH262397   4.879   6.563   6.232  0.1615 -0.3817 -0.2346
13661TIP3    H162398   4.814   6.593   6.169 -1.0649 -1.0237  0.6916
13661TIP3    H262399   4.948   6.630   6.229 -0.7265  0.5270 -0.9371
13662TIP3   OH262400   6.489   4.503  16.028  0.3007 -0.3565 -0.5355
13662TIP3    H162401   6.579   4.536  16.031 -0.4101  1.7205 -0.0707
13662TIP3    H262402   6.460   4.507  16.119 -1.1242  1.7512 -1.0070
13663TIP3   OH262403   1.081   2.315   0.621 -0.0573  0.4234  0.2374
13663TIP3    H162404   0.988   2.326   0.604  0.0159 -0.3420 -0.7474
13663TIP3    H262405   1.087   2.230   0.666  0.1711  0.4629  0.2807
13664TIP3   OH262406   3.455   5.456  13.522 -0.3403  0.6871 -1.0930
13664TIP3    H162407   3.376   5.481  13.570  0.5300  2.7899 -0.6583
13664TIP3    H262408   3.505   5.405  13.584 -0.8017  0.3756 -0.9684
13665TIP3   OH262409   0.535   3.961   3.820  0.4185  0.4591  0.0324
13665TIP3    H162410   0.520   3.942   3.913 -0.1077  0.4062 -0.0611
13665TIP3    H262411   0.614   3.912   3.799 -2.5596 -4.6154 -1.0276
13666TIP3   OH262412   3.861   4.168   5.004 -0.3866 -0.4050 -0.2057
13666TIP3    H162413   3.910   4.095   4.967  0.9507 -0.0651  0.8295
13666TIP3    H262414   3.896   4.246   4.962 -0.4338 -0.2033  0.1214
13667TIP3   OH262415   1.616   5.146  15.684  0.1423 -0.1871 -0.5883
13667TIP3    H162416   1.553   5.101  15.627 -0.5135  0.5501 -0.4536
13667TIP3    H262417   1.610   5.101  15.768 -0.8956  0.4695 -0.2986
13668TIP3   OH262418   6.059   6.420  11.410 -0.1681  0.8931  0.7611
13668TIP3    H162419   6.038   6.436  11.502 -0.0125  2.6117  0.5409
13668TIP3    H262420   5.974   6.426  11.365 -0.0461  1.7839  0.6141
13669TIP3   OH262421   3.421   0.373  15.520  0.1479  0.2903  0.0122
13669TIP3    H162422   3.345   0.422  15.551  1.2339  1.3951  1.0340
13669TIP3    H262423   3.427   0.297  15.577  0.0602  0.4321  0.2099
13670TIP3   OH262424   1.640   1.422  10.921  0.6980 -0.6263 -0.8094
13670TIP3    H162425   1.653   1.465  10.837 -2.6100 -2.1760 -2.3074
13670TIP3    H262426   1.566   1.363  10.907  2.0553 -3.4374  2.3300
13671TIP3   OH262427   3.601   5.162   3.553  0.0495  0.2224 -0.2868
13671TIP3    H162428   3.675   5.114   3.515 -0.5074 -1.1073  0.2291
13671TIP3    H262429   3.524   5.126   3.508 -0.4642 -0.0550  0.7730
13672TIP3   OH262430   4.975   0.115  14.980  0.2633  0.0850  0.4779
13672TIP3    H162431   5.034   0.084  15.048 -0.6286  1.3596  1.8952
13672TIP3    H262432   4.943   0.036  14.937  0.5061 -0.7607  1.8272
13673TIP3   OH262433   4.260   1.447   3.699 -0.1983 -0.8189 -0.2586
13673TIP3    H162434   4.185   1.499   3.672  0.1665 -0.7809 -1.2114
13673TIP3    H262435   4.243   1.427   3.791 -0.1726  1.3132  0.2587
13674TIP3   OH262436   6.292   0.352  16.215  0.3341 -0.2877  0.4479
13674TIP3    H162437   6.384   0.360  16.189  0.7375  0.0574  1.9186
13674TIP3    H262438   6.291   0.282  16.281 -1.0874 -3.1307 -2.2991
13675TIP3   OH262439   2.722   5.637  12.780  0.7236 -0.2247 -0.1523
13675TIP3    H162440   2.657   5.596  12.838  2.1968 -3.4863 -0.5761
13675TIP3    H262441   2.676   5.651  12.698 -0.1497  0.0446  0.3744
13676TIP3   OH262442   4.155   2.830  16.864  0.2396 -0.4426 -0.3896
13676TIP3    H162443   4.083   2.820  16.802 -1.2108  0.4953  1.0483
13676TIP3    H262444   4.230   2.856  16.810  0.0594 -3.2259 -2.1537
13677TIP3   OH262445   0.081   3.647   0.982 -0.2228 -0.1442  0.2172
13677TIP3    H162446   0.168   3.687   0.982  0.4249 -1.4357 -1.0661
13677TIP3    H262447   0.021   3.721   0.991  0.9965  0.7346  1.6759
13678TIP3   OH262448   3.550   4.733   5.716 -0.2982  0.0595 -0.4478
13678TIP3    H162449   3.490   4.658   5.716 -1.4678  0.9153  1.6595
13678TIP3    H262450   3.580   4.740   5.806  1.7108  0.6966 -1.1181
13679TIP3   OH262451   5.085   3.356  16.171 -0.8999 -0.2076  0.0245
13679TIP3    H162452   5.168   3.379  16.131 -1.9466 -0.8494 -2.7712
13679TIP3    H262453   5.108   3.318  16.256  1.6020 -0.1003 -0.5470
13680TIP3   OH262454   2.607   4.696  15.796 -0.0880  0.1888 -0.1230
13680TIP3    H162455   2.619   4.607  15.763 -4.0692 -0.5855  0.0004
13680TIP3    H262456   2.593   4.749  15.717 -0.2227  0.2261 -0.0732
13681TIP3   OH262457   5.794   4.939   3.110 -0.2689  0.9470 -0.3680
13681TIP3    H162458   5.760   5.014   3.061  2.0488  2.6796  0.4777
13681TIP3    H262459   5.874   4.972   3.151  1.8036 -2.4389 -1.2849
13682TIP3   OH262460   1.740   1.297  12.065  0.2059 -0.3134  0.4228
13682TIP3    H162461   1.780   1.298  11.977 -0.4746 -1.0006  0.0983
13682TIP3    H262462   1.661   1.244  12.055 -0.6423  0.7737  1.1222
13683TIP3   OH262463   0.069   6.395   6.304  0.3192  0.1693 -0.0523
13683TIP3    H162464   0.133   6.420   6.371  1.1844  1.8499 -1.4233
13683TIP3    H262465  -0.016   6.411   6.344  0.7278 -1.2120  1.4759
13684TIP3   OH262466   5.716   3.935   5.064 -0.1434 -0.5148  0.0990
13684TIP3    H162467   5.713   3.960   5.156 -0.4406  0.0289 -0.0544
13684TIP3    H262468   5.713   3.839   5.065 -2.3054 -0.4953  0.5969
13685TIP3   OH262469   3.697   6.002   1.823  0.1599  0.4228  0.2105
13685TIP3    H162470   3.632   5.971   1.886 -0.6991 -0.9243 -1.2580
13685TIP3    H262471   3.775   6.020   1.875 -0.5201 -0.6145  1.6534
13686TIP3   OH262472   4.237   4.534   3.378 -0.6351 -0.6396 -0.2261
13686TIP3    H162473   4.254   4.612   3.431  0.1251  0.3418 -1.8181
13686TIP3    H262474   4.223   4.568   3.289 -0.2855 -2.3198 -0.9702
13687TIP3   OH262475   3.597   2.059   3.280 -0.1583  0.5481 -0.4862
13687TIP3    H162476   3.575   1.983   3.227 -2.0980  0.7254 -0.0109
13687TIP3    H262477   3.588   2.029   3.370 -1.5910  1.4500 -0.2858
13688TIP3   OH262478   0.402   1.420   1.547  0.0018 -0.8591 -0.4996
13688TIP3    H162479   0.486   1.458   1.522 -0.0570 -0.3451  0.0591
13688TIP3    H262480   0.337   1.471   1.499 -0.0664 -0.3463  0.1181
13689TIP3   OH262481   4.192   6.232   3.439  0.3985  0.5600 -0.1200
13689TIP3    H162482   4.227   6.317   3.467  1.9203  1.0564 -3.0377
13689TIP3    H262483   4.102   6.251   3.414 -0.2178  0.6077  1.9985
13690TIP3   OH262484   6.083   6.603   5.871  0.2158  0.2868  0.0225
13690TIP3    H162485   5.997   6.632   5.901  1.1097  0.5885  2.5452
13690TIP3    H262486   6.066   6.526   5.816 -1.6096 -0.0335  0.9909
13691TIP3   OH262487   0.029   0.429   2.917  0.6839  0.4510 -0.3100
13691TIP3    H162488   0.082   0.351   2.903 -0.1768  0.0589 -1.5320
13691TIP3    H262489   0.027   0.473   2.832 -0.0578  1.0258 -0.0102
13692TIP3   OH262490   2.392   5.519   4.229  0.0172 -0.0043 -0.5669
13692TIP3    H162491   2.443   5.553   4.155 -1.3953  0.5529 -1.3136
13692TIP3    H262492   2.302   5.541   4.208 -0.3390  1.3099  1.9219
13693TIP3   OH262493   6.748   1.978   6.428 -0.1282 -0.2920 -0.1345
13693TIP3    H162494   6.778   1.887   6.437  0.4212 -0.2376 -1.2092
13693TIP3    H262495   6.656   1.970   6.401 -0.4618 -0.4938  0.9995
13694TIP3   OH262496   5.781   6.220   4.451  0.2455 -0.4538  0.1911
13694TIP3    H162497   5.724   6.288   4.414  2.2736  0.9585 -0.5257
13694TIP3    H262498   5.722   6.146   4.467 -1.7832  0.9205 -0.4239
13695TIP3   OH262499   1.360   3.274   2.031 -0.3684 -0.5805 -0.0599
13695TIP3    H162500   1.268   3.279   2.057  0.0370 -0.1570  1.3885
13695TIP3    H262501   1.361   3.207   1.962 -1.9619  0.4603 -1.1676
13696TIP3   OH262502   6.631   1.823   3.159  0.1513  0.5960  0.8258
13696TIP3    H162503   6.621   1.728   3.169  0.6753  0.6407  1.8885
13696TIP3    H262504   6.726   1.837   3.157  0.0777  1.0123 -0.3348
13697TIP3   OH262505   1.714   3.074   5.308  0.0094  0.0762 -0.1567
13697TIP3    H162506   1.783   3.138   5.288 -0.4738  0.3545 -0.9890
13697TIP3    H262507   1.663   3.116   5.378  0.4539  0.0327  0.2000
13698TIP3   OH262508   2.701   6.526   2.722 -0.4656 -0.0714 -0.0154
13698TIP3    H162509   2.640   6.533   2.649  0.0818  2.4503 -0.3224
13698TIP3    H262510   2.645   6.518   2.800 -1.0609 -1.6467 -0.5528
13699TIP3   OH262511   5.393   6.270  13.587 -0.0061  0.9773  0.6297
13699TIP3    H162512   5.371   6.287  13.495 -1.2318  0.8290  0.8760
13699TIP3    H262513   5.329   6.205  13.615 -0.0850  1.5169  1.7737
13700TIP3   OH262514   6.209   5.920  15.586  0.0173  0.1126  0.2942
13700TIP3    H162515   6.204   5.935  15.681 -0.6521 -0.2662  0.3230
13700TIP3    H262516   6.303   5.913  15.568  0.1027 -1.3106  1.1692
13701TIP3   OH262517   0.633   1.626   3.858 -0.4160  0.4783 -0.2546
13701TIP3    H162518   0.587   1.573   3.924 -0.6378  2.0647  0.9316
13701TIP3    H262519   0.623   1.716   3.889  0.3462  1.1906 -1.9561
13702TIP3   OH262520   3.116   3.601  16.354 -0.0029 -0.0295  0.3031
13702TIP3    H162521   3.178   3.562  16.293  0.8922  0.2508  1.0085
13702TIP3    H262522   3.091   3.528  16.411 -1.3155 -0.4371 -0.7460
13703TIP3   OH262523   1.881   2.688  15.465  0.1453  0.1243  0.0599
13703TIP3    H162524   1.952   2.719  15.521 -0.0143  0.3446  0.1430
13703TIP3    H262525   1.840   2.617  15.513 -0.7304  1.0670  0.7585
13704TIP3   OH262526   2.064   5.394  11.322 -1.0919  0.2471 -0.6172
13704TIP3    H162527   2.004   5.359  11.256 -0.9826 -1.0104 -0.0751
13704TIP3    H262528   2.143   5.418  11.273 -0.5015 -1.9022 -0.8087
13705TIP3   OH262529   6.273   0.749  12.670  0.1000  0.4531 -0.6983
13705TIP3    H162530   6.326   0.829  12.664  1.3824 -0.3397 -0.3465
13705TIP3    H262531   6.263   0.733  12.764 -1.8887  1.2719 -0.7165
13706TIP3   OH262532   6.145   0.040  14.565  0.1364  0.6501  0.3347
13706TIP3    H162533   6.079  -0.005  14.618  1.3293  2.3943  3.5688
13706TIP3    H262534   6.215  -0.024  14.555  0.2579  0.5279  1.7088
13707TIP3   OH262535   2.082   4.644   3.350 -0.0646  0.0220 -0.2409
13707TIP3    H162536   2.029   4.698   3.409 -0.0969 -1.0381  0.7257
13707TIP3    H262537   2.026   4.569   3.330 -0.4987  0.8699 -2.5505
13708TIP3   OH262538   1.260   3.716  13.690  0.3544  0.2943 -0.2639
13708TIP3    H162539   1.337   3.704  13.746 -0.2355  0.0568  0.5074
13708TIP3    H262540   1.286   3.679  13.606  0.8088 -0.5297  0.2227
13709TIP3   OH262541   4.864   0.488  12.578  0.3170 -0.6234  0.4612
13709TIP3    H162542   4.799   0.503  12.648 -0.2160 -0.0707 -0.1348
13709TIP3    H262543   4.948   0.510  12.618  0.2287 -1.8877  1.4226
13710TIP3   OH262544   1.801   1.617  14.754 -0.0328 -0.1593 -0.1216
13710TIP3    H162545   1.867   1.680  14.780  1.1522 -1.9015  1.3217
13710TIP3    H262546   1.829   1.587  14.667  0.3234  0.0772 -0.0869
13711TIP3   OH262547   2.853   1.147   5.885 -0.4842 -0.7493 -0.3661
13711TIP3    H162548   2.822   1.181   5.801 -0.5280 -2.9453 -1.3141
13711TIP3    H262549   2.822   1.057   5.887  0.7415 -1.1853  1.3837
13712TIP3   OH262550   5.909   0.342  16.801 -0.1447 -0.2458 -0.6379
13712TIP3    H162551   5.960   0.353  16.721  0.9901  1.2772  0.2333
13712TIP3    H262552   5.818   0.344  16.771  0.2596 -0.9639 -2.0047
13713TIP3   OH262553   5.344   0.683   5.336 -0.7930 -0.2394  0.1167
13713TIP3    H162554   5.402   0.739   5.283 -1.2051  0.3898  0.3120
13713TIP3    H262555   5.402   0.616   5.372 -0.4763 -0.5893 -0.9893
13714TIP3   OH262556   4.774   2.671   4.450  0.1748  0.0888 -0.0857
13714TIP3    H162557   4.772   2.576   4.459  1.1567  0.0642 -0.0773
13714TIP3    H262558   4.799   2.702   4.537 -1.2878  0.4263  0.2389
13715TIP3   OH262559   3.538   3.427   3.662 -0.1170  0.5813 -0.0619
13715TIP3    H162560   3.585   3.344   3.667  2.2945  1.8390 -0.2881
13715TIP3    H262561   3.550   3.456   3.571  0.5566  1.9450  0.4319
13716TIP3   OH262562   0.591   2.864  11.732 -0.1574  0.2240 -0.1374
13716TIP3    H162563   0.683   2.881  11.754  0.0381 -0.1784 -0.6116
13716TIP3    H262564   0.572   2.925  11.660 -0.0150 -0.2357 -0.5756
13717TIP3   OH262565   4.861   5.195  14.674  0.6856  0.0821  0.3609
13717TIP3    H162566   4.906   5.156  14.750  1.1501  0.9427  0.5363
13717TIP3    H262567   4.853   5.287  14.697 -0.5016  0.0731 -0.0089
13718TIP3   OH262568   2.507   1.389   2.560 -0.5130 -0.6119  0.1711
13718TIP3    H162569   2.452   1.312   2.575  1.4348 -2.4395 -1.4812
13718TIP3    H262570   2.518   1.393   2.465  2.4325 -0.5774  0.4265
13719TIP3   OH262571   5.232   3.471  13.313  0.4571 -0.6116 -0.4035
13719TIP3    H162572   5.141   3.442  13.316  0.3932 -0.5711 -1.5029
13719TIP3    H262573   5.228   3.558  13.272  0.5970  1.2707  3.1456
13720TIP3   OH262574   5.112   0.798   2.955  0.2233 -0.1058 -0.0507
13720TIP3    H162575   5.187   0.849   2.985  1.3628 -0.5964 -1.8769
13720TIP3    H262576   5.150   0.730   2.899 -1.5252 -0.8477 -0.4182
13721TIP3   OH262577   0.414   3.563  12.640  0.3546 -0.2896  0.5915
13721TIP3    H162578   0.507   3.550  12.619  0.1506  0.3571 -0.9049
13721TIP3    H262579   0.370   3.557  12.555 -1.0543 -1.1212  1.3441
13722TIP3   OH262580   5.347   4.158   1.961 -0.5283  0.2694  0.2177
13722TIP3    H162581   5.367   4.216   2.035  0.7675 -1.1850  1.0606
13722TIP3    H262582   5.425   4.104   1.951 -2.0391 -2.0179  0.1379
13723TIP3   OH262583   0.592   4.561   1.293 -0.4235  0.0480 -0.2129
13723TIP3    H162584   0.540   4.636   1.266  0.5464  0.3831 -1.2330
13723TIP3    H262585   0.652   4.597   1.359 -1.4301 -0.3338  0.9502
13724TIP3   OH262586   6.564   0.020  10.480 -0.6862  0.2518 -0.2857
13724TIP3    H162587   6.648  -0.009  10.515 -0.5524 -0.1019 -0.8879
13724TIP3    H262588   6.550  -0.034  10.401 -1.3029  0.5526 -0.3931
13725TIP3   OH262589   2.612   1.187   1.529 -0.1120 -0.4711 -0.3919
13725TIP3    H162590   2.614   1.093   1.549 -0.6354 -0.3865  0.0663
13725TIP3    H262591   2.596   1.190   1.435 -0.1728 -0.8440 -0.3971
13726TIP3   OH262592   0.698   1.587  15.833 -0.2711 -0.1368 -0.0368
13726TIP3    H162593   0.615   1.574  15.878  0.3273 -1.8138  0.6525
13726TIP3    H262594   0.697   1.522  15.763  0.4911 -0.2217  0.0264
13727TIP3   OH262595   2.478   0.519   1.062 -0.2754  0.6920  0.2533
13727TIP3    H162596   2.530   0.440   1.078 -0.4253  1.1196  3.3721
13727TIP3    H262597   2.388   0.494   1.083 -0.6928  1.1437 -0.8914
13728TIP3   OH262598   4.503   2.549  16.604  0.2486 -0.7161 -0.2398
13728TIP3    H162599   4.451   2.476  16.572  0.0916 -0.7077 -0.0061
13728TIP3    H262600   4.593   2.523  16.589  0.2246  0.5349 -3.6018
13729TIP3   OH262601   6.749   4.563  16.021  0.7395 -0.4934  0.2282
13729TIP3    H162602   6.826   4.513  15.996  0.2704 -1.6662  1.0351
13729TIP3    H262603   6.746   4.559  16.116 -1.0407 -1.6716  0.1867
13730TIP3   OH262604   5.362   6.022  10.940 -0.0676  0.0002  0.5869
13730TIP3    H162605   5.319   5.994  10.859 -0.4153  0.0826  0.7391
13730TIP3    H262606   5.326   6.109  10.957 -0.2562 -0.1534  1.0063
13731TIP3   OH262607   1.265   6.437  16.512  0.0628  0.2376  0.5866
13731TIP3    H162608   1.351   6.438  16.470  0.5654 -0.3498  1.5744
13731TIP3    H262609   1.264   6.358  16.565 -1.2438  0.0379  0.3032
13732TIP3   OH262610   5.544   5.007   5.269  0.1494 -0.3931  0.8132
13732TIP3    H162611   5.506   5.092   5.247  0.3111 -0.3148  0.8358
13732TIP3    H262612   5.472   4.945   5.258  0.9287 -0.8522 -3.0994
13733TIP3   OH262613   2.226   4.606  13.631 -0.0266 -0.1476  0.1889
13733TIP3    H162614   2.191   4.541  13.570 -0.9416  0.4231  0.0933
13733TIP3    H262615   2.310   4.569  13.660  1.2851  0.3101 -2.7036
13734TIP3   OH262616   3.020   0.022  13.342 -0.2643  0.3242  0.4122
13734TIP3    H162617   3.055   0.069  13.266 -0.6413 -1.3903 -0.8863
13734TIP3    H262618   3.065  -0.063  13.339 -0.8243 -0.0293  1.6972
13735TIP3   OH262619   4.277   4.784   4.716 -0.1527  0.2553 -0.2826
13735TIP3    H162620   4.300   4.747   4.802  1.5507 -0.0447 -0.8404
13735TIP3    H262621   4.354   4.769   4.662 -1.6374 -0.7052 -2.2735
13736TIP3   OH262622   0.335   3.966   2.499 -0.0511  0.3966 -0.7140
13736TIP3    H162623   0.375   4.010   2.425  1.3068 -0.2151 -0.3681
13736TIP3    H262624   0.241   3.969   2.481  0.1854  1.3095 -1.8520
13737TIP3   OH262625   0.069   1.511  11.070  0.0663  0.1396  0.2429
13737TIP3    H162626   0.099   1.420  11.069 -1.0148 -0.2356  0.4615
13737TIP3    H262627  -0.025   1.505  11.055 -0.4779  1.0441  2.8395
13738TIP3   OH262628   0.690   2.368  11.794 -0.2042  0.1002 -0.1283
13738TIP3    H162629   0.672   2.277  11.814  0.3388  0.5064  2.4863
13738TIP3    H262630   0.633   2.387  11.719  0.4220 -2.5994 -1.4163
13739TIP3   OH262631   6.278   3.380  13.508 -0.6732 -0.2621 -0.2398
13739TIP3    H162632   6.329   3.368  13.588 -3.1059 -1.0563  1.2923
13739TIP3    H262633   6.222   3.455  13.525 -1.6750 -0.8220 -0.9121
13740TIP3   OH262634   2.839   0.714  16.613  0.0036 -0.3060 -0.0338
13740TIP3    H162635   2.895   0.756  16.678 -1.4682  0.6525  0.6718
13740TIP3    H262636   2.822   0.627  16.648 -0.2879 -0.0086  0.5660
13741TIP3   OH262637   1.480   6.281  16.447 -0.1647 -0.6128  0.0355
13741TIP3    H162638   1.437   6.196  16.438  1.5523 -1.5532  0.3928
13741TIP3    H262639   1.525   6.294  16.363 -0.5137  0.0195 -0.0632
13742TIP3   OH262640   4.369   2.121   4.976  0.1695  0.1056  0.2234
13742TIP3    H162641   4.280   2.118   4.941  0.6741  0.2164 -1.1265
13742TIP3    H262642   4.364   2.183   5.049 -0.8048  0.2572  0.0406
13743TIP3   OH262643   4.977   0.127  12.905  0.1312 -0.6202 -0.1112
13743TIP3    H162644   4.910   0.147  12.839 -0.4779 -1.5701  0.2059
13743TIP3    H262645   4.943   0.051  12.952  1.3980 -1.0693  0.1203
13744TIP3   OH262646   6.272   5.222   5.670 -0.2670 -0.2765 -0.1611
13744TIP3    H162647   6.260   5.258   5.758  1.1296 -1.5988  0.6158
13744TIP3    H262648   6.197   5.255   5.620 -2.2240 -1.1380  2.0297
13745TIP3   OH262649   0.399   5.746   5.539  0.0820 -0.0439  0.4953
13745TIP3    H162650   0.408   5.824   5.483  1.8078  0.3212  1.2022
13745TIP3    H262651   0.462   5.761   5.610 -1.6190 -0.7735  2.2259
13746TIP3   OH262652   3.711   3.015   3.886  0.1531  0.3455  0.3488
13746TIP3    H162653   3.748   3.089   3.934 -3.2211  0.6304  2.9183
13746TIP3    H262654   3.627   2.997   3.930 -1.2377 -2.2325 -2.8866
13747TIP3   OH262655   0.361   6.310  11.271 -0.3004  0.0957  0.2964
13747TIP3    H162656   0.268   6.329  11.283 -0.4061 -0.5155  0.4705
13747TIP3    H262657   0.380   6.339  11.182 -0.8771 -0.5974 -0.0601
13748TIP3   OH262658   2.361   0.590  11.200 -0.0002  0.0948 -0.1589
13748TIP3    H162659   2.332   0.604  11.110  0.0734  1.2712 -0.0157
13748TIP3    H262660   2.453   0.567  11.193  0.0469  0.3483 -0.3817
13749TIP3   OH262661   2.002   3.630  12.472 -0.5337 -0.2349  0.2083
13749TIP3    H162662   2.048   3.708  12.504  0.2128  0.8100 -3.0260
13749TIP3    H262663   2.061   3.593  12.406 -2.7652 -0.9297 -1.5333
13750TIP3   OH262664   0.461   5.565  12.348  0.2869  0.1350  0.2576
13750TIP3    H162665   0.411   5.567  12.430 -0.3827 -1.1384 -0.0936
13750TIP3    H262666   0.450   5.652  12.311  1.3517  1.0540  1.9297
13751TIP3   OH262667   1.035   3.154   3.675  0.9647 -0.0445  0.3191
13751TIP3    H162668   1.093   3.079   3.660  3.9857  2.3006 -0.6916
13751TIP3    H262669   1.021   3.154   3.770  2.3438 -0.9145  0.5584
13752TIP3   OH262670   0.399   3.882  13.403 -0.3174  0.2865  0.1939
13752TIP3    H162671   0.481   3.832  13.403 -0.4519  0.0481  0.6479
13752TIP3    H262672   0.338   3.826  13.452 -0.1152  1.4576  1.8955
13753TIP3   OH262673   4.789   2.712  13.611  0.6026 -0.3648 -0.1167
13753TIP3    H162674   4.880   2.682  13.608  0.7119 -0.0914  0.3257
13753TIP3    H262675   4.769   2.717  13.705  0.1044 -0.5007 -0.2133
13754TIP3   OH262676   0.363   4.181   5.928  0.5978 -0.6104  0.9110
13754TIP3    H162677   0.323   4.212   6.009 -0.9680  0.0905 -0.0930
13754TIP3    H262678   0.305   4.110   5.898  0.5033 -0.0902 -0.1781
13755TIP3   OH262679   5.854   6.449   1.011  0.2623 -0.5348 -0.3447
13755TIP3    H162680   5.813   6.534   1.028 -0.2431 -0.6455 -0.9443
13755TIP3    H262681   5.789   6.402   0.959  0.1441 -1.6464  0.7611
13756TIP3   OH262682   4.750   0.291   5.589 -0.2207  0.2086 -0.0122
13756TIP3    H162683   4.657   0.270   5.581 -0.8618  3.1871 -1.6115
13756TIP3    H262684   4.787   0.266   5.505  0.1892  0.1211  0.1931
13757TIP3   OH262685   5.642   0.912  17.041 -0.2587 -0.1429 -0.1828
13757TIP3    H162686   5.642   0.853  17.116 -2.8576 -1.1271 -0.8559
13757TIP3    H262687   5.603   0.993  17.072 -1.1738 -0.4897 -0.4123
13758TIP3   OH262688   4.578   0.128   1.479 -1.0431 -0.1074 -0.4981
13758TIP3    H162689   4.492   0.106   1.444 -0.4503 -2.8977 -0.4166
13758TIP3    H262690   4.613   0.044   1.510  0.7042  1.3358  1.7438
13759TIP3   OH262691   2.369   3.092  14.653  0.3108 -0.6727 -0.4523
13759TIP3    H162692   2.374   3.102  14.748 -2.5903  0.5045 -0.3028
13759TIP3    H262693   2.341   3.178  14.621  2.2679 -0.7103 -2.5587
13760TIP3   OH262694   1.629   1.052  11.391 -0.6347 -0.2196 -0.6059
13760TIP3    H162695   1.554   1.111  11.393 -0.0128  0.5729 -0.0757
13760TIP3    H262696   1.652   1.046  11.298  0.0262  1.3454 -0.5760
13761TIP3   OH262697   2.583   2.011   1.911 -0.0230 -0.2275  0.0191
13761TIP3    H162698   2.617   2.052   1.991  0.6496 -0.1196 -0.3129
13761TIP3    H262699   2.488   2.016   1.920  0.0389 -0.7452  1.0856
13762TIP3   OH262700   3.980   4.092  14.013  0.2121 -0.4140  0.5471
13762TIP3    H162701   4.030   4.081  14.094 -0.4687 -1.6642  0.8210
13762TIP3    H262702   3.934   4.175  14.024 -0.9078 -1.1924  2.0396
13763TIP3   OH262703   2.784   5.358   1.174 -0.2967 -0.2949  0.1216
13763TIP3    H162704   2.750   5.413   1.245  1.9643  0.8162  0.4336
13763TIP3    H262705   2.804   5.274   1.216  0.7072  0.2450  0.7532
13764TIP3   OH262706   0.615   0.080   1.396  0.1523  0.1204  0.5041
13764TIP3    H162707   0.703   0.062   1.364  0.0708  0.1985  0.2331
13764TIP3    H262708   0.586   0.156   1.345 -0.4830 -0.5579 -0.1775
13765TIP3   OH262709   0.108   1.602  12.098 -0.3656  0.0707  0.0791
13765TIP3    H162710   0.024   1.646  12.086 -0.4472 -0.0277  0.2848
13765TIP3    H262711   0.086   1.509  12.105 -0.0495 -0.2431 -2.1848
13766TIP3   OH262712   1.003   3.182  14.375  0.0839 -0.4803  0.9421
13766TIP3    H162713   0.914   3.212  14.357 -0.3972 -0.9158  2.4607
13766TIP3    H262714   1.010   3.099  14.328  0.1583  0.1606 -0.2330
13767TIP3   OH262715   2.351   2.725   3.015 -0.2922  0.4446  0.0112
13767TIP3    H162716   2.432   2.678   2.995 -1.5980 -1.3453 -1.4243
13767TIP3    H262717   2.337   2.782   2.940 -0.1587  1.0950  0.4682
13768TIP3   OH262718   2.915   3.919  15.749 -0.3276 -0.3319 -0.3874
13768TIP3    H162719   2.900   4.013  15.763 -0.6782 -0.5313  0.5958
13768TIP3    H262720   2.903   3.879  15.835 -1.5265 -1.4615 -1.0427
13769TIP3   OH262721   3.649   3.616  14.313  0.2080  0.3866 -0.4393
13769TIP3    H162722   3.720   3.566  14.354 -0.7855  0.4810  1.5186
13769TIP3    H262723   3.676   3.707  14.320  1.4034  0.2756 -2.7962
13770TIP3   OH262724   6.459   0.185  13.678 -0.1374  0.2858 -0.1515
13770TIP3    H162725   6.458   0.277  13.704 -0.8925  0.3830 -0.4953
13770TIP3    H262726   6.378   0.173  13.628  0.1657 -0.4587 -0.4829
13771TIP3   OH262727   2.297   3.298  14.488  0.4600 -0.1880 -0.1056
13771TIP3    H162728   2.251   3.247  14.422  0.2602 -0.0614 -0.0649
13771TIP3    H262729   2.369   3.340  14.440  0.2182  0.0347 -0.2785
13772TIP3   OH262730   5.577   4.111  14.921  0.6187 -0.0569  0.0688
13772TIP3    H162731   5.557   4.095  14.829 -0.8168  0.1512  0.3305
13772TIP3    H262732   5.585   4.206  14.928  0.1150 -0.0315  0.2802
13773TIP3   OH262733   0.162   4.067   3.864  0.3861 -0.1883  0.0434
13773TIP3    H162734   0.197   3.985   3.898 -1.2224 -1.0699 -0.3642
13773TIP3    H262735   0.211   4.135   3.911  2.8443 -1.3108 -0.7094
13774TIP3   OH262736   4.725   2.354   3.913  0.1517 -0.2410 -0.3845
13774TIP3    H162737   4.653   2.404   3.875 -0.5474  0.3398  1.6236
13774TIP3    H262738   4.802   2.381   3.862 -0.2997  2.4576  0.2037
13775TIP3   OH262739   1.421   3.211   3.794 -0.2319 -0.5496 -0.1707
13775TIP3    H162740   1.516   3.199   3.795  0.0773  1.5561 -0.0783
13775TIP3    H262741   1.393   3.181   3.881  0.5077 -0.1746  0.2126
13776TIP3   OH262742   2.750   2.231  10.503  0.1361  0.4586 -0.2042
13776TIP3    H162743   2.809   2.247  10.576 -0.1076  2.5561 -0.3984
13776TIP3    H262744   2.787   2.282  10.430 -0.8354  0.2156 -0.8929
13777TIP3   OH262745   3.239   1.169   2.037 -0.1651  0.2937 -0.2554
13777TIP3    H162746   3.145   1.154   2.047 -0.4816  2.2062  0.1000
13777TIP3    H262747   3.262   1.226   2.111  0.3232  3.4983 -2.6396
13778TIP3   OH262748   0.480   2.153   5.780  0.1798 -0.3322  0.1196
13778TIP3    H162749   0.520   2.240   5.777  1.4846 -0.9193 -0.6877
13778TIP3    H262750   0.411   2.156   5.714  0.6307 -0.0928 -0.3455
13779TIP3   OH262751   5.911   4.402  12.348 -0.3326  0.0456  0.2452
13779TIP3    H162752   5.849   4.329  12.342 -0.2177 -0.3639  2.8740
13779TIP3    H262753   5.930   4.410  12.442  0.9030  2.4338 -0.1229
13780TIP3   OH262754   1.288   2.142  12.643 -0.4500 -0.1042 -0.3169
13780TIP3    H162755   1.337   2.139  12.560 -1.8197 -0.4826 -1.1528
13780TIP3    H262756   1.299   2.055  12.681  0.4228  0.1598  0.0688
13781TIP3   OH262757   6.792   3.741   4.735 -0.0292 -0.4178 -0.1748
13781TIP3    H162758   6.798   3.813   4.673 -0.2525  1.0695  1.4487
13781TIP3    H262759   6.859   3.679   4.707 -0.2807  0.0824 -1.9999
13782TIP3   OH262760   6.115   6.776  16.553 -0.1267 -0.4969  0.1998
13782TIP3    H162761   6.052   6.711  16.584 -0.8650 -0.1011 -0.4268
13782TIP3    H262762   6.089   6.858  16.596  0.5937 -0.5342  0.7249
13783TIP3   OH262763   0.538   6.146   4.950  0.3599 -0.5772 -0.9151
13783TIP3    H162764   0.632   6.148   4.968  0.0571  0.6536  0.8709
13783TIP3    H262765   0.499   6.107   5.028 -0.9128  3.1999  0.6265
13784TIP3   OH262766   0.176   6.531   3.253 -0.0079 -0.5166  0.2306
13784TIP3    H162767   0.195   6.477   3.330 -0.5387  0.5089  1.1044
13784TIP3    H262768   0.192   6.473   3.178  0.2871 -1.6031  1.1141
13785TIP3   OH262769   1.095   2.121  16.283  0.2515 -0.0522 -0.0120
13785TIP3    H162770   1.183   2.136  16.319 -0.6157  0.8452  1.8389
13785TIP3    H262771   1.036   2.158  16.348 -1.5447 -1.1574 -0.9531
13786TIP3   OH262772   4.496   1.237  12.842 -0.0818 -0.3415 -0.1631
13786TIP3    H162773   4.583   1.249  12.879  0.1669 -3.2502  0.4038
13786TIP3    H262774   4.438   1.281  12.905  0.6905 -1.7068  1.5713
13787TIP3   OH262775   3.329   4.794   4.721 -0.2356  0.4168 -0.5717
13787TIP3    H162776   3.285   4.816   4.803  0.2121  0.9627 -0.4717
13787TIP3    H262777   3.369   4.876   4.693  1.7386 -0.3008 -0.0351
13788TIP3   OH262778   4.748   5.573  12.820  0.5704  0.2178 -0.1607
13788TIP3    H162779   4.721   5.483  12.799  0.2059  0.6565 -1.7423
13788TIP3    H262780   4.720   5.586  12.911 -0.8103 -0.7488 -0.4160
13789TIP3   OH262781   6.172   2.660  11.258 -0.5820  0.4187 -0.4595
13789TIP3    H162782   6.081   2.684  11.238 -0.7125 -0.9923 -1.7801
13789TIP3    H262783   6.218   2.671  11.175  0.1489 -0.1577 -0.1397
13790TIP3   OH262784   6.138   6.439  10.929 -0.3847  0.2686 -0.4638
13790TIP3    H162785   6.081   6.503  10.972 -0.4168  1.1896 -1.8127
13790TIP3    H262786   6.154   6.476  10.842  1.5217 -0.4174 -0.4585
13791TIP3   OH262787   6.074   2.524   1.132  0.0165 -0.2754  0.1273
13791TIP3    H162788   6.118   2.494   1.053 -0.7395  0.7896 -0.7148
13791TIP3    H262789   5.996   2.468   1.139 -0.1004 -0.1386 -0.0777
13792TIP3   OH262790   0.868   3.459  16.513 -0.1011 -0.1518  0.1929
13792TIP3    H162791   0.829   3.498  16.592 -0.4723  0.4700 -0.2789
13792TIP3    H262792   0.890   3.535  16.459  2.2865 -0.4523  0.6518
13793TIP3   OH262793   0.844   5.096  11.170 -0.6631  0.2604  0.0281
13793TIP3    H162794   0.800   5.030  11.224 -0.2521  0.6520  0.8619
13793TIP3    H262795   0.816   5.180  11.207  1.6939  0.5456  1.4335
13794TIP3   OH262796   1.052   0.657   5.188  0.4006  0.0186  0.5250
13794TIP3    H162797   0.991   0.696   5.250 -1.0894  0.3855 -1.0740
13794TIP3    H262798   1.088   0.732   5.139  0.4650 -0.3412  0.0038
13795TIP3   OH262799   3.890   6.698   4.634 -0.0229 -0.1181 -0.3206
13795TIP3    H162800   3.879   6.693   4.539 -1.3221 -1.0546 -0.1485
13795TIP3    H262801   3.877   6.791   4.654 -2.0974 -0.2437 -0.8443
13796TIP3   OH262802   6.125   2.397   3.111 -0.2543 -0.3342 -0.5555
13796TIP3    H162803   6.099   2.350   3.032  1.1915  0.2400 -1.4275
13796TIP3    H262804   6.196   2.344   3.147  0.4190  0.4102 -0.7549
13797TIP3   OH262805   1.153   3.479   1.684 -0.3768 -0.3562  0.5127
13797TIP3    H162806   1.227   3.418   1.675 -0.8721 -0.9116  0.1595
13797TIP3    H262807   1.152   3.501   1.777 -0.1426 -0.8255  0.6326
13798TIP3   OH262808   4.086   2.629  15.434  0.6972  0.5525 -0.0424
13798TIP3    H162809   4.039   2.674  15.363 -1.0942 -1.1630 -0.0287
13798TIP3    H262810   4.089   2.538  15.407 -0.0480 -0.1527  2.0692
13799TIP3   OH262811   2.226   0.581  15.556 -0.3280  0.3189  0.1153
13799TIP3    H162812   2.315   0.617  15.553 -0.2957  0.2942  0.6961
13799TIP3    H262813   2.169   0.657  15.559 -0.3387  0.3372 -0.3962
13800TIP3   OH262814   1.415   2.953  16.202 -0.6499  0.3250 -0.9392
13800TIP3    H162815   1.450   2.884  16.259  0.1753  1.2027 -0.3470
13800TIP3    H262816   1.363   2.906  16.137 -3.1354 -0.6476  1.5346
13801TIP3   OH262817   4.590   0.577  14.181  0.0093  0.2254  0.2930
13801TIP3    H162818   4.557   0.505  14.234 -0.8583  1.5384  1.6283
13801TIP3    H262819   4.604   0.648  14.244  0.5815  1.3132 -1.0139
13802TIP3   OH262820   5.106   3.939   5.225 -1.0008 -0.1431  0.3660
13802TIP3    H162821   5.049   3.952   5.302  0.6619 -0.2997  1.6669
13802TIP3    H262822   5.077   3.856   5.187 -1.1690 -0.5909  1.4466
13803TIP3   OH262823   0.982   5.488  11.843 -0.5775 -0.9451 -0.0915
13803TIP3    H162824   0.980   5.582  11.863 -1.0234 -0.7781 -0.8893
13803TIP3    H262825   0.921   5.478  11.770 -0.1191 -1.7728 -0.3679
13804TIP3   OH262826   4.615   0.095   3.228  0.2806  0.1481  0.4361
13804TIP3    H162827   4.526   0.129   3.228  0.2186 -0.0185  0.6275
13804TIP3    H262828   4.635   0.081   3.135 -0.1420 -0.4774  0.4364
13805TIP3   OH262829   2.919   1.061  17.100 -0.0649 -0.4136  0.0424
13805TIP3    H162830   2.953   1.070  17.011 -0.1471 -0.8556 -0.0341
13805TIP3    H262831   2.845   1.122  17.103 -1.4631 -1.9625 -0.9051
13806TIP3   OH262832   1.222   5.709   3.560  0.3982 -0.2963 -0.1891
13806TIP3    H162833   1.227   5.701   3.656  0.9506  1.4213 -0.0233
13806TIP3    H262834   1.144   5.763   3.545  0.9859  0.4539 -0.6073
13807TIP3   OH262835   5.411   3.288   1.023  0.8271  0.1025 -0.0876
13807TIP3    H162836   5.343   3.316   0.962  1.7800  2.4041 -0.1917
13807TIP3    H262837   5.371   3.295   1.109 -0.0838 -1.8520 -0.2809
13808TIP3   OH262838   6.676   2.050   1.468 -0.2077  0.3682  0.1959
13808TIP3    H162839   6.649   2.032   1.378  2.7203 -3.9170 -0.1158
13808TIP3    H262840   6.605   2.015   1.522  0.1470 -1.6388 -0.5538
13809TIP3   OH262841   1.303   5.181  16.064 -0.5282 -0.0206 -0.0395
13809TIP3    H162842   1.267   5.095  16.082  1.4929 -0.7093  1.0807
13809TIP3    H262843   1.372   5.166  15.999 -1.3963  1.0553 -1.2574
13810TIP3   OH262844   1.834   6.123  14.034 -0.3980  0.1684  0.1813
13810TIP3    H162845   1.750   6.100  13.993  0.2137  0.7501 -1.4896
13810TIP3    H262846   1.864   6.200  13.985  0.5985  0.6446  1.4761
13811TIP3   OH262847   3.261   2.278   1.432  0.6036 -0.5099  0.3882
13811TIP3    H162848   3.280   2.220   1.506  4.9970  1.4447  1.1250
13811TIP3    H262849   3.283   2.226   1.355  0.8539 -0.9842  0.7724
13812TIP3   OH262850   4.797   3.279  10.706  0.2461 -0.0077  0.0659
13812TIP3    H162851   4.848   3.336  10.648  0.3843 -0.4350 -0.2279
13812TIP3    H262852   4.854   3.268  10.783 -0.6298  1.9809  1.0862
13813TIP3   OH262853   3.044   1.276  14.702  0.0182  0.3898  0.2528
13813TIP3    H162854   3.039   1.356  14.754  1.4110  0.3670  0.4476
13813TIP3    H262855   3.135   1.270  14.675  0.4500 -2.1481  1.9034
13814TIP3   OH262856   6.046   1.778  10.396 -0.2371 -0.5416 -0.1298
13814TIP3    H162857   6.115   1.789  10.462 -1.3409 -1.2962  1.2046
13814TIP3    H262858   5.992   1.856  10.405 -1.0232 -1.1534  0.6834
13815TIP3   OH262859   0.622   6.607  12.364 -0.2315  0.0352  0.5306
13815TIP3    H162860   0.650   6.651  12.445 -0.1959 -0.5809  0.8572
13815TIP3    H262861   0.689   6.540  12.349 -1.2216 -1.1053  1.0336
13816TIP3   OH262862   4.682   4.064  16.587  0.3516  0.3177 -0.4847
13816TIP3    H162863   4.700   4.157  16.580 -0.5699  0.5435 -0.0065
13816TIP3    H262864   4.588   4.058  16.605 -0.0679 -0.7882 -2.6290
13817TIP3   OH262865   1.161   2.328  10.647  0.3038  0.0747 -0.2229
13817TIP3    H162866   1.223   2.281  10.703 -2.1285 -1.1509  1.6224
13817TIP3    H262867   1.216   2.383  10.591  2.9667  1.0371  3.0205
13818TIP3   OH262868   6.545   2.102   2.015 -0.0302 -0.3087  0.0320
13818TIP3    H162869   6.517   2.011   2.001 -0.9052  0.0867 -0.8486
13818TIP3    H262870   6.576   2.103   2.106  0.3682 -1.5804 -0.0644
13819TIP3   OH262871   5.168   1.908  14.466  0.1558 -0.4316  0.3981
13819TIP3    H162872   5.125   1.941  14.545 -1.5939 -2.9345  0.6038
13819TIP3    H262873   5.097   1.893  14.404  1.1749 -1.1959 -0.6387
13820TIP3   OH262874   4.457   2.172   3.045  0.9337 -0.7661 -0.0498
13820TIP3    H162875   4.462   2.251   2.992 -0.8258 -0.1493  0.6206
13820TIP3    H262876   4.389   2.119   3.002  2.5909 -2.2902 -0.9166
13821TIP3   OH262877   3.868   1.265   3.870 -0.3687 -0.2133  0.2245
13821TIP3    H162878   3.893   1.175   3.891  1.9631  0.1455 -0.7701
13821TIP3    H262879   3.808   1.290   3.940 -0.3100 -2.2071  1.0454
13822TIP3   OH262880   4.964   2.056  11.402 -0.9812 -0.4746 -0.1464
13822TIP3    H162881   4.969   2.049  11.497  0.5583  1.5661 -0.0281
13822TIP3    H262882   4.936   2.146  11.386 -2.0694 -1.0381 -1.6421
13823TIP3   OH262883   2.999   0.355   5.531 -0.6858 -1.1406  0.0503
13823TIP3    H162884   2.999   0.442   5.572 -1.3353 -0.4923 -1.2483
13823TIP3    H262885   2.959   0.298   5.596 -0.4831 -0.4173  0.8280
13824TIP3   OH262886   0.196   4.986  14.094  0.4363  0.2444 -0.2805
13824TIP3    H162887   0.178   4.929  14.169 -2.4855 -1.0286 -1.7976
13824TIP3    H262888   0.273   4.947  14.052  0.4703 -0.6050  0.5536
13825TIP3   OH262889   2.910   2.044  15.895 -0.0789  0.5888  0.2247
13825TIP3    H162890   2.966   2.054  15.972 -0.8947 -0.3308  0.9598
13825TIP3    H262891   2.830   2.092  15.917 -0.2286  0.5113 -0.1391
13826TIP3   OH262892   4.749   1.185  11.244  0.0521 -0.1490 -0.2922
13826TIP3    H162893   4.835   1.223  11.225  0.0428  0.2223  0.3666
13826TIP3    H262894   4.704   1.253  11.296 -0.4151 -0.5798 -0.1273
13827TIP3   OH262895   3.012   2.337  14.513 -0.3505  0.4112 -0.0726
13827TIP3    H162896   2.936   2.280  14.523 -0.6505  1.0124  1.2143
13827TIP3    H262897   2.976   2.424  14.497  0.0948  0.1557 -3.1982
13828TIP3   OH262898   2.843   3.111   4.812 -0.3274 -0.5522 -0.4325
13828TIP3    H162899   2.765   3.127   4.865  0.3690 -1.1680  0.8360
13828TIP3    H262900   2.824   3.153   4.728 -1.1765  1.1084  0.5351
13829TIP3   OH262901   5.530   1.237   5.102 -0.0323 -0.4626  0.5146
13829TIP3    H162902   5.489   1.164   5.055  0.4584 -0.1164 -0.4775
13829TIP3    H262903   5.459   1.280   5.148 -0.5287 -0.8117  0.0807
13830TIP3   OH262904   6.474   3.733  13.939  0.7730 -0.5750 -0.7983
13830TIP3    H162905   6.478   3.683  13.858 -2.5034  0.3620 -1.6932
13830TIP3    H262906   6.382   3.761  13.945  1.1515  0.3516  2.6639
13831TIP3   OH262907   0.416   2.392   2.221 -0.0240  0.0854  0.3022
13831TIP3    H162908   0.499   2.369   2.264  1.6152 -0.6111 -2.9036
13831TIP3    H262909   0.434   2.477   2.180 -0.9706  0.0330 -0.2427
13832TIP3   OH262910   1.386   3.670  15.256  0.6364  0.4141 -0.3334
13832TIP3    H162911   1.395   3.700  15.166 -0.9654  0.9202 -0.3631
13832TIP3    H262912   1.319   3.601  15.252 -0.2044  1.1316  0.5755
13833TIP3   OH262913   5.975   1.901  13.074 -0.2908  0.8869  0.2039
13833TIP3    H162914   5.924   1.832  13.030  0.4513  1.4321 -1.6224
13833TIP3    H262915   5.910   1.966  13.100 -0.7616  0.5704 -0.1658
13834TIP3   OH262916   1.226   2.173   5.228  1.0197 -0.0514  0.2529
13834TIP3    H162917   1.159   2.119   5.272  0.6761 -0.6338 -0.9338
13834TIP3    H262918   1.309   2.137   5.259  0.8129  1.0347  2.1676
13835TIP3   OH262919   2.481   0.770  16.421 -0.3948 -0.1614  0.1723
13835TIP3    H162920   2.446   0.841  16.474  0.9653  0.2848  0.5129
13835TIP3    H262921   2.424   0.766  16.344 -2.0149 -0.4025  1.3485
13836TIP3   OH262922   3.690   4.267  14.154 -0.7026 -0.0401 -0.3397
13836TIP3    H162923   3.757   4.302  14.095 -0.9043  0.4417 -0.2847
13836TIP3    H262924   3.616   4.248  14.097 -0.2706 -1.2878 -0.5239
13837TIP3   OH262925   6.268   0.392  13.250  0.3712 -0.2130  0.1580
13837TIP3    H162926   6.184   0.347  13.249  0.9874 -1.5067  1.8726
13837TIP3    H262927   6.325   0.337  13.303  1.7778  1.5524  0.6009
13838TIP3   OH262928   1.452   3.018  12.694 -0.3038 -0.3191  0.1946
13838TIP3    H162929   1.429   3.091  12.752 -1.1181 -0.4413  0.0422
13838TIP3    H262930   1.533   2.983  12.731 -0.0895  0.4467  0.4694
13839TIP3   OH262931   2.942   2.225   5.269  0.5437  0.3175 -0.2609
13839TIP3    H162932   3.011   2.162   5.247  1.6755  1.5933 -0.5048
13839TIP3    H262933   2.863   2.189   5.229  1.6829  0.3569 -2.7254
13840TIP3   OH262934   6.692   6.688  15.153 -0.0028 -0.1017  0.2115
13840TIP3    H162935   6.665   6.775  15.124 -1.8178 -1.0061 -1.0208
13840TIP3    H262936   6.745   6.654  15.081  1.9756  0.4928  1.3212
13841TIP3   OH262937   4.029   5.723   4.036 -0.3300 -0.3379  0.6203
13841TIP3    H162938   4.121   5.730   4.062  0.1076  2.5692 -1.1762
13841TIP3    H262939   3.981   5.772   4.103 -0.1455  0.6809  0.0342
13842TIP3   OH262940   4.878   6.479  11.991  0.6457  0.3694 -0.3890
13842TIP3    H162941   4.882   6.443  11.902  0.0251 -0.6512 -0.0210
13842TIP3    H262942   4.969   6.473  12.023  0.5223 -1.1288 -0.2558
13843TIP3   OH262943   5.348   6.516  16.611 -0.3018 -0.6050  0.0849
13843TIP3    H162944   5.379   6.603  16.637 -2.2135  0.3616 -0.6619
13843TIP3    H262945   5.273   6.500  16.668 -0.3252 -1.5197 -0.1963
13844TIP3   OH262946   0.164   3.986   0.152  0.0016 -0.0621  0.3082
13844TIP3    H162947   0.153   3.917   0.087  2.6268  0.2594 -0.6407
13844TIP3    H262948   0.140   3.946   0.235 -1.7654 -1.0246 -0.6178
13845TIP3   OH262949   5.765   2.853   2.003 -0.1113  0.4064  0.6296
13845TIP3    H162950   5.691   2.874   1.947 -0.0806 -0.1042  0.3859
13845TIP3    H262951   5.790   2.764   1.977 -0.6422 -0.1862  2.0447
13846TIP3   OH262952   2.910   0.084   4.107  0.0071 -0.4080 -0.1455
13846TIP3    H162953   2.932   0.150   4.041 -3.0085  0.8370 -0.0551
13846TIP3    H262954   2.978   0.094   4.173  0.3202  1.8109 -0.7186
13847TIP3   OH262955   3.314   1.171   1.241 -0.3945  0.7264 -0.0739
13847TIP3    H162956   3.316   1.148   1.148  0.7120  1.4429 -0.2499
13847TIP3    H262957   3.406   1.166   1.269 -0.8612 -0.9215  1.3681
13848TIP3   OH262958   6.789   6.001  16.476 -0.2481  0.2515  0.4228
13848TIP3    H162959   6.802   6.086  16.434  2.3547 -1.2742 -2.3271
13848TIP3    H262960   6.850   6.002  16.550 -0.0730  0.7182  0.2791
13849TIP3   OH262961   3.407   1.029  16.737 -0.6648 -0.2461 -0.0642
13849TIP3    H162962   3.359   1.109  16.714  0.5518  0.5128 -0.0197
13849TIP3    H262963   3.441   1.045  16.825 -0.5736 -0.8991  0.0268
13850TIP3   OH262964   3.992   2.718   3.448  0.1228 -0.2187 -0.3082
13850TIP3    H162965   3.904   2.706   3.483 -0.3083  1.5726 -0.6313
13850TIP3    H262966   4.047   2.727   3.525 -0.3480  0.7891 -0.0679
13851TIP3   OH262967   3.236   6.578  16.166 -0.3824 -0.0958  0.2189
13851TIP3    H162968   3.304   6.610  16.226 -0.1957 -4.0241  2.5040
13851TIP3    H262969   3.285   6.528  16.100 -0.8674 -0.3313  0.0336
13852TIP3   OH262970   5.992   5.770  16.844  0.4478  0.3542  0.3015
13852TIP3    H162971   5.993   5.704  16.775  0.6052  1.4674 -0.7959
13852TIP3    H262972   5.952   5.847  16.804  2.4314  1.7253  0.7594
13853TIP3   OH262973   1.761   4.540   3.671 -0.3989 -0.0600  0.5628
13853TIP3    H162974   1.755   4.510   3.761 -0.0924 -0.9077  0.3128
13853TIP3    H262975   1.765   4.460   3.619  2.5706  0.2991  0.0182
13854TIP3   OH262976   0.976   0.906   4.581 -0.5116 -0.1187  0.0586
13854TIP3    H162977   1.046   0.877   4.522 -0.1091  1.1649 -0.1164
13854TIP3    H262978   0.899   0.914   4.524 -0.0685  1.3474 -0.3825
13855TIP3   OH262979   3.099   6.274   3.964  0.4281 -0.2246  0.8178
13855TIP3    H162980   3.096   6.180   3.945  1.8653 -0.4026  1.3463
13855TIP3    H262981   3.130   6.314   3.883  0.6176 -0.2958  0.8559
13856TIP3   OH262982   5.943   1.496  11.478 -0.2220  0.1789 -0.0486
13856TIP3    H162983   5.957   1.588  11.456  1.1546 -0.3168 -1.3665
13856TIP3    H262984   6.016   1.473  11.535 -0.0752 -0.3307 -0.4397
13857TIP3   OH262985   5.967   5.080   5.755 -0.0432 -0.3281 -0.4292
13857TIP3    H162986   6.044   5.031   5.725  0.8208  0.5905  0.2380
13857TIP3    H262987   5.936   5.031   5.831  0.8333  0.1502  0.2523
13858TIP3   OH262988   4.816   2.587   2.756  0.0986  0.1733 -0.0375
13858TIP3    H162989   4.753   2.572   2.826 -0.6321 -0.4452 -0.8051
13858TIP3    H262990   4.802   2.678   2.729  0.2476  0.3516  0.4776
13859TIP3   OH262991   1.558   5.985  11.321 -0.5789  0.2885 -0.6591
13859TIP3    H162992   1.466   6.008  11.317 -0.8388 -0.8145 -1.6057
13859TIP3    H262993   1.604   6.063  11.292 -1.2092  0.8466 -0.1782
13860TIP3   OH262994   4.028   3.371   2.122  0.3670  0.1472  0.2549
13860TIP3    H162995   4.115   3.399   2.149  0.2274  1.4601 -0.5733
13860TIP3    H262996   3.975   3.377   2.201  0.8272  0.2431  0.5562
13861TIP3   OH262997   6.299   1.882  14.466  0.3597  0.2603 -0.1123
13861TIP3    H162998   6.368   1.935  14.504  1.8307 -1.2225 -0.6121
13861TIP3    H262999   6.273   1.822  14.537 -0.7012  1.0137  0.1787
13862TIP3   OH263000   0.981   3.145   5.213  0.0827  0.1491 -0.0820
13862TIP3    H163001   0.952   3.177   5.298 -2.2177 -1.4276 -0.1936
13862TIP3    H263002   0.994   3.224   5.160 -0.8291  1.0561  1.0055
13863TIP3   OH263003   3.431   0.980  15.174  0.4699 -0.3926 -0.9367
13863TIP3    H163004   3.485   1.005  15.249  1.2295 -2.5182 -0.6900
13863TIP3    H263005   3.367   1.050  15.166  1.5498  0.8312  0.5150
13864TIP3   OH263006   6.264   3.769  13.574 -0.0847 -0.0655 -0.3265
13864TIP3    H163007   6.205   3.820  13.518  1.2865  5.0455  2.2406
13864TIP3    H263008   6.351   3.784  13.538  0.3981 -0.3420  0.6855
13865TIP3   OH263009   4.487   1.930  15.967 -0.5057  0.3410  0.4224
13865TIP3    H163010   4.454   1.851  15.923  0.9749  0.1866 -0.4743
13865TIP3    H263011   4.492   1.996  15.898  1.8828  0.0929  0.2773
13866TIP3   OH263012   3.332   5.513  13.095  0.0355 -0.2744  0.2551
13866TIP3    H163013   3.242   5.540  13.117 -0.4209 -2.0245  0.6809
13866TIP3    H263014   3.323   5.423  13.063  1.6049 -0.3345 -0.0938
13867TIP3   OH263015   3.394   0.049  16.052  0.4747 -0.2771  0.3282
13867TIP3    H163016   3.430   0.022  16.137  0.6500 -0.7378  0.1157
13867TIP3    H263017   3.374  -0.034  16.008  0.7481 -0.0531 -0.2319
13868TIP3   OH263018   2.136   0.279   0.906 -0.0653 -0.2520  0.0592
13868TIP3    H163019   2.203   0.240   0.962 -0.9515 -0.4947  1.0042
13868TIP3    H263020   2.153   0.373   0.910  1.1471 -0.4067 -0.9803
13869TIP3   OH263021   2.683   3.345   0.247  0.0783  0.8419 -0.0477
13869TIP3    H163022   2.698   3.330   0.154 -3.4846  0.8067 -0.7561
13869TIP3    H263023   2.731   3.426   0.266  1.1595  0.6642 -1.7938
13870TIP3   OH263024   6.538   4.855   5.342  0.5531  0.3469  0.5590
13870TIP3    H163025   6.502   4.889   5.424 -0.7372  1.3184 -0.3510
13870TIP3    H263026   6.498   4.769   5.332  0.3382  0.4246  0.7314
13871TIP3   OH263027   4.317   3.184   0.475 -1.0162  0.0158  0.2000
13871TIP3    H163028   4.382   3.123   0.511  1.1308  1.4721 -1.0272
13871TIP3    H263029   4.236   3.160   0.519  0.1340 -2.4573  1.1756
13872TIP3   OH263030   6.489   6.373  15.963 -0.0899  0.1145  0.7221
13872TIP3    H163031   6.554   6.316  15.922 -1.5106  0.5993 -2.5911
13872TIP3    H263032   6.444   6.317  16.026  1.5541 -1.0427  0.9401
13873TIP3   OH263033   1.334   5.397  15.217  0.4324  0.0592 -0.4853
13873TIP3    H163034   1.245   5.432  15.213 -0.5736 -2.2623 -0.2933
13873TIP3    H263035   1.363   5.391  15.126  1.3288  2.8140 -0.4786
13874TIP3   OH263036   6.783   3.971  12.857 -0.0903  0.6241 -0.0855
13874TIP3    H163037   6.861   3.960  12.802 -0.1089  1.6074 -0.3322
13874TIP3    H263038   6.807   4.040  12.919 -1.0993  1.6588 -0.8188
13875TIP3   OH263039   5.290   2.497  12.083  0.7479  0.8502 -0.2745
13875TIP3    H163040   5.209   2.467  12.125  0.4738  2.2343  0.2715
13875TIP3    H263041   5.270   2.585  12.053  2.6106  2.0815  1.7107
13876TIP3   OH263042   1.561   0.524   0.383  0.0939  0.0789 -0.2794
13876TIP3    H163043   1.511   0.555   0.308  0.5729 -2.0660 -1.5744
13876TIP3    H263044   1.652   0.545   0.361  0.1475  0.2496  0.1097
13877TIP3   OH263045   4.297   5.755   4.152 -0.3497  0.4885 -0.0499
13877TIP3    H163046   4.347   5.713   4.222  0.5454  1.4050 -0.1067
13877TIP3    H263047   4.358   5.760   4.078 -0.5635  1.4492 -0.1841
13878TIP3   OH263048   1.160   3.302  16.778  0.2941  0.3609  0.5116
13878TIP3    H163049   1.143   3.391  16.749  0.5616  1.5589  3.6423
13878TIP3    H263050   1.081   3.276  16.824  0.2877 -0.9981 -0.2107
13879TIP3   OH263051   3.812   5.230   5.077 -0.6200 -0.5076  0.1038
13879TIP3    H163052   3.840   5.138   5.070 -1.1962 -0.7003  0.2704
13879TIP3    H263053   3.872   5.269   5.140  0.6780 -0.3458 -1.1666
13880TIP3   OH263054   5.767   4.575   4.909 -0.6648  0.2697 -0.4879
13880TIP3    H163055   5.737   4.516   4.841 -1.5707  0.4283 -0.2474
13880TIP3    H263056   5.690   4.588   4.965 -0.7530  2.2742 -0.9670
13881TIP3   OH263057   4.865   1.608   3.296  0.7732 -0.1613 -0.2686
13881TIP3    H163058   4.830   1.529   3.336  0.9505 -0.0456  0.1186
13881TIP3    H263059   4.819   1.679   3.339  0.4342 -0.0567 -0.7910
13882TIP3   OH263060   2.689   3.518   5.222  0.3974 -0.3314 -0.1891
13882TIP3    H163061   2.720   3.551   5.138 -0.5378  2.0959  0.3451
13882TIP3    H263062   2.764   3.528   5.281  1.0843 -2.1243 -0.7054
13883TIP3   OH263063   3.447   0.987  16.468 -0.1895  0.2405  0.4294
13883TIP3    H163064   3.488   0.905  16.438 -0.6821  0.4120 -0.7825
13883TIP3    H263065   3.406   0.964  16.551 -0.4345 -0.7975  0.0414
13884TIP3   OH263066   3.437   3.946   0.419 -0.0005 -0.0860  0.3551
13884TIP3    H163067   3.508   3.988   0.370  1.2035  0.3231  2.3249
13884TIP3    H263068   3.363   4.006   0.411  1.1524  1.5998  1.6104
13885TIP3   OH263069   5.667   1.474   1.166  0.3732 -0.3147  0.1294
13885TIP3    H163070   5.581   1.503   1.134 -0.4417 -1.8069  0.8767
13885TIP3    H263071   5.715   1.556   1.180 -0.8376  0.5505 -0.5191
13886TIP3   OH263072   5.957   3.080   5.865  0.4336  0.6026  0.6752
13886TIP3    H163073   5.923   3.164   5.895  0.8027  0.8397  0.4351
13886TIP3    H263074   6.052   3.087   5.876  0.3898 -0.2963  1.9679
13887TIP3   OH263075   2.288   6.688   6.507 -0.5679 -0.0370  0.5481
13887TIP3    H163076   2.338   6.752   6.457  0.9554  1.3417  3.5976
13887TIP3    H263077   2.351   6.651   6.570 -2.9632  0.8159  3.7014
13888TIP3   OH263078   2.124   3.256   0.705 -0.2813  0.0802 -0.3420
13888TIP3    H163079   2.179   3.334   0.694 -1.4373  0.9191 -0.3377
13888TIP3    H263080   2.186   3.187   0.728  0.7621  1.0108 -0.2290
13889TIP3   OH263081   6.409   2.912  16.621 -0.0731  0.2346  0.4219
13889TIP3    H163082   6.332   2.921  16.564  2.0779 -1.9592 -3.2734
13889TIP3    H263083   6.378   2.862  16.696 -2.4000 -0.0456 -0.6430
13890TIP3   OH263084   0.065   3.401   6.158 -0.0578  0.1005 -0.8138
13890TIP3    H163085   0.079   3.349   6.238 -2.9471  1.6254  0.8522
13890TIP3    H263086   0.102   3.347   6.089 -0.3928 -2.9303  1.1366
13891TIP3   OH263087   2.719   2.306   4.822  0.3268 -0.0832  0.1524
13891TIP3    H163088   2.631   2.342   4.833  0.1377 -0.1176 -1.0976
13891TIP3    H263089   2.772   2.354   4.886 -0.7595 -0.7474  1.6108
13892TIP3   OH263090   1.350   0.726   2.078 -0.1889  0.2111 -0.3409
13892TIP3    H163091   1.276   0.684   2.034  0.2591 -0.4135 -0.5039
13892TIP3    H263092   1.420   0.727   2.013  0.4748 -0.7091  0.3343
13893TIP3   OH263093   1.620   3.034  16.429  0.5107  0.5191 -0.4226
13893TIP3    H163094   1.594   3.014  16.339  0.8455  0.5303 -0.5230
13893TIP3    H263095   1.630   3.129  16.430 -1.7074  0.7915  0.2213
13894TIP3   OH263096   5.431   3.114  13.415 -0.3707  1.0301 -0.1460
13894TIP3    H163097   5.480   3.034  13.429  0.1339  1.2871 -0.4037
13894TIP3    H263098   5.365   3.091  13.350  0.0433  0.9202 -0.5383
13895TIP3   OH263099   3.005   0.036   0.778 -0.1450 -0.7117  0.2583
13895TIP3    H163100   2.998  -0.048   0.824 -0.2546  0.3908  2.3747
13895TIP3    H263101   3.063   0.088   0.833 -1.5473  1.2307 -0.0102
13896TIP3   OH263102   6.260   3.344   2.483 -0.1697  0.6648  0.2171
13896TIP3    H163103   6.226   3.275   2.425 -1.3112  1.1676  0.2702
13896TIP3    H263104   6.189   3.408   2.488  0.4938  1.3535  0.9848
13897TIP3   OH263105   1.214   2.689  16.229 -0.2922  0.3860 -0.1277
13897TIP3    H163106   1.307   2.676  16.252 -0.5926 -1.3123  0.2232
13897TIP3    H263107   1.181   2.601  16.212 -1.4895  1.1065 -1.7493
13898TIP3   OH263108   2.288   0.380   3.381  0.2831 -0.4271 -0.1518
13898TIP3    H163109   2.242   0.303   3.350 -1.2200  0.7643 -1.0097
13898TIP3    H263110   2.270   0.383   3.475 -2.5327  0.6657 -0.6440
13899TIP3   OH263111   2.367   4.257  16.059 -0.8218  0.7802  0.0740
13899TIP3    H163112   2.307   4.264  15.985  2.3003  2.4336 -2.5532
13899TIP3    H263113   2.419   4.337  16.056  1.9954 -0.7975  1.6699
13900TIP3   OH263114   3.894   1.746   1.685 -0.1458  0.1904  0.1500
13900TIP3    H163115   3.933   1.662   1.710  0.4534  0.5177  0.3664
13900TIP3    H263116   3.970   1.805   1.677 -0.4725  0.4866 -0.8982
13901TIP3   OH263117   0.072   0.573   3.224  0.2507  0.2725  0.4677
13901TIP3    H163118   0.043   0.505   3.285 -0.1141  0.7125  0.7926
13901TIP3    H263119  -0.005   0.627   3.209  0.0047 -0.5242 -1.3567
13902TIP3   OH263120   2.462   2.262  12.551  0.3524  0.1024  0.6473
13902TIP3    H163121   2.495   2.221  12.471 -0.0730  0.1193  0.4635
13902TIP3    H263122   2.541   2.283  12.601  0.5773 -1.2406  0.9029
13903TIP3   OH263123   6.743   0.329  15.282  0.2016 -0.3725  0.0251
13903TIP3    H163124   6.667   0.385  15.266  0.3853  0.6626  2.3519
13903TIP3    H263125   6.739   0.309  15.376  1.1251 -2.8646 -0.3816
13904TIP3   OH263126   2.929   4.963   5.960 -0.7093  0.3278 -0.3200
13904TIP3    H163127   2.892   5.008   6.036 -0.6819  0.4041 -0.3515
13904TIP3    H263128   2.950   4.875   5.992  0.8591  0.8720  0.2377
13905TIP3   OH263129   1.184   1.952   0.118  0.5405  0.6478 -0.3314
13905TIP3    H163130   1.143   1.961   0.203 -0.8575  0.7292 -0.9946
13905TIP3    H263131   1.152   2.027   0.067  1.4808  0.6943 -0.8975
13906TIP3   OH263132   4.610   4.944  15.579 -0.0383  0.4807 -0.1002
13906TIP3    H163133   4.576   4.871  15.630 -0.3345  0.8265  0.2053
13906TIP3    H263134   4.559   5.020  15.608  2.2072  1.4190  1.7954
13907TIP3   OH263135   6.512   1.077   0.794 -0.5685  0.0617 -0.4153
13907TIP3    H163136   6.446   1.009   0.810 -3.4231  2.6700 -0.0297
13907TIP3    H263137   6.591   1.029   0.769 -2.2878 -3.3497  0.1178
13908TIP3   OH263138   2.194   2.008   2.051 -0.5093  0.2100  0.0714
13908TIP3    H163139   2.265   1.952   2.081  0.2307  0.2086 -1.5545
13908TIP3    H263140   2.220   2.096   2.077  0.0464  0.1955 -0.4162
13909TIP3   OH263141   4.165   6.220  14.510  0.2915  0.2439  0.3214
13909TIP3    H163142   4.163   6.295  14.569 -0.3472 -0.9960  1.9349
13909TIP3    H263143   4.081   6.176  14.523  0.8059 -0.9827 -0.2936
13910TIP3   OH263144   4.779   6.139  14.932 -0.5460 -0.3387 -0.3900
13910TIP3    H163145   4.718   6.130  15.005  0.2379 -1.3863  0.1635
13910TIP3    H263146   4.833   6.214  14.955 -0.3809 -0.5890  0.0571
13911TIP3   OH263147   6.713   4.866  10.639  0.5266 -0.0076 -1.1529
13911TIP3    H163148   6.779   4.797  10.649  2.0078  1.1566 -2.4039
13911TIP3    H263149   6.709   4.907  10.725  2.6866  0.9340 -1.4480
13912TIP3   OH263150   3.876   3.192  17.115 -0.3958 -0.9073  0.0300
13912TIP3    H163151   3.898   3.127  17.048 -0.0031 -0.0862 -0.6604
13912TIP3    H263152   3.871   3.142  17.196 -0.3130 -1.8329 -0.5144
13913TIP3   OH263153   5.705   5.062  13.705 -0.0868 -0.0910  0.3069
13913TIP3    H163154   5.692   5.039  13.797  0.5077 -0.1703  0.3740
13913TIP3    H263155   5.619   5.094  13.676 -0.5221 -0.9643  0.6212
13914TIP3   OH263156   5.191   6.387  11.423 -0.1690 -0.0746  0.2149
13914TIP3    H163157   5.153   6.356  11.506 -0.4702 -0.4826 -0.0671
13914TIP3    H263158   5.243   6.313  11.392  0.0377  0.1207  0.0959
13915TIP3   OH263159   3.720   4.058  13.460 -0.4872  0.3727 -0.3849
13915TIP3    H163160   3.663   3.983  13.478  0.3353 -0.3387 -0.6556
13915TIP3    H263161   3.699   4.121  13.529 -2.0113  0.3835 -0.8136
13916TIP3   OH263162   2.941   5.534   3.914  0.1603 -0.0780  0.4535
13916TIP3    H163163   2.971   5.491   3.834  1.9915  0.0843  1.0118
13916TIP3    H263164   2.899   5.614   3.884 -0.1110 -0.5160 -0.3872
13917TIP3   OH263165   1.944   0.961   6.770 -0.8882 -0.4085 -0.6670
13917TIP3    H163166   1.955   0.906   6.693  0.7266  1.1015 -1.6010
13917TIP3    H263167   2.013   1.026   6.763  0.1238 -0.9277  2.7367
13918TIP3   OH263168   0.603   2.808   6.098 -0.7574  0.0874 -0.0140
13918TIP3    H163169   0.645   2.741   6.151  1.2646  0.8128 -0.6200
13918TIP3    H263170   0.600   2.886   6.153 -0.3947  0.3109 -0.3028
13919TIP3   OH263171   1.997   2.119  13.087 -0.0969  0.1237  0.0223
13919TIP3    H163172   1.913   2.161  13.104 -0.2360  0.1839 -0.7572
13919TIP3    H263173   2.060   2.191  13.077 -0.4632  0.2383 -1.9988
13920TIP3   OH263174   4.979   0.256   3.530 -0.2149  0.2212  0.3959
13920TIP3    H163175   4.991   0.171   3.488  0.1455  0.3141  0.2994
13920TIP3    H263176   4.885   0.261   3.548 -0.3347  0.0506 -0.1357
13921TIP3   OH263177   2.759   2.621   4.601 -0.6168  0.3466  0.3451
13921TIP3    H163178   2.714   2.695   4.642  0.1091  0.8284  0.2763
13921TIP3    H263179   2.849   2.625   4.633 -0.6825 -0.8079  0.7343
13922TIP3   OH263180   3.999   2.024   2.456 -0.4318  0.1646  0.4991
13922TIP3    H163181   3.914   2.052   2.422 -0.2119  0.5002  0.2279
13922TIP3    H263182   3.977   1.966   2.530 -0.8932  0.3155  0.4818
13923TIP3   OH263183   3.649   0.736  12.964  0.5310  0.3680  0.2779
13923TIP3    H163184   3.734   0.779  12.974 -0.4024  2.2246  0.6453
13923TIP3    H263185   3.618   0.722  13.053  0.8908 -1.2819  0.1653
13924TIP3   OH263186   0.190   4.824  13.411  0.0435  0.6882 -0.0182
13924TIP3    H163187   0.111   4.771  13.397  1.0835 -0.7157 -0.7347
13924TIP3    H263188   0.210   4.860  13.325  1.2411 -0.5346 -0.2932
13925TIP3   OH263189   0.417   5.226   0.727 -0.1125  1.0552  0.2761
13925TIP3    H163190   0.340   5.194   0.680 -0.1578  3.3443 -1.3601
13925TIP3    H263191   0.466   5.146   0.748 -1.0465 -0.2534 -2.0473
13926TIP3   OH263192   3.138   2.692  12.959  0.1107  0.6004  0.5004
13926TIP3    H163193   3.056   2.732  12.931  0.8002  1.6543 -0.1120
13926TIP3    H263194   3.134   2.693  13.054 -0.2374  1.4340  0.4876
13927TIP3   OH263195   1.065   0.552  14.023 -0.3078  0.8675 -0.5697
13927TIP3    H163196   1.045   0.510  13.940 -0.6065  1.1117 -0.6218
13927TIP3    H263197   1.144   0.507  14.054 -1.3644 -0.6913  0.0427
13928TIP3   OH263198   3.138   5.041  11.267  0.4152  0.0270 -0.1477
13928TIP3    H163199   3.198   5.079  11.204  1.1162 -0.3505  0.2890
13928TIP3    H263200   3.079   5.113  11.290  0.4926  0.3092 -0.8103
13929TIP3   OH263201   1.947   1.247   6.006 -0.3375  0.4945 -0.0298
13929TIP3    H163202   2.015   1.181   5.997 -1.2123 -0.5615  0.7003
13929TIP3    H263203   1.994   1.330   6.013  0.9533 -0.3141  1.6387
13930TIP3   OH263204   3.060   2.993  11.500  0.0749  0.2466 -0.7614
13930TIP3    H163205   3.088   3.012  11.589 -0.0519  0.7128 -0.8135
13930TIP3    H263206   3.086   3.071  11.450 -1.8589  1.0038 -0.6841
13931TIP3   OH263207   4.069   1.569  15.744 -0.2773 -0.3822 -0.0802
13931TIP3    H163208   4.055   1.550  15.836 -0.1625  0.3307  0.0903
13931TIP3    H263209   4.154   1.613  15.740 -0.7163  0.4784 -0.3913
13932TIP3   OH263210   0.332   1.608  16.578 -0.2308  0.2444  0.0944
13932TIP3    H163211   0.263   1.543  16.590  0.2488 -0.0723  1.3220
13932TIP3    H263212   0.290   1.692  16.600  0.1033 -0.1063  2.2565
13933TIP3   OH263213   3.165   2.685  11.826 -0.4804  0.1209  0.0232
13933TIP3    H163214   3.080   2.648  11.801  0.8208 -2.7688 -0.5473
13933TIP3    H263215   3.168   2.676  11.922 -0.0241 -1.8110 -0.1360
13934TIP3   OH263216   6.599   0.579  15.924 -0.1755 -0.3434  0.3414
13934TIP3    H163217   6.574   0.571  15.832 -3.1157 -2.5805  1.1792
13934TIP3    H263218   6.690   0.609  15.921 -0.7781  1.7454 -3.2068
13935TIP3   OH263219   0.183   2.400  10.877  0.1080  0.5058 -0.2134
13935TIP3    H163220   0.204   2.367  10.789 -0.2749 -1.0353  0.2547
13935TIP3    H263221   0.212   2.331  10.936 -0.8514  0.9543  0.8053
13936TIP3   OH263222   4.244   0.181   2.110  0.5305 -0.0990 -0.0137
13936TIP3    H163223   4.242   0.086   2.099 -0.7832  0.0013 -0.7692
13936TIP3    H263224   4.156   0.210   2.089  0.4151  1.1303  1.9033
13937TIP3   OH263225   5.474   5.174   1.764  0.3915 -0.4133 -0.2573
13937TIP3    H163226   5.407   5.109   1.742 -0.2869 -0.2789  1.3252
13937TIP3    H263227   5.454   5.249   1.708 -0.9809 -0.2538  0.4231
13938TIP3   OH263228   2.998   3.868  11.195  0.0090  0.2225  0.1642
13938TIP3    H163229   2.996   3.923  11.117  1.1466  2.6112  1.7101
13938TIP3    H263230   3.067   3.804  11.178 -0.5210 -0.0098 -1.2075
13939TIP3   OH263231   1.872   5.377   0.735 -0.5630  0.3956  0.3061
13939TIP3    H163232   1.876   5.470   0.710 -1.0825  0.4829  0.5416
13939TIP3    H263233   1.785   5.366   0.773  0.1070  0.2269  1.8986
13940TIP3   OH263234   2.906   5.616   1.617  0.1331 -0.0095  0.1732
13940TIP3    H163235   2.987   5.662   1.639  0.1722  0.2975 -0.5795
13940TIP3    H263236   2.910   5.535   1.668  1.4548 -0.5219 -0.6840
13941TIP3   OH263237   3.699   5.238  13.162 -0.4498  0.0922  0.2619
13941TIP3    H163238   3.696   5.268  13.253  1.4180 -0.8428  0.6731
13941TIP3    H263239   3.672   5.314  13.111 -1.7987  0.5551  1.5899
13942TIP3   OH263240   1.273   1.799   3.542 -0.3459  0.6141 -0.0310
13942TIP3    H163241   1.264   1.892   3.523 -0.9149  0.7921  1.0571
13942TIP3    H263242   1.235   1.788   3.629  1.7100 -0.2399  0.8434
13943TIP3   OH263243   0.650   5.854   0.556 -0.2409  0.0317  0.5521
13943TIP3    H163244   0.578   5.884   0.611 -0.8262 -0.7457  0.2387
13943TIP3    H263245   0.683   5.775   0.599  2.5232  2.0072  2.3982
13944TIP3   OH263246   6.039   2.741   4.878  0.4392 -0.0848 -0.4141
13944TIP3    H163247   6.124   2.697   4.866  0.6345 -0.2627  1.3282
13944TIP3    H263248   6.039   2.767   4.971 -1.6281 -0.5545 -0.2480
13945TIP3   OH263249   4.909   4.213  16.404 -1.1270 -0.7534  0.3859
13945TIP3    H163250   4.884   4.270  16.331  1.0709 -0.4342 -0.2017
13945TIP3    H263251   4.892   4.266  16.482 -1.7163 -0.3658  0.0059
13946TIP3   OH263252   3.687   3.137   0.283 -0.3665 -0.3543  0.6989
13946TIP3    H163253   3.766   3.171   0.242 -0.4120 -0.5509  0.4511
13946TIP3    H263254   3.622   3.206   0.272 -1.0205 -1.2550 -1.4886
13947TIP3   OH263255   4.030   2.031   1.499 -0.4051  0.2611 -0.2431
13947TIP3    H163256   4.031   2.066   1.588  1.2706  0.8959 -0.4677
13947TIP3    H263257   4.093   1.958   1.502  0.0358  0.5991 -1.0093
13948TIP3   OH263258   5.322   3.353   4.186 -0.3854 -0.0141  0.0227
13948TIP3    H163259   5.289   3.273   4.227  0.2173  0.1071  0.7625
13948TIP3    H263260   5.354   3.406   4.259  0.4096  0.3444 -0.5722
13949TIP3   OH263261   1.011   5.490   3.628  0.5403  0.3703  0.1270
13949TIP3    H163262   1.054   5.485   3.714 -1.5493  1.1197  1.2933
13949TIP3    H263263   1.021   5.580   3.600 -1.3127  0.9270  1.0630
13950TIP3   OH263264   1.525   2.596  12.288 -0.5285  0.7449  0.2322
13950TIP3    H163265   1.599   2.583  12.229 -1.6510 -2.0223 -0.7689
13950TIP3    H263266   1.454   2.625  12.231 -1.2329 -0.5541  0.3957
13951TIP3   OH263267   2.469   1.230  13.296 -0.0316  0.4224  0.3757
13951TIP3    H163268   2.495   1.146  13.333 -1.0050  0.3513  0.9301
13951TIP3    H263269   2.548   1.284  13.303  0.8289 -0.6514 -0.6827
13952TIP3   OH263270   0.269   3.351  11.405 -0.3812 -0.0165  0.6703
13952TIP3    H163271   0.311   3.305  11.478 -0.9497 -0.1053  0.9509
13952TIP3    H263272   0.288   3.296  11.329 -0.1908 -0.1818  0.8333
13953TIP3   OH263273   4.545   5.768   0.977  0.3558  0.1851  0.0867
13953TIP3    H163274   4.637   5.748   0.992  0.6736  0.0650 -1.8160
13953TIP3    H263275   4.544   5.820   0.896 -1.3280 -0.7387 -0.5364
13954TIP3   OH263276   2.765   0.723   2.545 -0.1146  0.2777 -0.2014
13954TIP3    H163277   2.811   0.758   2.621 -0.5873 -0.8666  0.6605
13954TIP3    H263278   2.683   0.773   2.542 -1.1926 -1.2455  1.5641
13955TIP3   OH263279   5.338   4.414   1.474  0.0910 -0.2997 -0.2741
13955TIP3    H163280   5.430   4.392   1.461 -0.0317 -0.1066 -1.6117
13955TIP3    H263281   5.316   4.377   1.559  1.4675 -0.1184  0.1823
13956TIP3   OH263282   2.116   6.671   3.634 -0.0087  0.0709  0.2579
13956TIP3    H163283   2.104   6.752   3.584  0.2769  0.3294  0.5999
13956TIP3    H263284   2.164   6.698   3.712  1.7680 -0.7390 -0.5130
13957TIP3   OH263285   3.602   5.918  11.600 -0.6086 -0.1924  0.3526
13957TIP3    H163286   3.674   5.868  11.637  0.2197  1.8722  1.6841
13957TIP3    H263287   3.625   5.929  11.507  0.2372 -0.4766  0.5247
13958TIP3   OH263288   4.886   1.963  11.130 -0.2494  0.2788 -0.2162
13958TIP3    H163289   4.934   1.974  11.212  0.3803 -2.7917 -0.0354
13958TIP3    H263290   4.950   1.983  11.062  0.2004 -0.2273  0.0502
13959TIP3   OH263291   1.504   2.926   2.007  0.2076  0.0213  0.3300
13959TIP3    H163292   1.529   2.988   1.939 -2.0211 -0.1230 -0.6870
13959TIP3    H263293   1.483   2.846   1.961 -3.7061  0.5966  0.7443
13960TIP3   OH263294   4.873   2.915   3.377  0.7278  0.0300 -0.1181
13960TIP3    H163295   4.910   2.830   3.399  2.8091  0.9112  0.0983
13960TIP3    H263296   4.837   2.904   3.289  1.0212 -1.0540 -0.1159
13961TIP3   OH263297   6.566   5.028  12.045 -0.1468 -0.6764 -0.2649
13961TIP3    H163298   6.602   5.105  12.002  0.0930 -0.9058 -0.4729
13961TIP3    H263299   6.471   5.043  12.047 -0.1127 -0.4456 -0.4376
13962TIP3   OH263300   0.889   3.032   2.145  0.4508 -0.1589 -0.1168
13962TIP3    H163301   0.836   3.112   2.144  1.7559  0.8903  2.8780
13962TIP3    H263302   0.973   3.059   2.108  0.6909 -0.2725  0.3310
13963TIP3   OH263303   4.117   3.821  12.808 -0.0365  0.2785  0.3521
13963TIP3    H163304   4.100   3.825  12.714  2.3551  0.5233 -0.1583
13963TIP3    H263305   4.190   3.882  12.821 -0.8338  0.8594  2.5332
13964TIP3   OH263306   5.425   5.902  14.315  0.0869  0.1069  0.2134
13964TIP3    H163307   5.479   5.940  14.246 -0.2041 -1.0263 -0.6659
13964TIP3    H263308   5.367   5.974  14.343  1.3184  1.0342  0.4521
13965TIP3   OH263309   4.170   4.415  11.247 -0.1160  0.2543  0.4904
13965TIP3    H163310   4.142   4.369  11.326  1.5850 -0.7088  0.5908
13965TIP3    H263311   4.192   4.346  11.185 -0.1276  0.9803 -0.3520
13966TIP3   OH263312   3.179   5.108   2.028 -0.1927 -0.2735  0.0705
13966TIP3    H163313   3.200   5.073   2.114  0.0200 -0.6078 -0.1155
13966TIP3    H263314   3.144   5.034   1.979 -2.4281  0.3969  0.5611
13967TIP3   OH263315   1.590   1.969  15.557  0.1991  0.1372 -0.0812
13967TIP3    H163316   1.568   2.031  15.487 -0.9212 -0.6590 -0.4593
13967TIP3    H263317   1.646   2.019  15.616  0.5809  1.0464 -1.1671
13968TIP3   OH263318   4.873   5.855   4.159 -0.0474  0.1005  0.1748
13968TIP3    H163319   4.796   5.802   4.180 -0.4567  0.6262  0.0251
13968TIP3    H263320   4.948   5.803   4.190 -0.3333 -1.1495 -1.1383
13969TIP3   OH263321   3.199   0.057   0.251  0.0698  0.2572 -0.4144
13969TIP3    H163322   3.194  -0.036   0.231 -3.2522  0.5352 -1.5383
13969TIP3    H263323   3.121   0.095   0.209 -0.4294  3.0378  2.6143
13970TIP3   OH263324   3.422   5.920  17.195 -0.4319 -0.2464 -0.0977
13970TIP3    H163325   3.402   5.829  17.218  0.8810 -1.2317 -2.4764
13970TIP3    H263326   3.500   5.940  17.247 -0.4155 -0.6679  0.0515
13971TIP3   OH263327   1.827   6.400  15.677 -0.0311 -0.1448  0.1654
13971TIP3    H163328   1.911   6.357  15.692 -0.2392 -0.3019  0.8910
13971TIP3    H263329   1.761   6.332  15.692 -0.2959 -0.0183 -0.3736
13972TIP3   OH263330   4.459   0.455   2.358  0.0980 -0.2502 -0.0849
13972TIP3    H163331   4.501   0.422   2.437 -2.5840 -0.0415  1.5700
13972TIP3    H263332   4.520   0.520   2.323  0.9695  0.3463  2.3663
13973TIP3   OH263333   1.644   0.863  12.319  0.0977 -0.3207  0.2449
13973TIP3    H163334   1.628   0.845  12.412 -0.1214  0.9791  0.4834
13973TIP3    H263335   1.738   0.873  12.313 -0.0112  1.2325  0.6775
13974TIP3   OH263336   4.260   1.756  15.248  0.8104 -0.3077  0.3425
13974TIP3    H163337   4.310   1.675  15.241  1.2579 -0.2563  2.4234
13974TIP3    H263338   4.311   1.819  15.197  0.3973 -1.3018 -1.3966
13975TIP3   OH263339   2.196   1.431  13.914 -0.0304  1.0440 -0.6405
13975TIP3    H163340   2.115   1.482  13.922  0.2435  1.4060 -0.0754
13975TIP3    H263341   2.167   1.341  13.904 -0.5997  1.4405 -3.6320
13976TIP3   OH263342   5.023   2.725   3.511  0.3096  0.3982  0.1468
13976TIP3    H163343   5.107   2.736   3.554  0.5876  0.8586 -0.4977
13976TIP3    H263344   5.030   2.640   3.467 -0.5175 -0.7937  2.1732
13977TIP3   OH263345   4.552   1.673   1.991 -0.3960 -0.0614 -0.4673
13977TIP3    H163346   4.577   1.632   2.074  1.8164  1.8907 -0.0607
13977TIP3    H263347   4.488   1.740   2.015  0.8629  1.0736 -0.1424
13978TIP3   OH263348   5.765   0.735  16.710  0.2797 -0.3389  0.2512
13978TIP3    H163349   5.781   0.744  16.616 -1.7689  0.1475 -0.0998
13978TIP3    H263350   5.738   0.644  16.721  1.3356 -0.6373  0.5440
13979TIP3   OH263351   5.152   2.354  15.462  0.1049 -0.4732 -0.0062
13979TIP3    H163352   5.081   2.308  15.507  1.4494 -0.3151  2.4876
13979TIP3    H263353   5.156   2.440  15.505  2.4576 -0.8754  0.7350
13980TIP3   OH263354   2.660   2.950  14.083  0.0480 -0.1038 -0.2404
13980TIP3    H163355   2.571   2.987  14.082  0.0197 -0.0794  1.0476
13980TIP3    H263356   2.715   3.020  14.119  0.0807 -1.0517  1.7356
13981TIP3   OH263357   1.701   0.902   5.096  0.0828  0.4521  0.1207
13981TIP3    H163358   1.640   0.973   5.076 -1.5202 -0.7544  0.5001
13981TIP3    H263359   1.746   0.930   5.176 -0.9309  0.8033  0.5750
13982TIP3   OH263360   4.773   2.210  14.491  0.3819  0.3140  0.2970
13982TIP3    H163361   4.830   2.191  14.566 -0.1690  0.9978  0.9068
13982TIP3    H263362   4.700   2.259  14.529 -1.0779 -1.3123 -0.2959
13983TIP3   OH263363   3.940   1.986   3.563 -0.8679  0.0834 -0.3265
13983TIP3    H163364   3.873   2.026   3.619 -0.7755  0.2547 -0.3373
13983TIP3    H263365   4.011   1.965   3.623 -0.2066  1.4875 -0.5672
13984TIP3   OH263366   2.135   0.418  12.611 -0.0078 -0.4538 -0.4666
13984TIP3    H163367   2.079   0.475  12.558 -0.3250 -0.6762 -0.3732
13984TIP3    H263368   2.136   0.460  12.697  0.3628 -0.1883 -0.6007
13985TIP3   OH263369   5.379   2.162  13.311  0.4985  0.0450  0.0195
13985TIP3    H163370   5.407   2.097  13.376  0.9243  0.5365  0.3398
13985TIP3    H263371   5.385   2.246  13.358  1.5310  0.4964 -0.8681
13986TIP3   OH263372   6.381   2.830   4.261 -0.2460  0.4035 -0.0280
13986TIP3    H163373   6.443   2.772   4.217 -0.4560 -0.4666  0.7705
13986TIP3    H263374   6.356   2.894   4.195  2.0257  1.2277 -0.1801
13987TIP3   OH263375   0.131   1.239   5.773 -0.4306  0.2765 -0.2042
13987TIP3    H163376   0.189   1.202   5.839 -0.7198 -0.7275 -0.4962
13987TIP3    H263377   0.114   1.328   5.803 -0.3272 -0.0745  0.9283
13988TIP3   OH263378   5.182   4.295   5.097 -0.0861  0.0669 -0.3184
13988TIP3    H163379   5.088   4.285   5.087  0.0565 -0.9366 -0.8891
13988TIP3    H263380   5.194   4.379   5.140 -1.2201  0.3794 -0.5972
13989TIP3   OH263381   3.987   5.772  10.519  0.2850 -0.1016  0.2969
13989TIP3    H163382   3.986   5.774  10.614 -0.6504 -1.7986  0.3737
13989TIP3    H263383   3.998   5.863  10.492 -1.3275  0.6635  2.0280
13990TIP3   OH263384   4.679   4.220  11.539  0.3485 -0.1102  0.5152
13990TIP3    H163385   4.602   4.239  11.592  2.3443 -0.0785  3.7178
13990TIP3    H263386   4.665   4.131  11.507 -1.3820  0.2423  0.1869
13991TIP3   OH263387   3.427   3.133   3.892  0.1189  0.2205 -0.3798
13991TIP3    H163388   3.402   3.122   3.984  0.0811 -0.3470 -0.4536
13991TIP3    H263389   3.418   3.227   3.876  0.8942  0.4513  0.4158
13992TIP3   OH263390   5.689   0.614   2.560  0.2335  0.2975 -0.1055
13992TIP3    H163391   5.632   0.677   2.515 -0.4262 -0.3773 -0.2282
13992TIP3    H263392   5.746   0.580   2.491  0.5022  0.6583 -0.0641
13993TIP3   OH263393   0.387   4.861  16.793 -0.1015  0.3073  0.1930
13993TIP3    H163394   0.468   4.896  16.829 -0.2230  0.3512  0.4255
13993TIP3    H263395   0.389   4.884  16.700 -0.1112  0.7976  0.3130
13994TIP3   OH263396   4.582   2.016  13.192  0.0964  0.0468 -0.4614
13994TIP3    H163397   4.618   2.035  13.105 -1.7175 -0.0749 -1.2828
13994TIP3    H263398   4.585   2.100  13.238 -0.9790  0.6555 -1.4498
13995TIP3   OH263399   4.801   0.027  10.648  0.1952 -0.3028  0.2025
13995TIP3    H163400   4.714   0.036  10.689 -0.1572 -2.0134 -0.0698
13995TIP3    H263401   4.860   0.074  10.707 -0.8130  0.2589  0.7975
13996TIP3   OH263402   3.478   6.708   3.816  0.8488 -0.5722  0.6118
13996TIP3    H163403   3.492   6.766   3.741  2.4727 -2.1552 -0.4064
13996TIP3    H263404   3.420   6.757   3.874  0.9931  1.4475 -0.8378
13997TIP3   OH263405   2.621   6.180  17.028  0.4776 -0.0816 -0.1350
13997TIP3    H163406   2.693   6.121  17.049  0.5721 -0.4113 -1.3428
13997TIP3    H263407   2.552   6.123  16.994 -0.6293  0.1455  1.5912
13998TIP3   OH263408   4.740   5.960   4.867 -0.9694 -0.1523  0.0881
13998TIP3    H163409   4.761   5.952   4.960 -0.4652 -0.3537 -0.0420
13998TIP3    H263410   4.644   5.957   4.864 -0.9525 -1.9220  0.4448
13999TIP3   OH263411   3.693   2.982   5.098 -0.5544 -0.2636 -0.7515
13999TIP3    H163412   3.675   3.072   5.126  0.5417 -0.4189  0.5355
13999TIP3    H263413   3.651   2.975   5.013  2.4287  2.6488 -2.6732
14000TIP3   OH263414   2.711   4.941  13.998 -0.2697  0.0222  0.2102
14000TIP3    H163415   2.764   5.006  13.951  0.7600 -0.2100  1.0196
14000TIP3    H263416   2.630   4.988  14.020  1.4901  2.0061  3.1551
14001TIP3   OH263417   2.069   3.773  11.908 -0.0633  0.2794  0.1177
14001TIP3    H163418   2.164   3.768  11.895 -0.2257  2.1310 -2.5604
14001TIP3    H263419   2.049   3.866  11.904 -2.0414 -0.0984  0.2894
14002TIP3   OH263420   5.238   2.957  16.610 -0.2197  0.1834  0.1390
14002TIP3    H163421   5.216   3.048  16.591 -0.7205  0.3342  1.3347
14002TIP3    H263422   5.155   2.918  16.640  0.5955  0.1958  2.6714
14003TIP3   OH263423   0.784   5.088   1.114  0.5652 -0.3472 -0.1254
14003TIP3    H163424   0.825   5.012   1.074 -0.9491 -0.9567 -0.5467
14003TIP3    H263425   0.744   5.136   1.041 -0.8243 -0.6129  0.4357
14004TIP3   OH263426   6.252   2.017   2.320  0.1888  0.1801 -0.1968
14004TIP3    H163427   6.303   2.096   2.333 -0.2968  0.3124  1.0727
14004TIP3    H263428   6.163   2.049   2.303  0.5805 -0.0266 -2.9712
14005TIP3   OH263429   4.192   0.027   5.609  0.4005 -0.5715  0.6707
14005TIP3    H163430   4.177  -0.062   5.577  0.9041 -0.5834  0.4591
14005TIP3    H263431   4.175   0.083   5.533  0.1458 -0.4910  0.7863
14006TIP3   OH263432   0.640   0.371  12.749  0.1443  0.0972 -0.0643
14006TIP3    H163433   0.632   0.449  12.803  0.5833  0.6448 -0.7811
14006TIP3    H263434   0.556   0.364  12.704  0.3479  0.5442 -0.5168
14007TIP3   OH263435   2.720   1.172  15.286  0.2336 -0.1255  0.4508
14007TIP3    H163436   2.662   1.096  15.280  0.3801 -0.1725 -0.6913
14007TIP3    H263437   2.662   1.244  15.311 -0.0331 -0.4765  0.8569
14008TIP3   OH263438   1.549   0.050  10.967  0.0948  0.5600 -0.6421
14008TIP3    H163439   1.484   0.111  10.930 -1.4822 -1.4393 -1.3207
14008TIP3    H263440   1.609   0.032  10.894 -0.5617 -0.1593 -1.0100
14009TIP3   OH263441   2.574   2.606  13.000  0.1670  0.3050 -0.1796
14009TIP3    H163442   2.638   2.602  13.071 -1.0661  1.9636  1.0968
14009TIP3    H263443   2.604   2.678  12.944  0.3802 -0.0993 -0.5946
14010TIP3   OH263444   0.939   5.257   4.230  0.1369 -0.0925 -0.4922
14010TIP3    H163445   1.004   5.244   4.160 -0.1769 -1.2342 -0.5846
14010TIP3    H263446   0.946   5.178   4.283 -0.7645  0.0554 -0.1531
14011TIP3   OH263447   4.535   5.630  12.653 -0.2632 -0.1600  0.1799
14011TIP3    H163448   4.610   5.622  12.712 -1.4577 -2.3780  1.5549
14011TIP3    H263449   4.554   5.568  12.582 -0.6722 -0.5919  0.4369
14012TIP3   OH263450   4.882   6.775  16.320  0.1703 -0.5975 -0.8514
14012TIP3    H163451   4.931   6.845  16.278  0.5358 -0.2811  0.0757
14012TIP3    H263452   4.823   6.742  16.252  0.3057  0.3131 -1.4183
14013TIP3   OH263453   4.240   1.175  11.423 -0.0813 -0.1337  0.3087
14013TIP3    H163454   4.233   1.111  11.494  1.2686  0.7337  1.2652
14013TIP3    H263455   4.296   1.132  11.358  0.5074 -0.0779  0.7750
14014TIP3   OH263456   4.334   6.064  16.576 -0.3709  0.2950  0.3086
14014TIP3    H163457   4.328   6.143  16.523  0.6951  1.7990  2.2753
14014TIP3    H263458   4.425   6.035  16.567 -0.4984 -0.1467  0.3698
14015TIP3   OH263459   1.843   2.864   3.483 -0.0921 -0.4595  0.1045
14015TIP3    H163460   1.843   2.942   3.427  0.7625  0.0984  0.8530
14015TIP3    H263461   1.845   2.791   3.421 -0.9842  0.1027 -0.6094
14016TIP3   OH263462   5.877   5.451   6.335  0.1262  0.1284 -0.4894
14016TIP3    H163463   5.821   5.417   6.406 -2.8263  0.3502 -2.5317
14016TIP3    H263464   5.902   5.538   6.365  0.5745 -0.4920  1.0678
14017TIP3   OH263465   0.788   3.831   4.086 -0.0190  0.3191  0.1250
14017TIP3    H163466   0.826   3.911   4.049  0.5026  0.2309  0.4522
14017TIP3    H263467   0.694   3.848   4.090  0.0099  0.6376 -0.4814
14018TIP3   OH263468   3.808   0.888   6.045  0.1957 -0.6519 -0.0961
14018TIP3    H163469   3.747   0.926   5.982  3.6631  1.0120 -2.7889
14018TIP3    H263470   3.860   0.963   6.076  2.3546 -2.2168  0.2782
14019TIP3   OH263471   6.410   5.755  14.280 -0.5103 -0.0355 -0.3161
14019TIP3    H163472   6.439   5.696  14.211 -1.4343 -0.0919 -0.6736
14019TIP3    H263473   6.335   5.800  14.242 -0.2761  0.8309  0.2196
14020TIP3   OH263474   1.032   5.996  14.835 -0.0726  0.6620 -0.5058
14020TIP3    H163475   0.978   5.939  14.780  0.5845 -0.5027  0.0136
14020TIP3    H263476   1.105   6.021  14.778  0.6900 -0.6706 -0.1457
14021TIP3   OH263477   5.552   2.011  15.695 -1.1033  0.3133  0.5756
14021TIP3    H163478   5.477   2.070  15.690 -2.1681 -1.1201 -1.6873
14021TIP3    H263479   5.519   1.927  15.663  1.3373 -0.4982 -0.0059
14022TIP3   OH263480   5.014   3.773  10.379  0.1140 -0.1001  0.0331
14022TIP3    H163481   4.955   3.758  10.452 -0.1093 -0.5665 -0.2411
14022TIP3    H263482   4.969   3.736  10.303  0.7199 -0.4007 -0.1928
14023TIP3   OH263483   5.288   3.569  13.662 -0.1083  0.2081 -0.4979
14023TIP3    H163484   5.316   3.512  13.590 -0.6665 -1.1562  0.3184
14023TIP3    H263485   5.305   3.658  13.631  2.0360 -0.4256 -1.3130
14024TIP3   OH263486   5.505   3.607  16.921 -0.4183  0.3981 -0.0630
14024TIP3    H163487   5.493   3.516  16.947 -1.1365  0.6807  0.6463
14024TIP3    H263488   5.434   3.654  16.965 -0.9247  1.0955 -1.5722
14025TIP3   OH263489   4.827   4.648  15.976 -0.7001 -0.4133 -0.3727
14025TIP3    H163490   4.857   4.739  15.980  1.2917 -1.0408 -0.0529
14025TIP3    H263491   4.820   4.630  15.882  0.4536 -0.3873 -0.4780
14026TIP3   OH263492   5.775   1.074  16.746 -0.3948  0.4369  0.0055
14026TIP3    H163493   5.733   1.129  16.813  0.7445  0.1596  0.9961
14026TIP3    H263494   5.754   0.985  16.772 -1.6328  0.3519 -1.1898
14027TIP3   OH263495   2.639   2.338  13.432  0.0873  0.0455 -0.4456
14027TIP3    H163496   2.635   2.248  13.466 -0.0528  0.8764  1.8988
14027TIP3    H263497   2.717   2.339  13.377 -0.0598 -1.5776 -0.7513
14028TIP3   OH263498   3.243   6.642  13.291 -0.2540 -0.0965 -0.7017
14028TIP3    H163499   3.316   6.646  13.353  0.7552 -0.7849 -1.8004
14028TIP3    H263500   3.214   6.550  13.294 -0.4599 -0.0408 -0.9768
14029TIP3   OH263501   1.884   5.737   2.777 -0.1295  0.3169  0.1771
14029TIP3    H163502   1.926   5.656   2.807  1.7634  1.0931 -0.2565
14029TIP3    H263503   1.951   5.804   2.788 -1.4113  1.7099 -0.1951
14030TIP3   OH263504   0.166   3.164  12.971 -0.1480 -0.1666 -0.7929
14030TIP3    H163505   0.244   3.151  12.917  0.2045 -0.4164 -0.2356
14030TIP3    H263506   0.118   3.081  12.963 -0.7168  0.2252 -1.6799
14031TIP3   OH263507   4.069   1.655   5.478 -0.5971  0.2994 -0.5606
14031TIP3    H163508   3.981   1.630   5.506 -0.7567 -1.6488 -2.4844
14031TIP3    H263509   4.126   1.627   5.550 -1.3028 -1.1207 -0.5197
14032TIP3   OH263510   0.245   2.827   2.911 -0.5385 -0.5659  0.4901
14032TIP3    H163511   0.322   2.794   2.958 -0.3912  1.9858  2.2488
14032TIP3    H263512   0.281   2.874   2.836 -0.5586 -1.5571 -0.1503
14033TIP3   OH263513   6.025   5.940  15.378  0.2158  0.7768 -0.3787
14033TIP3    H163514   6.050   6.008  15.316  0.6038  1.4145  0.4616
14033TIP3    H263515   6.102   5.928  15.433  0.0345 -0.1065 -0.2982
14034TIP3   OH263516   4.450   1.891   4.363 -0.3220 -0.1842 -0.4781
14034TIP3    H163517   4.371   1.864   4.410  0.0595 -2.3950 -1.0044
14034TIP3    H263518   4.515   1.903   4.432 -0.7859  0.4497 -0.1422
14035TIP3   OH263519   4.813   6.281  14.130  0.2383 -0.3001  0.2434
14035TIP3    H163520   4.821   6.276  14.035 -2.1617 -2.1282  0.0410
14035TIP3    H263521   4.881   6.222  14.162  0.1676 -0.7601 -0.4188
14036TIP3   OH263522   5.126   6.649   5.395  0.0760  0.0592 -0.2633
14036TIP3    H163523   5.184   6.595   5.341  0.1015  0.5638 -0.7589
14036TIP3    H263524   5.180   6.724   5.420 -0.3035  0.4400 -0.5756
14037TIP3   OH263525   6.206   6.679   4.678  0.6723 -0.9506 -0.2587
14037TIP3    H163526   6.234   6.703   4.590  0.8765 -3.0026 -0.8126
14037TIP3    H263527   6.250   6.742   4.735 -0.3986  1.1966 -1.6317
14038TIP3   OH263528   0.712   3.544  16.747  0.2714 -0.4877  0.8325
14038TIP3    H163529   0.653   3.586  16.685  0.8448  0.5230  0.9511
14038TIP3    H263530   0.661   3.472  16.784 -0.6596 -0.0395  0.4495
14039TIP3   OH263531   4.571   6.085  13.743  0.1923  0.0993  0.4687
14039TIP3    H163532   4.574   6.144  13.818  0.1033 -0.1272  0.6522
14039TIP3    H263533   4.661   6.081  13.712  0.0875  0.8696  0.0345
14040TIP3   OH263534   3.269   6.796  12.634  0.3609 -0.0641 -0.2215
14040TIP3    H163535   3.308   6.725  12.583  0.0234 -0.8183  0.5566
14040TIP3    H263536   3.332   6.812  12.704 -0.6403 -1.2265  0.9906
14041TIP3   OH263537   5.932   1.466   0.665 -0.1145  0.2861  0.6047
14041TIP3    H163538   5.991   1.500   0.598 -1.0556  2.0610  0.6114
14041TIP3    H263539   5.947   1.371   0.664  0.6797  0.3735 -1.3530
14042TIP3   OH263540   1.232   1.046  13.534 -0.1552 -0.1479  0.0837
14042TIP3    H163541   1.269   1.133  13.552 -0.2815 -0.6153  3.1127
14042TIP3    H263542   1.163   1.062  13.470  0.9516  1.6853 -0.7589
14043TIP3   OH263543   0.709   3.596   5.454  0.2867 -0.3282 -0.6468
14043TIP3    H163544   0.682   3.619   5.543  1.0503 -0.8011 -0.2862
14043TIP3    H263545   0.801   3.572   5.462  0.0640 -1.4864 -1.3729
14044TIP3   OH263546   4.380   2.490  13.109  0.2727 -0.0143 -0.3714
14044TIP3    H163547   4.430   2.418  13.070 -0.6464  0.3860 -2.4656
14044TIP3    H263548   4.289   2.467  13.091 -0.1720  0.4576  1.1918
14045TIP3   OH263549   3.005   0.806   3.748 -0.4977 -0.0977  0.2211
14045TIP3    H163550   2.967   0.823   3.662 -1.0753  0.2248  0.5323
14045TIP3    H263551   3.099   0.805   3.733 -0.5873  0.0791 -0.3936
14046TIP3   OH263552   3.243   0.165  12.047  0.1652  0.2734 -0.3895
14046TIP3    H163553   3.325   0.193  12.006  1.3886  0.4379  2.0233
14046TIP3    H263554   3.192   0.245  12.055 -1.0369 -0.0542 -3.3434
14047TIP3   OH263555   3.853   0.954  10.817 -0.1336 -0.4841 -0.0329
14047TIP3    H163556   3.814   1.042  10.810  0.9010  0.0148  0.2577
14047TIP3    H263557   3.845   0.918  10.729  2.0926  1.0824 -0.9650
14048TIP3   OH263558   3.880   3.257   4.600  0.3271  0.1345 -0.0459
14048TIP3    H163559   3.958   3.289   4.555  0.1709 -1.0786 -1.2279
14048TIP3    H263560   3.807   3.303   4.558  0.2969  0.2656  0.1457
14049TIP3   OH263561   3.521   2.738   3.583 -0.3477  0.1919  0.2716
14049TIP3    H163562   3.495   2.830   3.585  1.5252  0.7859 -0.4813
14049TIP3    H263563   3.616   2.740   3.589 -0.2745 -1.7091  0.3026
14050TIP3   OH263564   4.588   4.657   0.076  0.3406 -1.4308 -0.3418
14050TIP3    H163565   4.521   4.664   0.143  0.2078  0.7568 -0.6556
14050TIP3    H263566   4.669   4.643   0.125  0.1359 -0.6318  0.2458
14051TIP3   OH263567   0.977   0.137  10.800 -0.1365  0.4428 -0.0434
14051TIP3    H163568   1.033   0.211  10.777  2.1680 -1.1300  0.2100
14051TIP3    H263569   0.918   0.172  10.866  0.4915  2.2038 -0.3606
14052TIP3   OH263570   5.084   2.670   4.366  0.2702 -0.3460  0.4038
14052TIP3    H163571   5.019   2.600   4.362 -0.6715  0.4560  1.0861
14052TIP3    H263572   5.062   2.728   4.293  0.1520 -0.0215  0.6926
14053TIP3   OH263573   2.642   0.046  17.138 -0.8793 -0.0358  0.4404
14053TIP3    H163574   2.664   0.008  17.223  1.5032  0.5782  0.1587
14053TIP3    H263575   2.602  -0.026  17.089  0.0008 -1.0908  1.2341
14054TIP3   OH263576   3.858   3.331   3.035  0.3308 -0.4557  0.3097
14054TIP3    H163577   3.853   3.355   3.127 -2.2678  0.0964  0.0906
14054TIP3    H263578   3.819   3.244   3.030 -1.7718  0.4693 -0.5168
14055TIP3   OH263579   0.675   1.019  11.484  0.3852 -0.2496 -0.6292
14055TIP3    H163580   0.604   1.028  11.548  0.3212  0.1298 -0.7524
14055TIP3    H263581   0.708   1.108  11.473  1.7916 -0.6081  0.4626
14056TIP3   OH263582   2.414   5.920  13.422 -0.1553 -0.0633 -0.0381
14056TIP3    H163583   2.477   5.869  13.474 -0.0584 -1.0668 -1.0936
14056TIP3    H263584   2.336   5.864  13.418 -0.3892  0.2870 -0.4272
14057TIP3   OH263585   2.097   4.541   2.347 -0.6876 -0.0934 -0.2879
14057TIP3    H163586   2.044   4.614   2.379  1.3680  0.8636  1.1716
14057TIP3    H263587   2.162   4.526   2.417  1.3115 -0.8079 -2.1823
14058TIP3   OH263588   5.861   3.522   5.559  0.0837 -0.0530  0.3015
14058TIP3    H163589   5.847   3.584   5.630  0.8298  0.3552  0.1079
14058TIP3    H263590   5.794   3.455   5.572  0.7561 -0.4536  1.8965
14059TIP3   OH263591   6.353   5.483  15.875  0.0921 -0.2064 -0.2831
14059TIP3    H163592   6.448   5.489  15.864  0.1375 -1.5913 -0.8797
14059TIP3    H263593   6.333   5.390  15.860 -1.1334 -0.3081  1.6262
14060TIP3   OH263594   3.423   5.668   1.496  0.1109  0.0639 -0.2028
14060TIP3    H163595   3.498   5.691   1.550 -0.5220 -0.0896  0.7524
14060TIP3    H263596   3.396   5.581   1.526  1.0037 -0.9532 -2.1589
14061TIP3   OH263597   1.774   6.512  11.847  0.2293  0.5492 -0.0370
14061TIP3    H163598   1.723   6.432  11.847 -1.2580  1.4257 -1.5631
14061TIP3    H263599   1.756   6.552  11.932 -3.2350  1.7067 -1.1484
14062TIP3   OH263600   3.110   5.507   1.399 -0.1697  0.0162 -0.5616
14062TIP3    H163601   3.016   5.524   1.408 -0.3663 -0.7069 -1.0622
14062TIP3    H263602   3.118   5.412   1.414  0.3548 -0.0693 -1.3218
14063TIP3   OH263603   3.347   5.737   1.875 -0.1146  0.5148 -0.1462
14063TIP3    H163604   3.345   5.662   1.934  0.0173 -0.8778 -1.8308
14063TIP3    H263605   3.405   5.799   1.918  0.3364 -0.6285  0.9730
14064TIP3   OH263606   6.064   6.123  12.427  0.2184  0.3095  0.7230
14064TIP3    H163607   6.141   6.069  12.411  0.0397 -0.4522  2.2982
14064TIP3    H263608   6.020   6.128  12.341  1.2099 -0.5006  0.1518
14065TIP3   OH263609   1.756   4.543   1.526  0.0563  0.0333 -0.1969
14065TIP3    H163610   1.814   4.545   1.602 -1.4832  0.1819  1.0194
14065TIP3    H263611   1.675   4.505   1.558 -0.8024  0.5411 -1.6485
14066TIP3   OH263612   2.018   3.265   1.184 -0.0782 -0.1443  0.4329
14066TIP3    H163613   2.057   3.202   1.244 -1.6815 -1.5653  0.0604
14066TIP3    H263614   1.953   3.312   1.237 -0.4706 -0.3903  0.1774
14067TIP3   OH263615   0.590   4.320   4.772 -0.7703 -0.2910  0.1282
14067TIP3    H163616   0.629   4.340   4.687  0.8753 -0.8257  0.7192
14067TIP3    H263617   0.510   4.373   4.774  1.1471  2.8741 -0.1246
14068TIP3   OH263618   4.039   1.746   6.117  0.2701 -0.1475  0.4091
14068TIP3    H163619   4.103   1.679   6.141  0.1755 -0.2618  0.3458
14068TIP3    H263620   3.964   1.696   6.085 -0.3780 -0.0730  1.7293
14069TIP3   OH263621   3.469   5.496  14.656  0.1805  0.5077 -0.3423
14069TIP3    H163622   3.544   5.440  14.638 -0.0807 -0.2891  0.9181
14069TIP3    H263623   3.411   5.483  14.581  1.3117  1.2140 -1.3831
14070TIP3   OH263624   2.127   1.394  11.350 -0.0607 -0.3552  0.4893
14070TIP3    H163625   2.103   1.467  11.408 -1.2615  0.2972 -0.7793
14070TIP3    H263626   2.202   1.427  11.301 -0.3146 -0.1272  0.2457
14071TIP3   OH263627   5.136   3.487   1.088 -0.7921  0.3912  0.5989
14071TIP3    H163628   5.116   3.533   1.007 -2.7931  0.3821  1.0255
14071TIP3    H263629   5.055   3.491   1.139 -0.3645 -1.6984  1.5848
14072TIP3   OH263630   0.405   6.375  14.449  0.1369 -0.2874 -0.1685
14072TIP3    H163631   0.448   6.414  14.373  1.3121  1.0732  1.1514
14072TIP3    H263632   0.327   6.428  14.463  1.3592  1.2620  1.1877
14073TIP3   OH263633   5.441   5.515  14.976 -0.2360 -0.2818  0.1638
14073TIP3    H163634   5.377   5.493  14.908 -0.0888 -1.4958  0.3844
14073TIP3    H263635   5.396   5.578  15.033 -1.2760 -1.1666  0.3533
14074TIP3   OH263636   2.885   2.101   4.855 -0.1578 -0.2408  0.1662
14074TIP3    H163637   2.842   2.065   4.932 -1.0344  1.4412  0.5084
14074TIP3    H263638   2.827   2.171   4.825 -0.2285 -1.3180 -2.5002
14075TIP3   OH263639   2.077   2.816  15.911 -0.0658 -0.7240 -0.1752
14075TIP3    H163640   2.080   2.769  15.828  1.7530 -0.0529 -0.5344
14075TIP3    H263641   2.144   2.773  15.965  2.0787  1.6658 -0.7120
14076TIP3   OH263642   0.452   4.269  14.382  0.4907  0.3002 -0.9427
14076TIP3    H163643   0.414   4.184  14.362  0.4031  0.3359 -0.9298
14076TIP3    H263644   0.418   4.290  14.469  1.6584 -0.3101 -0.3189
14077TIP3   OH263645   6.715   6.315  13.024 -0.3252 -0.4519 -0.1055
14077TIP3    H163646   6.693   6.403  12.993  0.5830  0.1420  0.8669
14077TIP3    H263647   6.796   6.293  12.980 -0.8245 -1.0394 -0.7506
14078TIP3   OH263648   5.435   0.284   4.334  0.5633  0.2379 -0.3530
14078TIP3    H163649   5.485   0.348   4.283 -0.9272  1.2818 -0.5858
14078TIP3    H263650   5.463   0.199   4.299  3.6341  0.6031  0.9341
14079TIP3   OH263651   5.535   2.839   3.585  0.0409  0.7828 -0.0537
14079TIP3    H163652   5.611   2.810   3.635 -0.9789 -0.1215  1.0124
14079TIP3    H263653   5.538   2.787   3.504 -0.8398 -1.2183  1.1114
14080TIP3   OH263654   6.708   3.504  15.111 -0.1359 -0.2977 -0.3340
14080TIP3    H163655   6.732   3.591  15.080 -0.9982  0.7154  1.6226
14080TIP3    H263656   6.791   3.456  15.118  0.2821  0.1101 -2.0305
14081TIP3   OH263657   6.010   3.665  10.767  0.2277  0.3603 -0.0247
14081TIP3    H163658   5.965   3.748  10.751 -1.4230 -0.6545 -0.9153
14081TIP3    H263659   5.986   3.643  10.857  1.1161  1.0714  0.4098
14082TIP3   OH263660   0.439   2.678   2.195 -0.2682  0.3088 -0.4779
14082TIP3    H163661   0.474   2.767   2.181 -1.1554  0.9064  0.8972
14082TIP3    H263662   0.344   2.689   2.192 -0.3825 -0.7720 -1.1847
14083TIP3   OH263663   2.503   5.341  10.290 -0.4476 -0.0485 -0.1325
14083TIP3    H163664   2.473   5.258  10.254 -0.1433 -0.8451  1.3539
14083TIP3    H263665   2.563   5.316  10.360  0.6461  1.4502 -0.4851
14084TIP3   OH263666   4.442   0.888  12.916 -0.0641  0.1785 -0.3876
14084TIP3    H163667   4.487   0.960  12.958  0.0075 -0.2180  0.2267
14084TIP3    H263668   4.447   0.907  12.822 -0.6609  1.3232 -0.2041
14085TIP3   OH263669   0.629   1.547   0.195  0.5302 -0.3923  0.0695
14085TIP3    H163670   0.543   1.504   0.196  1.0005 -1.3780  1.5366
14085TIP3    H263671   0.687   1.482   0.157  0.8483 -0.2095  0.2428
14086TIP3   OH263672   1.636   1.971  12.602 -0.1260 -0.2533  0.5091
14086TIP3    H163673   1.657   1.898  12.661  0.9369 -0.4755 -0.1028
14086TIP3    H263674   1.550   1.950  12.567 -0.4719 -0.4650  1.4454
14087TIP3   OH263675   3.068   4.790   0.871 -0.0229 -0.2326 -0.4461
14087TIP3    H163676   3.044   4.746   0.953  0.6509 -0.5795 -0.4263
14087TIP3    H263677   3.045   4.727   0.803 -1.2502  0.3400 -0.5861
14088TIP3   OH263678   5.914   5.934  15.854  0.1791  0.1513  0.3841
14088TIP3    H163679   5.970   5.974  15.920 -0.1223 -1.8586  1.9621
14088TIP3    H263680   5.964   5.859  15.821  0.1777  0.9042 -1.4732
14089TIP3   OH263681   2.767   2.674  11.325 -0.1571  0.4298  0.3422
14089TIP3    H163682   2.740   2.622  11.400 -2.0044 -1.2775 -1.3892
14089TIP3    H263683   2.687   2.686  11.273  1.2120  0.5752 -1.8853
14090TIP3   OH263684   1.121   1.105  12.540 -0.7575 -0.0702  0.0050
14090TIP3    H163685   1.178   1.110  12.463  0.8111 -2.9822  0.8355
14090TIP3    H263686   1.038   1.071  12.506 -0.5149 -0.1045 -0.5745
14091TIP3   OH263687   5.225   5.440   0.309  0.1598 -0.0243 -0.6022
14091TIP3    H163688   5.267   5.518   0.273  0.6165 -0.4562 -1.0199
14091TIP3    H263689   5.141   5.434   0.263  0.6447 -0.4490 -1.4733
14092TIP3   OH263690   3.584   0.426  12.575  0.9016  0.2836  0.2262
14092TIP3    H163691   3.554   0.366  12.507 -0.2150 -0.0117  0.9625
14092TIP3    H263692   3.646   0.484  12.530  1.9338 -1.3283 -0.5250
14093TIP3   OH263693   2.099   5.421  17.041 -0.0383 -0.6762  0.0166
14093TIP3    H163694   2.068   5.383  16.958  1.0346  1.3576 -1.4116
14093TIP3    H263695   2.167   5.361  17.071  0.7648 -0.6025 -1.5278
14094TIP3   OH263696   6.025   3.459   1.365 -0.6496 -0.5123  0.0083
14094TIP3    H163697   6.053   3.455   1.274 -0.1424 -1.5507  0.1955
14094TIP3    H263698   6.052   3.546   1.395 -0.0511 -0.4901 -0.5874
14095TIP3   OH263699   3.168   3.180  14.960  0.1559  0.4242  0.0059
14095TIP3    H163700   3.240   3.219  14.910 -0.1467  0.5247 -0.3598
14095TIP3    H263701   3.118   3.132  14.894  1.3586 -1.8673  0.6682
14096TIP3   OH263702   6.251   1.955   4.081  0.5826  0.7601 -0.1104
14096TIP3    H163703   6.168   1.964   4.035  0.7676  0.0501 -0.6121
14096TIP3    H263704   6.267   1.860   4.083  0.7673  0.7958  1.0950
14097TIP3   OH263705   1.387   3.165  13.239 -0.1392  0.4169  0.4436
14097TIP3    H163706   1.386   3.260  13.225 -0.3912  0.0765 -2.4457
14097TIP3    H263707   1.385   3.128  13.151  0.5332 -2.2980  1.4781
14098TIP3   OH263708   5.502   5.316  13.093 -0.7983  0.2404  0.3956
14098TIP3    H163709   5.490   5.229  13.054  1.0541 -0.0523  0.3898
14098TIP3    H263710   5.486   5.377  13.021  0.0658 -0.2016 -0.1924
14099TIP3   OH263711   5.086   6.413  15.721 -0.1222  0.1193  0.1219
14099TIP3    H163712   5.098   6.507  15.706  0.0559  0.0304 -0.3269
14099TIP3    H263713   5.107   6.400  15.813  2.4535  0.1134 -0.3905
14100TIP3   OH263714   2.249   3.119   4.916 -0.0969 -0.8007 -0.6586
14100TIP3    H163715   2.222   3.174   4.990 -0.0404 -1.5116 -0.0962
14100TIP3    H263716   2.174   3.062   4.900  0.1606 -1.1384 -0.6710
14101TIP3   OH263717   0.240   3.038   3.166  0.3271  0.0479  0.2900
14101TIP3    H163718   0.185   2.960   3.165 -0.4200  0.5587  0.3945
14101TIP3    H263719   0.205   3.091   3.238  1.6674 -0.1041  1.0786
14102TIP3   OH263720   2.459   3.773   2.377 -0.5072 -0.2690  0.8126
14102TIP3    H163721   2.429   3.689   2.342  0.4031 -0.4247  0.3568
14102TIP3    H263722   2.426   3.838   2.316 -0.5966 -0.3691  0.7549
14103TIP3   OH263723   6.642   5.884  12.694 -0.0563  0.0967  0.1434
14103TIP3    H163724   6.576   5.915  12.755  1.5391  1.0986  1.4229
14103TIP3    H263725   6.660   5.958  12.637  0.2574 -0.0379  0.0627
14104TIP3   OH263726   3.602   4.634   2.733  0.3632  0.3604 -0.4383
14104TIP3    H163727   3.655   4.691   2.678 -0.5109  1.6356 -0.0194
14104TIP3    H263728   3.581   4.559   2.678  1.2430  0.6165 -1.1300
14105TIP3   OH263729   1.711   5.499  12.086 -0.5713 -0.6923 -0.6321
14105TIP3    H163730   1.754   5.583  12.099  0.7868 -1.4997  0.4691
14105TIP3    H263731   1.697   5.493  11.992  0.6564  0.1320 -0.8879
14106TIP3   OH263732   3.494   2.598  13.160  0.1317 -0.4351 -0.0608
14106TIP3    H163733   3.486   2.561  13.248  0.9921 -0.9031 -0.1675
14106TIP3    H263734   3.505   2.692  13.174 -0.4875 -0.4084  0.2862
14107TIP3   OH263735   4.061   3.848  16.360 -0.2386  0.3015 -0.1024
14107TIP3    H163736   4.055   3.943  16.369 -1.9222  0.2315 -0.1876
14107TIP3    H263737   3.977   3.822  16.321  0.3730 -1.1756 -0.4998
14108TIP3   OH263738   1.203   0.178  12.251 -0.1226 -0.0826 -0.1130
14108TIP3    H163739   1.176   0.160  12.161  1.6558  1.5082 -1.0243
14108TIP3    H263740   1.232   0.093  12.284 -0.7442 -0.6774 -1.0378
14109TIP3   OH263741   0.224   1.837  16.656  0.3551  0.1674 -0.4355
14109TIP3    H163742   0.277   1.853  16.734  3.6195  0.4589 -2.5060
14109TIP3    H263743   0.139   1.874  16.677  1.4615  1.3513  2.5296
14110TIP3   OH263744   1.909   2.792   3.000  0.3148 -0.2421 -0.1975
14110TIP3    H163745   1.929   2.699   2.989  1.1292 -0.0338 -0.5050
14110TIP3    H263746   1.976   2.824   3.060  1.7170  0.7226 -2.1760
14111TIP3   OH263747   1.922   2.024   2.614  0.1097  0.6051 -0.7788
14111TIP3    H163748   1.864   2.087   2.656  2.1190  0.9419  1.7736
14111TIP3    H263749   1.896   2.025   2.522 -1.5552  3.3250 -0.4023
14112TIP3   OH263750   1.211   3.329   3.183 -0.0734 -0.8605  0.3521
14112TIP3    H163751   1.177   3.243   3.209  0.2530 -1.0979  0.0053
14112TIP3    H263752   1.287   3.343   3.239 -0.0928 -0.8228  0.3691
14113TIP3   OH263753   3.561   1.180  13.416 -0.0976 -0.1213 -0.2526
14113TIP3    H163754   3.509   1.246  13.369 -0.6914 -0.2706  0.1783
14113TIP3    H263755   3.642   1.226  13.439 -0.2087  0.2457 -0.5716
14114TIP3   OH263756   3.576   2.067   1.593 -0.3390 -0.0565 -0.0164
14114TIP3    H163757   3.623   2.085   1.512 -1.8175 -1.0491 -1.1331
14114TIP3    H263758   3.527   1.987   1.576 -1.0401 -0.0522  1.7123
14115TIP3   OH263759   4.325   6.697   4.607 -1.0515  0.3734 -0.1287
14115TIP3    H163760   4.288   6.611   4.628 -0.0704 -0.0746 -0.2001
14115TIP3    H263761   4.384   6.716   4.681  0.7807 -0.2380 -1.3700
14116TIP3   OH263762   2.706   1.373  10.426 -0.6126  0.0706  0.0081
14116TIP3    H163763   2.721   1.287  10.463 -1.2922 -1.6239 -3.2485
14116TIP3    H263764   2.788   1.420  10.440 -0.1794 -1.1175  1.7502
14117TIP3   OH263765   3.691   3.223   2.283  0.0049 -0.2102 -0.3307
14117TIP3    H163766   3.709   3.129   2.278 -1.5328 -0.5772  0.4581
14117TIP3    H263767   3.695   3.252   2.192  1.5455 -0.7934 -0.4938
14118TIP3   OH263768   5.205   2.454   4.126  0.4641  0.2408  0.2816
14118TIP3    H163769   5.215   2.400   4.048 -2.6191  1.4541 -1.0921
14118TIP3    H263770   5.235   2.541   4.099 -1.4340  0.8758  0.1071
14119TIP3   OH263771   1.215   3.255  12.721  0.4470 -0.1558 -0.1798
14119TIP3    H163772   1.211   3.201  12.800 -0.3269  0.9370  0.5558
14119TIP3    H263773   1.308   3.274  12.711  0.8084 -1.9689 -0.7373
14120TIP3   OH263774   1.245   3.654   4.416  0.1547  0.1257  0.1221
14120TIP3    H163775   1.212   3.734   4.375  2.0616  0.9185  0.0298
14120TIP3    H263776   1.244   3.589   4.346  1.0481  0.7927 -0.5231
14121TIP3   OH263777   5.492   3.747  13.466 -0.2219 -0.0890  0.2537
14121TIP3    H163778   5.539   3.767  13.384 -0.5403 -1.0734 -0.1761
14121TIP3    H263779   5.441   3.827  13.484  1.1489  0.7805  0.4227
14122TIP3   OH263780   1.588   1.573  13.016  0.4033 -0.7681  0.3029
14122TIP3    H163781   1.510   1.619  13.048 -0.7900 -1.4211 -1.4799
14122TIP3    H263782   1.617   1.624  12.940  2.5161  0.1619  1.6630
14123TIP3   OH263783   5.044   3.781   5.832  0.1970  0.4007 -0.7455
14123TIP3    H163784   5.130   3.812   5.862 -0.2392  0.8409  0.0925
14123TIP3    H263785   5.060   3.692   5.802  1.0173  0.5964 -0.9134
14124TIP3   OH263786   3.503   4.714   1.006  0.0528  0.4785  0.9736
14124TIP3    H163787   3.472   4.781   0.944 -0.1443 -0.2023  0.3227
14124TIP3    H263788   3.558   4.762   1.067  1.1058  1.0166 -0.3365
14125TIP3   OH263789   5.442   4.872  16.962 -0.1045  0.2555 -0.0255
14125TIP3    H163790   5.435   4.797  17.021 -0.7949  1.1001  1.0047
14125TIP3    H263791   5.532   4.903  16.973 -1.0370  2.3153  3.0909
14126TIP3   OH263792   6.480   6.273   5.040  0.1985  0.3340 -0.1582
14126TIP3    H163793   6.430   6.207   4.992  0.0623 -0.4395  1.0255
14126TIP3    H263794   6.566   6.273   4.997 -0.5327  1.1667 -1.7427
14127TIP3   OH263795   0.600   0.729  15.648  0.1481 -0.3282  0.0934
14127TIP3    H163796   0.637   0.817  15.655 -0.5645  0.0291 -0.4907
14127TIP3    H263797   0.510   0.743  15.617 -0.1981 -1.2245  0.6384
14128TIP3   OH263798   1.090   5.144  13.318  0.1575 -0.3864 -0.0380
14128TIP3    H163799   0.995   5.140  13.320  0.0758  1.0159  0.7587
14128TIP3    H263800   1.115   5.163  13.409  1.0924  0.5963 -0.4730
14129TIP3   OH263801   3.389   2.923   0.323  0.3477  0.2306  0.2889
14129TIP3    H163802   3.369   2.987   0.391 -2.1938  1.0392 -1.0830
14129TIP3    H263803   3.457   2.867   0.361 -0.1682  1.3197  3.0136
14130TIP3   OH263804   0.496   0.115  12.037  0.1570 -0.3442  0.1120
14130TIP3    H163805   0.466   0.083  11.953 -0.8602 -0.6184  0.5712
14130TIP3    H263806   0.564   0.053  12.064  0.5425 -0.2118 -0.5215
14131TIP3   OH263807   1.729   1.637   3.353 -0.9852  0.5378  0.2953
14131TIP3    H163808   1.751   1.729   3.372 -0.8312  0.7752 -0.9912
14131TIP3    H263809   1.644   1.642   3.309 -1.1564  0.0269  0.5629
14132TIP3   OH263810   4.605   4.197  12.600  0.2866 -0.7730  0.0733
14132TIP3    H163811   4.682   4.202  12.544  0.1055  0.5954 -0.0994
14132TIP3    H263812   4.636   4.156  12.680  0.7016 -2.1457 -0.7512
14133TIP3   OH263813   1.480   6.698   1.940  0.0652  0.2327  0.5869
14133TIP3    H163814   1.429   6.755   1.998 -1.6855 -1.3419  0.6931
14133TIP3    H263815   1.478   6.742   1.855 -0.7535  0.6349  0.8072
14134TIP3   OH263816   5.542   3.637  15.113 -0.2104  0.3462  1.0407
14134TIP3    H163817   5.565   3.587  15.191 -2.8873 -0.1580  1.6324
14134TIP3    H263818   5.565   3.728  15.135  1.6508 -0.1418  1.2531
14135TIP3   OH263819   1.333   0.175  11.705  0.1855  0.0444  0.0737
14135TIP3    H163820   1.245   0.202  11.682  0.2229  1.3913  1.3793
14135TIP3    H263821   1.376   0.158  11.620 -1.4969 -1.3657 -0.5539
14136TIP3   OH263822   2.753   5.136  11.543 -0.4446 -0.0930  0.0305
14136TIP3    H163823   2.680   5.143  11.605 -1.9559 -0.1043 -1.6702
14136TIP3    H263824   2.743   5.050  11.503  0.0699  0.1926 -0.7410
14137TIP3   OH263825   6.661   2.447  15.706  0.3001 -0.1976 -0.3449
14137TIP3    H163826   6.736   2.439  15.765 -0.8426  0.8036  1.3495
14137TIP3    H263827   6.585   2.435  15.763 -0.8605 -2.6255 -2.2543
14138TIP3   OH263828   2.670   2.744  15.298  0.4743 -0.3516  0.4116
14138TIP3    H163829   2.583   2.758  15.262  1.2616  2.4086 -0.6564
14138TIP3    H263830   2.668   2.788  15.383  1.3151  1.4777 -0.4586
14139TIP3   OH263831   1.809   4.786   4.056  0.6547  0.3374  0.1031
14139TIP3    H163832   1.825   4.875   4.025  2.1108 -0.4117 -1.4354
14139TIP3    H263833   1.830   4.730   3.981 -1.8185 -1.2586  0.4819
14140TIP3   OH263834   3.208   1.298   2.793  0.3453  0.0467 -0.1926
14140TIP3    H163835   3.255   1.326   2.872  1.1295 -0.6648 -0.3921
14140TIP3    H263836   3.182   1.208   2.810 -0.5940  0.2972 -0.2581
14141TIP3   OH263837   0.935   6.355  16.604  0.4374 -0.0794  0.3685
14141TIP3    H163838   0.953   6.446  16.626  0.0418  0.0445  0.1802
14141TIP3    H263839   0.862   6.330  16.661 -0.2126  0.0713 -0.3911
14142TIP3   OH263840   0.033   3.981  10.794 -0.0272 -0.5767 -0.1461
14142TIP3    H163841  -0.006   4.064  10.765 -0.2396 -0.3281  0.8187
14142TIP3    H263842   0.116   3.976  10.747 -0.1614  0.0232 -0.4609
14143TIP3   OH263843   1.154   1.626  15.420 -0.1466  0.1169  0.2200
14143TIP3    H163844   1.153   1.675  15.503 -1.2099 -1.5592  1.2690
14143TIP3    H263845   1.246   1.609  15.403  0.1659  1.5019  0.4114
14144TIP3   OH263846   5.448   5.863  12.712 -0.2688  0.0268 -0.2574
14144TIP3    H163847   5.466   5.955  12.695  0.6316 -0.0140  0.4380
14144TIP3    H263848   5.521   5.816  12.672  1.4372 -0.1268  2.6870
14145TIP3   OH263849   4.809   0.867  12.219  0.4181 -0.3143  0.2901
14145TIP3    H163850   4.894   0.878  12.262  0.1189  0.3123  0.7400
14145TIP3    H263851   4.751   0.840  12.290  0.1947 -0.5270  0.0255
14146TIP3   OH263852   6.493   0.339  15.911  0.2661  0.1370  0.0142
14146TIP3    H163853   6.545   0.382  15.844  0.2787  2.1035  1.2240
14146TIP3    H263854   6.504   0.393  15.989 -1.6055 -0.7920  0.9916
14147TIP3   OH263855   6.378   5.472   2.377  0.5065  0.0896 -0.4972
14147TIP3    H163856   6.426   5.488   2.459  2.0959 -0.7102 -1.2225
14147TIP3    H263857   6.323   5.396   2.397  2.8293 -1.7947 -0.8496
14148TIP3   OH263858   3.894   1.732  11.904  0.3383  0.1791  0.0974
14148TIP3    H163859   3.829   1.714  11.836  1.3292 -0.4643 -0.7048
14148TIP3    H263860   3.843   1.769  11.976 -0.8445  0.1615 -0.6960
14149TIP3   OH263861   4.802   2.395  12.134  0.3177 -0.3853 -0.5520
14149TIP3    H163862   4.843   2.360  12.214  1.1458 -1.6212 -1.4654
14149TIP3    H263863   4.710   2.407  12.157  0.5562 -0.6478  0.6085
14150TIP3   OH263864   0.077   2.074  12.360 -0.3773  0.0319 -0.1149
14150TIP3    H163865   0.043   2.090  12.448  0.1332  0.3625  0.0197
14150TIP3    H263866   0.028   1.996  12.330 -1.2080  0.4582  0.1006
14151TIP3   OH263867   4.486   2.232   2.589 -0.2510  0.7506 -0.3155
14151TIP3    H163868   4.448   2.254   2.504 -0.6098 -0.3623 -0.4525
14151TIP3    H263869   4.581   2.236   2.575 -0.2671 -1.1452 -1.2650
14152TIP3   OH263870   5.155   2.738  11.459  0.3149 -0.1964  0.5458
14152TIP3    H163871   5.097   2.667  11.433 -0.1162  0.0062  0.9445
14152TIP3    H263872   5.110   2.780  11.532  0.6389  0.3937  0.4079
14153TIP3   OH263873   6.017   2.059  12.654  0.1418 -0.0358  0.2221
14153TIP3    H163874   6.009   2.097  12.566 -1.1951  0.4593  0.5388
14153TIP3    H263875   6.015   2.134  12.713  0.9240 -0.3788  0.6966
14154TIP3   OH263876   0.846   1.205   5.952 -0.2755 -0.2665 -1.1669
14154TIP3    H163877   0.890   1.228   6.033 -0.4260 -3.2961 -0.1008
14154TIP3    H263878   0.905   1.236   5.883  0.6442  0.9134  0.1067
14155TIP3   OH263879   5.367   1.505   5.988  0.0929  0.4398 -0.2137
14155TIP3    H163880   5.370   1.595   6.021 -0.0627  0.1512  0.6175
14155TIP3    H263881   5.311   1.510   5.910  2.2067  1.5288 -1.7814
14156TIP3   OH263882   6.211   1.544   2.043  0.2992  0.3785  0.5400
14156TIP3    H163883   6.185   1.630   2.009  0.7539  0.0099 -0.8144
14156TIP3    H263884   6.304   1.553   2.064  0.6986 -0.1104 -0.8626
14157TIP3   OH263885   4.859   1.466   2.979  0.5006  0.8805 -0.3174
14157TIP3    H163886   4.777   1.465   2.930  0.0206  0.0613  0.4876
14157TIP3    H263887   4.841   1.519   3.057  0.1945 -0.7495  0.7481
14158TIP3   OH263888   4.643   5.532  16.557 -0.4433  0.5692  0.1539
14158TIP3    H163889   4.561   5.483  16.552  0.3395 -1.1220  2.0114
14158TIP3    H263890   4.656   5.546  16.651  1.5745  0.4119 -0.0625
14159TIP3   OH263891   4.113   3.804   6.329 -0.0460 -0.0770 -0.2467
14159TIP3    H163892   4.074   3.753   6.258 -1.5637 -0.5244  0.8632
14159TIP3    H263893   4.142   3.738   6.393 -0.7274  0.3602  0.5415
14160TIP3   OH263894   5.376   1.648   4.969 -0.2257 -0.1995 -0.1064
14160TIP3    H163895   5.319   1.636   5.045 -0.2356 -1.5467 -0.3008
14160TIP3    H263896   5.331   1.713   4.915 -0.8696 -0.1986  0.4187
14161TIP3   OH263897   2.867   5.839  15.458  0.5019 -0.0632 -0.1598
14161TIP3    H163898   2.941   5.874  15.507  0.0606  2.1001 -0.9371
14161TIP3    H263899   2.901   5.758  15.418  2.1819  0.4404  0.1669
14162TIP3   OH263900   5.653   0.107  11.676  0.7560  0.0800 -0.1953
14162TIP3    H163901   5.612   0.057  11.606 -0.7473  1.0217 -0.0321
14162TIP3    H263902   5.708   0.043  11.723 -0.1014 -1.0969 -0.7652
14163TIP3   OH263903   0.753   1.734   2.308 -0.2470 -0.3424 -0.1708
14163TIP3    H163904   0.658   1.727   2.316 -0.2954  0.3084 -0.1093
14163TIP3    H263905   0.770   1.829   2.305  0.4624 -0.4379  0.5302
14164TIP3   OH263906   3.387   3.065  11.344 -0.4128 -0.6370  0.2310
14164TIP3    H163907   3.448   3.106  11.406  0.9157 -0.1811 -1.3024
14164TIP3    H263908   3.392   2.972  11.363 -1.2930 -0.3954  1.8663
14165TIP3   OH263909   0.287   1.325   5.327  0.2773  0.4360  0.4103
14165TIP3    H163910   0.353   1.331   5.258  0.5622 -0.5337  0.5823
14165TIP3    H263911   0.225   1.395   5.306  0.8254  0.7252 -0.3217
14166TIP3   OH263912   1.060   2.549   4.533  0.3671 -1.1408 -0.0094
14166TIP3    H163913   1.155   2.542   4.546  0.3866 -0.1307  0.4443
14166TIP3    H263914   1.033   2.622   4.588 -0.6601 -1.3061 -0.2665
14167TIP3   OH263915   1.110   5.717  16.931  0.2035 -0.1908 -0.0306
14167TIP3    H163916   1.189   5.698  16.880  0.2266  0.2332 -0.1588
14167TIP3    H263917   1.046   5.746  16.867 -0.6743 -2.2851 -0.1769
14168TIP3   OH263918   2.482   4.867  10.878  0.5835 -0.0125  0.0523
14168TIP3    H163919   2.498   4.773  10.881  0.2278 -0.0469  1.5229
14168TIP3    H263920   2.550   4.901  10.819  0.3736 -1.2329 -0.9396
14169TIP3   OH263921   2.874   1.659  13.204  0.1565 -0.7145  0.5391
14169TIP3    H163922   2.958   1.677  13.162  0.4185  0.1733  1.3852
14169TIP3    H263923   2.894   1.657  13.298 -0.7692 -0.4553  0.7542
14170TIP3   OH263924   4.182   0.938   1.683  0.0824 -0.3406 -0.4098
14170TIP3    H163925   4.172   0.857   1.733  0.9071 -1.2036 -1.5945
14170TIP3    H263926   4.136   1.004   1.735  1.2885 -1.0868  1.7176
14171TIP3   OH263927   1.430   3.895   5.044 -0.2187  0.6094  0.2546
14171TIP3    H163928   1.373   3.865   4.973 -0.0999 -1.1123  0.8529
14171TIP3    H263929   1.396   3.982   5.067 -0.1206  1.3100 -2.0343
14172TIP3   OH263930   4.250   4.512   2.719 -0.1027  0.1827 -0.3822
14172TIP3    H163931   4.162   4.482   2.738  0.1185 -0.9405 -1.0737
14172TIP3    H263932   4.292   4.519   2.806 -0.5876 -0.1622 -0.1165
14173TIP3   OH263933   0.192   3.692   3.573  0.2948  0.2435  0.6271
14173TIP3    H163934   0.167   3.783   3.593 -0.6459  0.9820 -3.1365
14173TIP3    H263935   0.287   3.694   3.566  0.3434  0.7458  1.3310
14174TIP3   OH263936   5.483   4.876  14.618 -1.2644  0.7295 -0.3711
14174TIP3    H163937   5.535   4.933  14.560 -1.1054 -0.2077 -1.1726
14174TIP3    H263938   5.546   4.843  14.682 -0.7362 -0.7331 -1.5882
14175TIP3   OH263939   1.219   5.236   5.514 -0.6213  0.1607  0.1848
14175TIP3    H163940   1.308   5.203   5.518 -1.6569 -2.8427  0.5951
14175TIP3    H263941   1.195   5.253   5.605 -0.0932  2.2603 -0.0195
14176TIP3   OH263942   4.514   3.764  11.211  0.0117  0.0561 -0.1209
14176TIP3    H163943   4.591   3.715  11.241 -0.7301 -1.3406 -0.4693
14176TIP3    H263944   4.457   3.769  11.288 -0.5756 -0.9385 -0.4865
14177TIP3   OH263945   5.741   2.775  16.385 -0.4608  0.1435  0.2090
14177TIP3    H163946   5.703   2.718  16.318  0.9778  0.4837 -0.9606
14177TIP3    H263947   5.822   2.807  16.345 -0.4866  1.8325  1.4142
14178TIP3   OH263948   5.451   4.310   2.188  0.0182  0.3098  0.0301
14178TIP3    H163949   5.540   4.337   2.208  0.1334  0.7846 -1.0817
14178TIP3    H263950   5.399   4.391   2.196 -0.1366  0.2509 -0.3406
14179TIP3   OH263951   2.685   5.439  11.986 -0.4089  0.1959 -0.2003
14179TIP3    H163952   2.651   5.468  12.071  0.1167  0.1086  0.0401
14179TIP3    H263953   2.624   5.370  11.959 -0.2117 -0.2255  0.4119
14180TIP3   OH263954   4.280   1.619  12.449 -0.2420 -0.3936  0.2927
14180TIP3    H163955   4.339   1.695  12.447  0.5172 -0.9395  1.1139
14180TIP3    H263956   4.336   1.546  12.476 -1.3033 -0.9222  1.1415
14181TIP3   OH263957   4.329   0.283  12.751 -0.1783 -0.0008  0.0446
14181TIP3    H163958   4.356   0.193  12.771 -1.8253 -0.5187  0.1166
14181TIP3    H263959   4.335   0.329  12.835  1.1060  0.1097 -0.0815
14182TIP3   OH263960   5.714   3.696  16.158  0.2556 -0.0332 -0.4379
14182TIP3    H163961   5.761   3.756  16.101 -1.3607  1.6100 -0.1208
14182TIP3    H263962   5.648   3.655  16.102  1.8441 -2.2501 -0.8530
14183TIP3   OH263963   0.998   5.195  15.827  0.0994 -0.5392 -0.3079
14183TIP3    H163964   0.988   5.278  15.780 -0.4659  0.3898  1.3539
14183TIP3    H263965   0.935   5.136  15.784 -1.3271  0.6528  0.0521
14184TIP3   OH263966   0.231   2.997   6.515 -0.3351  0.4237 -0.0134
14184TIP3    H163967   0.237   3.047   6.596 -0.3632  0.7276 -0.2008
14184TIP3    H263968   0.314   2.949   6.510 -0.1420  0.7613 -0.0417
14185TIP3   OH263969   3.479   5.435   5.534 -0.2133  0.1415  0.2095
14185TIP3    H163970   3.551   5.459   5.476 -0.2512  0.4034  0.2707
14185TIP3    H263971   3.408   5.409   5.476 -1.1481  2.7955  0.0102
14186TIP3   OH263972   6.440   4.583   0.947  0.6228  0.0027 -0.0046
14186TIP3    H163973   6.496   4.614   0.876 -1.3197  3.4844 -0.2508
14186TIP3    H263974   6.351   4.591   0.912 -0.3467  0.8489  2.4245
14187TIP3   OH263975   0.471   0.270   3.419 -0.2072  0.0144 -0.5129
14187TIP3    H163976   0.537   0.309   3.476  0.3164 -0.3622 -0.8453
14187TIP3    H263977   0.453   0.337   3.353 -0.2392  0.1594 -0.3575
14188TIP3   OH263978   2.109   6.494  13.025  0.3485  0.6918  0.5224
14188TIP3    H163979   2.045   6.424  13.026  3.0382 -2.0403 -0.9137
14188TIP3    H263980   2.129   6.508  12.932  0.5914  2.7263  0.8204
14189TIP3   OH263981   1.260   0.358  15.053 -0.8763 -0.2741  0.1797
14189TIP3    H163982   1.322   0.331  14.985 -0.7384  0.7498 -0.1142
14189TIP3    H263983   1.248   0.280  15.107 -0.0767 -0.7607 -0.3294
14190TIP3   OH263984   0.321   3.598   0.642 -0.0715 -0.0366 -0.1146
14190TIP3    H163985   0.378   3.560   0.708  0.4099  0.2677 -0.3546
14190TIP3    H263986   0.334   3.693   0.651  0.1044 -0.0013 -0.7421
14191TIP3   OH263987   0.179   4.785   1.312  0.5055  0.6421  0.4019
14191TIP3    H163988   0.168   4.738   1.395 -1.0989  1.9954  1.0249
14191TIP3    H263989   0.163   4.719   1.245  1.7516 -0.4574  1.1337
14192TIP3   OH263990   0.340   4.291   3.484  0.4160 -0.3618  0.1058
14192TIP3    H163991   0.301   4.378   3.477  1.1780 -0.1089 -1.6369
14192TIP3    H263992   0.270   4.231   3.462 -0.0057 -0.1796  0.9110
14193TIP3   OH263993   2.680   1.229   4.128  0.6344 -1.1014 -0.4447
14193TIP3    H163994   2.671   1.296   4.060  0.1126 -1.3920 -0.6621
14193TIP3    H263995   2.774   1.213   4.133  1.0488  1.2006  1.1073
14194TIP3   OH263996   1.431   5.310  16.580 -1.1314  0.4054 -0.0305
14194TIP3    H163997   1.468   5.399  16.587 -1.3782  0.4494  0.8377
14194TIP3    H263998   1.376   5.313  16.502 -1.6087  1.2002  0.3225
14195TIP3   OH263999   5.875   3.243   5.381  0.4629 -0.1567 -0.1881
14195TIP3    H164000   5.810   3.282   5.440 -0.0213  3.7620 -2.9403
14195TIP3    H264001   5.959   3.266   5.422  0.1393  0.0210  0.4017
14196TIP3   OH264002   2.772   1.305   0.152 -0.0745  0.1991  0.4192
14196TIP3    H164003   2.770   1.295   0.247 -3.6194 -0.5142  0.4323
14196TIP3    H264004   2.701   1.248   0.121  1.7249 -0.5524 -2.8163
14197TIP3   OH264005   2.173   2.382  12.876 -0.5180  0.5937  0.0056
14197TIP3    H164006   2.116   2.408  12.804 -0.2451  1.4413  0.0897
14197TIP3    H264007   2.261   2.407  12.849 -0.1984 -0.4983 -0.0207
14198TIP3   OH264008   0.701   2.553   3.428 -0.9741  0.0971 -0.4685
14198TIP3    H164009   0.643   2.499   3.481 -2.5921  0.4512 -1.8149
14198TIP3    H264010   0.688   2.642   3.461  1.5612 -0.1499  1.6296
14199TIP3   OH264011   4.282   5.649  10.978  0.3220  0.2840  0.3103
14199TIP3    H164012   4.357   5.688  11.024  0.2543 -1.8781  2.4449
14199TIP3    H264013   4.318   5.617  10.895  1.4648  0.4365  0.7333
14200TIP3   OH264014   1.196   0.649  13.458 -0.2280 -0.2963 -0.0700
14200TIP3    H164015   1.283   0.627  13.489  0.6950 -1.4680 -3.0718
14200TIP3    H264016   1.139   0.581  13.497 -0.0159  0.8422  2.4009
14201TIP3   OH264017   3.891   0.747  16.246  0.3715 -0.3205 -0.1584
14201TIP3    H164018   3.984   0.760  16.226  0.8255  1.6205  2.5459
14201TIP3    H264019   3.884   0.653  16.266  0.9719 -1.1741 -3.3584
14202TIP3   OH264020   1.174   4.039  14.413 -0.3710 -0.1555  0.1693
14202TIP3    H164021   1.206   4.066  14.499 -1.4069 -0.1377  0.5540
14202TIP3    H264022   1.171   4.120  14.362 -1.1990  0.0925  0.5923
14203TIP3   OH264023   4.343   1.703  14.387  0.0232  0.5773  0.1268
14203TIP3    H164024   4.430   1.743  14.383  0.1045  0.3413 -0.6329
14203TIP3    H264025   4.300   1.746  14.461  0.6400  0.9856  0.2532
14204TIP3   OH264026   5.183   2.711   0.147 -0.2011 -0.1955  0.3280
14204TIP3    H164027   5.254   2.715   0.083  0.7097  0.5925  1.3577
14204TIP3    H264028   5.133   2.633   0.122  1.2714 -1.0247 -0.1440
14205TIP3   OH264029   5.288   1.841   0.176  0.1224 -0.1213  0.1024
14205TIP3    H164030   5.294   1.915   0.116  0.6167 -0.3282 -0.1163
14205TIP3    H264031   5.360   1.783   0.149  0.7921  0.1021  1.3410
14206TIP3   OH264032   5.506   4.765   5.530  0.5556 -0.3254  0.0600
14206TIP3    H164033   5.460   4.738   5.609 -0.0601  1.0359  0.2019
14206TIP3    H264034   5.543   4.851   5.552 -0.5546  0.6051 -1.4367
14207TIP3   OH264035   0.250   6.344  12.682  0.1237  0.2340  0.3326
14207TIP3    H164036   0.280   6.392  12.759  0.1741 -0.9250  1.0664
14207TIP3    H264037   0.328   6.339  12.626 -0.1654  1.9227 -0.2719
14208TIP3   OH264038   0.293   0.890   6.900  0.5717  0.1177 -0.1387
14208TIP3    H164039   0.203   0.921   6.911 -0.0486 -1.2785 -1.0027
14208TIP3    H264040   0.286   0.820   6.835  1.8715 -1.8055  1.6732
14209TIP3   OH264041   6.321   3.922  16.640  0.5348  0.1768 -0.3582
14209TIP3    H164042   6.286   3.952  16.724 -1.5303 -0.6817 -0.8488
14209TIP3    H264043   6.393   3.864  16.664  0.8702  1.0002  0.7560
14210TIP3   OH264044   2.125   5.325   3.407 -0.0083 -0.7666 -0.7969
14210TIP3    H164045   2.086   5.388   3.345 -0.8192  0.1311  0.5747
14210TIP3    H264046   2.208   5.365   3.432 -1.0446  0.4022  0.9644
14211TIP3   OH264047   2.285   0.235  15.585  0.0686  0.2751 -0.3854
14211TIP3    H164048   2.196   0.227  15.551  0.0581 -0.3689 -0.2077
14211TIP3    H264049   2.335   0.168  15.538  0.1473 -0.3357  0.5567
14212TIP3   OH264050   4.937   5.859   1.464  0.0896 -0.1715 -0.3965
14212TIP3    H164051   4.888   5.908   1.531 -0.2461 -1.3487  0.2380
14212TIP3    H264052   4.927   5.767   1.489  1.8608 -0.5067 -0.7751
14213TIP3   OH264053   4.493   1.051   2.201  0.4037 -0.6549  0.7394
14213TIP3    H164054   4.567   1.054   2.261  0.9682  1.2335  0.0128
14213TIP3    H264055   4.521   1.101   2.125 -1.2853 -0.6973  0.0360
14214TIP3   OH264056   5.102   2.257   1.079  0.3855  0.7182 -0.6222
14214TIP3    H164057   5.174   2.262   1.142  0.4868  1.1974 -0.7669
14214TIP3    H264058   5.129   2.191   1.015  0.3577  0.3550 -0.2568
14215TIP3   OH264059   2.211   1.471  12.093 -0.3630  0.0658  0.1623
14215TIP3    H164060   2.186   1.379  12.083  0.8152 -0.4410  1.6606
14215TIP3    H264061   2.216   1.503  12.003 -1.4180 -1.1367 -0.3771
14216TIP3   OH264062   6.567   0.495  15.662  0.0578 -0.2270 -0.2287
14216TIP3    H164063   6.496   0.549  15.627 -0.1923  0.5201  1.3697
14216TIP3    H264064   6.643   0.519  15.609 -0.6666 -0.3651 -1.3588
14217TIP3   OH264065   3.633   1.753  11.136  0.0512  0.2271 -0.0677
14217TIP3    H164066   3.609   1.845  11.120  1.0865  0.4912 -0.1876
14217TIP3    H264067   3.728   1.751  11.126  0.9595  0.3682  5.4713
14218TIP3   OH264068   2.957   6.780  12.402  0.3634  0.4150 -0.1013
14218TIP3    H164069   2.997   6.772  12.489  0.2921 -1.7271 -0.1968
14218TIP3    H264070   2.960   6.691  12.367 -2.2070  0.6655 -1.1407
14219TIP3   OH264071   1.242   5.576   1.353  0.8948  0.1071  0.5985
14219TIP3    H164072   1.237   5.651   1.413 -1.8359  1.9595 -1.6261
14219TIP3    H264073   1.289   5.609   1.276  0.0359 -0.5410 -0.2423
14220TIP3   OH264074   4.265   4.315   0.473 -0.2853 -0.4713 -0.1629
14220TIP3    H164075   4.194   4.342   0.531  0.8285 -2.1058  2.0840
14220TIP3    H264076   4.227   4.242   0.423 -0.5150 -0.6566  0.2727
14221TIP3   OH264077   6.448   1.900  16.611  0.2273 -0.1986 -0.5167
14221TIP3    H164078   6.443   1.883  16.517  0.3798 -0.6221 -0.4503
14221TIP3    H264079   6.498   1.981  16.618  1.7210 -1.0688 -0.7295
14222TIP3   OH264080   3.884   1.963   4.936  0.0686  0.4163  0.3841
14222TIP3    H164081   3.846   1.961   5.023 -0.3425 -2.6593  0.2443
14222TIP3    H264082   3.825   1.910   4.882  3.0891 -2.5324 -0.4020
14223TIP3   OH264083   4.559   4.920   0.298  0.7997 -0.2718 -0.1438
14223TIP3    H164084   4.636   4.978   0.294  1.7942 -1.2418  2.7268
14223TIP3    H264085   4.575   4.864   0.374 -1.5445 -2.3159 -1.0414
14224TIP3   OH264086   0.507   3.879   1.232 -0.2591  0.0569 -0.5210
14224TIP3    H164087   0.517   3.793   1.272 -0.5010 -0.5337 -1.6881
14224TIP3    H264088   0.493   3.939   1.306 -0.7257 -0.9920  0.2594
14225TIP3   OH264089   1.766   2.112  14.842 -0.7286  0.2024  0.5285
14225TIP3    H164090   1.702   2.043  14.858 -0.7086  0.5347  2.1332
14225TIP3    H264091   1.777   2.156  14.926  0.0391  1.5083 -0.2132
14226TIP3   OH264092   2.544   1.290   3.892 -0.5388  0.0500  0.3346
14226TIP3    H164093   2.497   1.251   3.817 -1.2712  1.8367 -0.1812
14226TIP3    H264094   2.628   1.318   3.855 -0.0053 -1.0036  0.7102
14227TIP3   OH264095   1.596   5.106   0.506 -0.3860  0.1714 -0.1399
14227TIP3    H164096   1.517   5.065   0.541 -0.4096 -0.9980 -1.4795
14227TIP3    H264097   1.592   5.089   0.412 -0.2466  3.0627 -0.7454
14228TIP3   OH264098   2.443   6.319   3.456  0.0624  0.1045 -0.1375
14228TIP3    H164099   2.515   6.339   3.516 -0.5413  1.1186  0.2746
14228TIP3    H264100   2.364   6.344   3.505 -0.5382 -0.4691 -0.7922
14229TIP3   OH264101   3.734   1.923  16.277  0.0227 -0.6484  0.5182
14229TIP3    H164102   3.783   1.907  16.197  0.8387 -1.6705  1.1983
14229TIP3    H264103   3.669   1.853  16.280 -0.6263 -0.0690  0.2922
14230TIP3   OH264104   1.455   5.641  13.934 -0.5648 -0.0166  0.4371
14230TIP3    H164105   1.380   5.650  13.993 -0.4159  1.9672  0.4141
14230TIP3    H264106   1.418   5.613  13.851 -0.9253 -1.6378  1.1147
14231TIP3   OH264107   4.739   5.928  11.192 -0.3379 -0.3495  0.0700
14231TIP3    H164108   4.828   5.956  11.217 -0.4655  0.7027 -0.5846
14231TIP3    H264109   4.738   5.834  11.210  1.0843 -0.4856 -0.3894
14232TIP3   OH264110   2.550   2.300  14.809 -0.3949 -0.1958 -0.1118
14232TIP3    H164111   2.476   2.337  14.858 -1.5628  0.3411 -2.1574
14232TIP3    H264112   2.517   2.291  14.719  1.0891 -2.7424 -0.4916
14233TIP3   OH264113   4.610   5.337   2.573 -0.0281 -0.0655 -0.1893
14233TIP3    H164114   4.636   5.264   2.517 -0.2385  0.4298 -0.9445
14233TIP3    H264115   4.517   5.323   2.589  0.0224 -0.1839  0.0001
14234TIP3   OH264116   6.383   3.186  11.928 -0.2909  0.5020  0.8255
14234TIP3    H164117   6.394   3.230  11.844  0.1878 -0.8289  0.1791
14234TIP3    H264118   6.314   3.236  11.972 -1.6121  0.3380 -0.9570
14235TIP3   OH264119   5.945   0.845   4.114 -0.0284 -0.1369  0.2840
14235TIP3    H164120   5.900   0.762   4.125 -0.3427 -0.0578 -0.3418
14235TIP3    H264121   6.037   0.822   4.108 -0.2557 -0.6807 -2.0151
14236TIP3   OH264122   5.778   4.827   4.063  0.1353  0.5783 -0.1178
14236TIP3    H164123   5.826   4.752   4.029  1.6226  0.6514  1.6531
14236TIP3    H264124   5.839   4.900   4.059 -0.3949  1.0866  0.5813
14237TIP3   OH264125   5.164   6.283   6.241  0.7540  0.4809  0.6643
14237TIP3    H164126   5.167   6.357   6.302 -1.9094  0.4447  0.9245
14237TIP3    H264127   5.087   6.233   6.267  0.8001 -0.7610 -1.3720
14238TIP3   OH264128   5.686   4.439   4.684 -0.5899 -0.0827  0.7400
14238TIP3    H164129   5.718   4.485   4.606 -1.0841 -1.5075 -0.3715
14238TIP3    H264130   5.597   4.413   4.660 -0.4134 -1.3600  1.3973
14239TIP3   OH264131   5.599   6.162   2.336  0.0933 -0.6297 -0.0961
14239TIP3    H164132   5.554   6.093   2.287  0.9313 -0.8684 -0.5505
14239TIP3    H264133   5.562   6.157   2.424 -0.7162 -0.8580 -0.4404
14240TIP3   OH264134   6.688   3.851   2.066 -0.3579 -0.1143 -0.5702
14240TIP3    H164135   6.662   3.813   2.150 -1.0099 -0.6502 -1.0103
14240TIP3    H264136   6.767   3.803   2.041 -1.2646 -1.3148 -1.2005
14241TIP3   OH264137   3.751   1.349  11.579 -0.4721 -0.1820  0.0036
14241TIP3    H164138   3.731   1.352  11.485 -0.6290  2.7225  0.0461
14241TIP3    H264139   3.845   1.331  11.582 -0.1681  1.0827 -0.8220
14242TIP3   OH264140   0.389   2.695  12.315  0.4636  0.1192 -0.0561
14242TIP3    H164141   0.410   2.718  12.224 -0.0975 -2.1272 -0.8225
14242TIP3    H264142   0.331   2.619  12.308  1.1299 -0.6890  2.1821
14243TIP3   OH264143   6.454   4.759  12.345 -0.2029  0.2845  0.4724
14243TIP3    H164144   6.498   4.776  12.428 -1.0332 -0.6009  1.1211
14243TIP3    H264145   6.524   4.733  12.285  0.2120 -0.9395  1.4377
14244TIP3   OH264146   2.022   2.408  11.521  0.7520  0.7452  0.5305
14244TIP3    H164147   1.938   2.450  11.505  0.3800  0.6400  2.0657
14244TIP3    H264148   2.087   2.478  11.515  0.2805  1.2985  1.7656
14245TIP3   OH264149   3.365   0.522   0.949 -0.3283  0.1387  0.1552
14245TIP3    H164150   3.452   0.559   0.934  0.5605 -1.9674 -0.3496
14245TIP3    H264151   3.331   0.506   0.861 -1.5259  1.5183  0.3403
14246TIP3   OH264152   4.576   4.391  12.864  0.2130 -0.5898 -0.6807
14246TIP3    H164153   4.612   4.476  12.890  0.8606 -0.8442 -0.7388
14246TIP3    H264154   4.552   4.403  12.773 -2.3035  0.3864  0.0199
14247TIP3   OH264155   1.708   1.625   4.852 -0.2610  1.0492 -0.1059
14247TIP3    H164156   1.655   1.576   4.790 -0.3119  2.5224 -1.2654
14247TIP3    H264157   1.795   1.628   4.813  0.3446 -0.0996  1.0890
14248TIP3   OH264158   0.202   3.802   4.515 -0.1798 -0.3710 -0.1915
14248TIP3    H164159   0.191   3.861   4.440 -1.1633 -0.2590  0.0355
14248TIP3    H264160   0.222   3.860   4.589 -0.7179 -0.3584 -0.0562
14249TIP3   OH264161   3.243   2.363   6.171 -0.3637  0.6704 -0.1864
14249TIP3    H164162   3.220   2.311   6.094  0.8340  0.6550 -0.5510
14249TIP3    H264163   3.266   2.299   6.238 -2.9055  0.6181  0.7435
14250TIP3   OH264164   5.547   0.388  13.336 -0.0493  0.9883  0.2353
14250TIP3    H164165   5.554   0.344  13.421 -0.8067  2.4721  1.1237
14250TIP3    H264166   5.628   0.439  13.329 -0.4510  1.6905  0.5849
14251TIP3   OH264167   2.438   3.710   1.334 -0.0411  0.7918 -0.2273
14251TIP3    H164168   2.361   3.732   1.385  1.5535  1.5819  2.0068
14251TIP3    H264169   2.420   3.623   1.298 -1.6950  0.6986  0.7465
14252TIP3   OH264170   4.180   3.331  14.582  0.3207 -0.6992  0.5992
14252TIP3    H164171   4.238   3.363  14.513 -1.5507 -0.6020 -1.0037
14252TIP3    H264172   4.149   3.410  14.626 -0.3269 -0.5899 -0.0314
14253TIP3   OH264173   0.023   5.004   0.383 -0.1533  0.3170 -0.5094
14253TIP3    H164174  -0.014   4.985   0.469  0.5832 -0.0843 -0.2706
14253TIP3    H264175  -0.047   4.983   0.321 -0.3441 -0.3796 -0.0697
14254TIP3   OH264176   5.319   5.740   0.292  0.0524  0.0062 -0.0126
14254TIP3    H164177   5.260   5.728   0.217  1.0511  1.9702 -1.2014
14254TIP3    H264178   5.303   5.830   0.321  0.8978 -0.1698  1.0468
14255TIP3   OH264179   4.194   0.217  11.010  0.3418 -0.3467  0.3570
14255TIP3    H164180   4.241   0.136  10.993 -0.0714 -0.7513  1.1264
14255TIP3    H264181   4.161   0.208  11.099 -1.1149 -0.0298 -0.1239
14256TIP3   OH264182   6.048   3.388  15.286 -0.8188  0.2667 -0.2463
14256TIP3    H164183   6.088   3.355  15.205  1.5034  0.1214  0.8654
14256TIP3    H264184   5.974   3.329  15.302  0.2019 -1.2985 -0.9589
14257TIP3   OH264185   5.532   1.436   5.562 -0.0269  0.2520  0.2533
14257TIP3    H164186   5.582   1.509   5.599 -0.6821  0.1606  1.3745
14257TIP3    H264187   5.594   1.390   5.506  1.0254  0.3912  1.2623
14258TIP3   OH264188   1.019   1.239   1.646 -0.7987 -1.2640 -0.4409
14258TIP3    H164189   0.945   1.179   1.655 -1.2359 -0.6012  0.5291
14258TIP3    H264190   1.012   1.298   1.721  0.1230 -0.5352 -0.9010
14259TIP3   OH264191   0.686   2.766   1.699  0.1192 -0.1834 -0.3220
14259TIP3    H164192   0.664   2.753   1.792 -0.2359  0.8621 -0.2413
14259TIP3    H264193   0.697   2.678   1.664  0.2827 -0.5929  0.7258
14260TIP3   OH264194   6.395   6.405   1.085 -0.0216  0.6355 -0.2132
14260TIP3    H164195   6.401   6.348   1.161 -0.7845  0.6841 -0.1042
14260TIP3    H264196   6.475   6.389   1.035 -0.8609 -1.6301 -0.9420
14261TIP3   OH264197   2.035   0.336  14.638  0.1616  0.0905 -0.1872
14261TIP3    H164198   1.948   0.320  14.676 -0.2887 -0.0787 -1.2498
14261TIP3    H264199   2.035   0.429  14.617  0.4287  0.1949  0.2829
14262TIP3   OH264200   4.323   0.403   5.488  0.2636  0.9006  0.6435
14262TIP3    H164201   4.251   0.463   5.469 -0.4727 -0.1665 -0.0777
14262TIP3    H264202   4.402   0.451   5.463 -0.4970  0.2193 -3.9335
14263TIP3   OH264203   3.594   4.190  17.142  0.1503 -0.7139 -0.0871
14263TIP3    H164204   3.508   4.181  17.184 -0.8814 -1.7029 -2.2079
14263TIP3    H264205   3.653   4.213  17.213 -1.3656 -2.6071  1.9656
14264TIP3   OH264206   3.045   5.938  16.742  0.4566  0.3011 -0.2960
14264TIP3    H164207   3.051   5.995  16.819 -0.1894 -0.3026  0.2214
14264TIP3    H264208   3.028   5.851  16.778  0.3884 -0.0382 -1.1178
14265TIP3   OH264209   2.517   1.951  16.072 -0.4381  0.0783  0.0275
14265TIP3    H164210   2.593   2.009  16.074 -0.4327  0.0725  2.2406
14265TIP3    H264211   2.530   1.892  16.146 -0.9546 -2.1475 -1.5416
14266TIP3   OH264212   2.555   1.893   0.401  0.5099 -0.2986  0.3610
14266TIP3    H164213   2.614   1.934   0.339  0.8961 -0.0710  0.8722
14266TIP3    H264214   2.538   1.961   0.466 -0.9918 -0.0779 -0.2189
14267TIP3   OH264215   1.551   4.682   3.336  0.5493 -0.2590  0.0766
14267TIP3    H164216   1.456   4.684   3.347  0.6821 -0.6470  1.5478
14267TIP3    H264217   1.565   4.620   3.265 -0.2962 -0.1756 -0.1789
14268TIP3   OH264218   2.716   1.405  11.700  0.2057  0.6214 -0.4833
14268TIP3    H164219   2.654   1.333  11.695 -0.3268  0.6902  2.8857
14268TIP3    H264220   2.675   1.476  11.649 -0.9607 -0.3057 -0.8716
14269TIP3   OH264221   1.752   6.528   3.524 -0.1609  0.2412  0.3739
14269TIP3    H164222   1.782   6.492   3.441 -0.4167  0.9695 -0.0454
14269TIP3    H264223   1.756   6.623   3.512 -2.4692  0.3883  0.3362
14270TIP3   OH264224   1.458   5.961   3.439 -0.2524  0.9022  0.0497
14270TIP3    H164225   1.400   5.898   3.484 -2.2418  4.4509  2.9746
14270TIP3    H264226   1.400   6.009   3.381  0.4833  2.1927  0.3556
14271TIP3   OH264227   5.159   0.387  16.992 -0.0138 -0.1517  0.0136
14271TIP3    H164228   5.085   0.435  16.955 -1.1689 -0.5961  1.6288
14271TIP3    H264229   5.226   0.454  17.006 -0.2837  0.3470 -1.0097
14272TIP3   OH264230   4.324   4.404  13.885 -0.4987 -0.0338 -0.1913
14272TIP3    H164231   4.284   4.320  13.861 -0.6033  0.5534 -2.3219
14272TIP3    H264232   4.387   4.421  13.815 -1.4104  2.2582 -0.5500
14273TIP3   OH264233   5.311   2.263  12.865  0.0856  0.8167 -0.0065
14273TIP3    H164234   5.365   2.326  12.913  0.2902 -1.0178  2.4342
14273TIP3    H264235   5.371   2.219  12.806  0.4349  1.3436 -0.0451
14274TIP3   OH264236   3.907   0.881   0.303  0.0398  0.6396  0.4357
14274TIP3    H164237   3.996   0.891   0.269 -0.5131 -0.7059 -1.5995
14274TIP3    H264238   3.877   0.971   0.318  0.1632  1.5008 -3.3831
14275TIP3   OH264239   1.733   0.723  14.593 -0.1543 -0.6359 -0.3645
14275TIP3    H164240   1.664   0.666  14.559 -0.5252 -0.1706 -0.4050
14275TIP3    H264241   1.781   0.752  14.515 -1.6297  1.2423 -0.6459
14276TIP3   OH264242   5.863   2.644   0.315 -0.4738 -0.4217 -0.2718
14276TIP3    H164243   5.924   2.594   0.370 -0.0717 -1.3147 -1.4955
14276TIP3    H264244   5.779   2.599   0.324 -0.2631 -0.9400 -0.8656
14277TIP3   OH264245   1.099   6.197  16.066  0.5636 -0.2481 -0.0747
14277TIP3    H164246   1.040   6.250  16.013  1.4855  0.7764 -0.1361
14277TIP3    H264247   1.174   6.255  16.082  1.8140 -1.6946 -0.4885
14278TIP3   OH264248   2.616   3.961  14.185  0.1335  0.4606  0.5364
14278TIP3    H164249   2.608   4.056  14.198  2.7728  0.8604 -0.1292
14278TIP3    H264250   2.627   3.951  14.091 -0.0782 -0.5135  0.6084
14279TIP3   OH264251   6.286   2.201   0.865  0.1242  0.3476 -0.3404
14279TIP3    H164252   6.195   2.172   0.859 -0.2992  1.2685  1.0451
14279TIP3    H264253   6.280   2.295   0.881  1.3333  0.4872 -0.6215
14280TIP3   OH264254   2.799   4.641  16.231 -0.4445 -0.0691 -0.3227
14280TIP3    H164255   2.861   4.695  16.280 -1.1262  1.5172 -1.1174
14280TIP3    H264256   2.796   4.681  16.144 -2.7318  0.0612 -0.2480
14281TIP3   OH264257   5.416   4.653  16.145  0.2591  0.3955 -0.3334
14281TIP3    H164258   5.389   4.737  16.182 -1.2324  0.3897 -1.3143
14281TIP3    H264259   5.443   4.673  16.056  0.7783 -0.0379 -0.2765
14282TIP3   OH264260   2.877   3.451   3.023 -0.6304  0.0318  0.1494
14282TIP3    H164261   2.843   3.450   2.933  1.2622 -1.4481 -0.6415
14282TIP3    H264262   2.962   3.493   3.016 -0.1981 -0.6301  1.1245
14283TIP3   OH264263   0.669   4.895  14.135  0.3349  0.6471 -0.4379
14283TIP3    H164264   0.585   4.882  14.091 -0.2512  1.3446  0.4389
14283TIP3    H264265   0.648   4.944  14.214  1.5041  0.3602  0.0813
14284TIP3   OH264266   1.418   1.344   2.385 -0.1902 -0.6665  0.0646
14284TIP3    H164267   1.356   1.400   2.433 -0.0537 -1.0743  0.7354
14284TIP3    H264268   1.498   1.395   2.380  0.3491 -1.2666  1.8125
14285TIP3   OH264269   0.647   1.605  15.497 -0.2700 -0.1275  0.1470
14285TIP3    H164270   0.628   1.538  15.562 -0.3953 -1.4188 -1.1679
14285TIP3    H264271   0.727   1.575  15.453 -0.5842  0.3334 -0.7765
14286TIP3   OH264272   5.487   2.069  14.180  0.4351 -0.6794 -0.8009
14286TIP3    H164273   5.398   2.043  14.156 -0.9546  1.4112  1.5092
14286TIP3    H264274   5.522   1.994  14.228 -0.5392 -1.0965 -0.7137
14287TIP3   OH264275   4.414   3.715   2.233 -0.8111 -0.0951  0.2145
14287TIP3    H164276   4.436   3.639   2.288  1.8440 -0.2152 -0.8650
14287TIP3    H264277   4.419   3.789   2.293 -0.4538 -0.4792  0.6780
14288TIP3   OH264278   6.520   0.148   0.374 -0.4519 -0.2745  0.2414
14288TIP3    H164279   6.584   0.156   0.304 -0.8878  0.2063 -0.1073
14288TIP3    H264280   6.444   0.107   0.332 -0.1475 -1.4513  0.7989
14289TIP3   OH264281   6.423   3.728   1.567  0.0059  0.8984  0.0434
14289TIP3    H164282   6.363   3.795   1.533 -1.2285 -0.5299 -0.7184
14289TIP3    H264283   6.485   3.713   1.496  0.3150  1.2762  0.2345
14290TIP3   OH264284   6.104   2.622  17.022  0.9208 -0.0868  0.2467
14290TIP3    H164285   6.025   2.675  17.017  1.4677  0.7329 -0.0100
14290TIP3    H264286   6.083   2.544  16.971  0.7007  0.7029 -0.9357
14291TIP3   OH264287   1.065   4.272   4.098  0.0713 -0.2600  0.1313
14291TIP3    H164288   1.129   4.226   4.152  0.8824  1.2180  0.4707
14291TIP3    H264289   1.109   4.285   4.014 -0.4086 -0.7029 -0.1931
14292TIP3   OH264290   5.836   6.522   2.831 -0.2593  0.8830 -0.3852
14292TIP3    H164291   5.924   6.547   2.803  0.8802  1.6165  3.2129
14292TIP3    H264292   5.816   6.444   2.780  3.9492 -1.2924  0.7612
14293TIP3   OH264293   3.431   4.799   2.888  0.0196  0.0176 -0.1160
14293TIP3    H164294   3.462   4.789   2.798  0.1599  0.5972 -0.1372
14293TIP3    H264295   3.497   4.855   2.929 -0.5385  0.5242  0.0866
14294TIP3   OH264296   4.343   5.969  14.387  0.5004 -0.3605 -0.2620
14294TIP3    H164297   4.398   5.891  14.392 -0.0574 -0.6890  1.8385
14294TIP3    H264298   4.398   6.035  14.346  1.5114 -1.4342 -0.6952
14295TIP3   OH264299   3.715   6.677  15.799  0.2486 -0.0447 -0.1066
14295TIP3    H164300   3.717   6.758  15.849  0.7097  0.3837 -0.8091
14295TIP3    H264301   3.622   6.659  15.785  0.1440  0.2739  0.1820
14296TIP3   OH264302   3.276   6.130   3.609  0.0259  0.4064  0.0586
14296TIP3    H164303   3.221   6.053   3.622 -0.2048  0.5028 -0.3347
14296TIP3    H264304   3.215   6.197   3.576  0.6484  0.0590 -1.9314
14297TIP3   OH264305   5.678   3.979  11.686 -0.1531  0.3737  0.4958
14297TIP3    H164306   5.706   4.069  11.701 -3.3013  1.1274  3.1613
14297TIP3    H264307   5.756   3.934  11.654  1.7631  3.8153 -0.1241
14298TIP3   OH264308   3.153   1.109  15.953  0.6298  0.5678 -0.1986
14298TIP3    H164309   3.240   1.123  15.917  1.2137  0.1681  1.0205
14298TIP3    H264310   3.119   1.034  15.905  2.3724 -1.5482  1.6804
14299TIP3   OH264311   3.569   1.177   2.361  0.3168 -0.4468 -0.3757
14299TIP3    H164312   3.516   1.141   2.290 -1.1896 -1.0715  0.9956
14299TIP3    H264313   3.636   1.111   2.377  0.1525 -0.6837 -0.6611
14300TIP3   OH264314   1.211   3.221   2.604 -0.5048  0.0192 -0.0190
14300TIP3    H164315   1.248   3.185   2.523  0.0487  0.4535  0.0362
14300TIP3    H264316   1.172   3.304   2.577 -0.5321  0.0503  0.1175
14301TIP3   OH264317   4.808   0.906   3.534 -0.0173  0.4814  0.3687
14301TIP3    H164318   4.788   0.992   3.569 -0.9206  0.3089  0.2907
14301TIP3    H264319   4.825   0.921   3.441  0.2948  0.6351  0.4478
14302TIP3   OH264320   3.678   3.549  13.447 -0.2886  0.3528  0.0333
14302TIP3    H164321   3.757   3.579  13.401  0.0244 -1.1755 -0.4760
14302TIP3    H264322   3.620   3.517  13.377  0.5045 -2.7218  0.6244
14303TIP3   OH264323   4.086   1.626   4.315 -0.2963  0.2635 -0.7039
14303TIP3    H164324   4.088   1.682   4.237 -1.7324  0.7411 -0.4129
14303TIP3    H264325   4.111   1.683   4.387  1.9670 -0.3940 -0.8859
14304TIP3   OH264326   3.696   2.327   2.544 -0.3032 -0.3444  0.2182
14304TIP3    H164327   3.729   2.336   2.455 -0.5359  0.5693  0.2179
14304TIP3    H264328   3.647   2.244   2.542 -1.4838  0.3349 -0.8960
14305TIP3   OH264329   3.059   4.494   0.235 -0.2643 -0.2238  0.3464
14305TIP3    H164330   2.982   4.539   0.270 -1.8803 -2.9564  0.5602
14305TIP3    H264331   3.082   4.544   0.157 -0.7726  2.0054  1.5231
14306TIP3   OH264332   3.239   4.792  16.624 -0.4829 -0.4094  0.5777
14306TIP3    H164333   3.172   4.810  16.557 -1.3940  0.3705  1.6598
14306TIP3    H264334   3.221   4.855  16.693  0.7575 -0.8703  1.3559
14307TIP3   OH264335   0.134   3.612  15.737  0.1382  0.1993  0.0664
14307TIP3    H164336   0.190   3.686  15.758 -0.0476  0.7112 -1.1388
14307TIP3    H264337   0.193   3.547  15.700  0.1135  0.2813 -0.1202
14308TIP3   OH264338   1.356   1.867  16.704 -0.4928 -0.2109  0.0959
14308TIP3    H164339   1.314   1.883  16.619  0.4063  0.2763 -0.2737
14308TIP3    H264340   1.416   1.941  16.714  1.1720 -1.5170  0.0190
14309TIP3   OH264341   4.868   5.687  12.355 -0.2358 -0.2009  0.5394
14309TIP3    H164342   4.909   5.762  12.312 -1.5379  0.2533  0.0423
14309TIP3    H264343   4.892   5.696  12.447 -1.5691  1.6875  0.7571
14310TIP3   OH264344   0.726   2.849   1.340  0.3204 -0.0871  0.2709
14310TIP3    H164345   0.651   2.815   1.389  0.7619  0.1072  1.0966
14310TIP3    H264346   0.699   2.938   1.315  0.3073  0.0143  0.6401
14311TIP3   OH264347   2.451   6.608   4.706 -0.1942 -0.4253  0.2420
14311TIP3    H164348   2.366   6.581   4.741 -0.8319  0.9486 -0.1959
14311TIP3    H264349   2.471   6.542   4.639 -1.7045  0.1305 -0.7996
14312TIP3   OH264350   3.959   1.546  13.712  0.2903  0.8297  0.3280
14312TIP3    H164351   4.013   1.525  13.788 -0.7456 -0.2540  0.8074
14312TIP3    H264352   4.001   1.500  13.639 -0.2434 -0.4334  0.7931
14313TIP3   OH264353   4.181   5.671   1.901 -0.0619 -0.1023  0.4018
14313TIP3    H164354   4.106   5.643   1.953 -0.1325  1.7288  1.3598
14313TIP3    H264355   4.226   5.735   1.956  0.4515  1.1249 -1.3669
14314TIP3   OH264356   1.186   4.478  13.234  0.3895  0.0030  0.0378
14314TIP3    H164357   1.258   4.466  13.295  0.1580  1.5798  0.6668
14314TIP3    H264358   1.118   4.418  13.265  0.9500 -0.5568  0.2055
14315TIP3   OH264359   5.637   0.339   2.304 -0.5427  0.6439  0.1391
14315TIP3    H164360   5.642   0.357   2.211  0.5548 -1.8108 -0.3719
14315TIP3    H264361   5.712   0.384   2.342  0.5763 -0.5166 -0.6323
14316TIP3   OH264362   3.404   0.375   5.169 -0.1466  0.2802  0.0351
14316TIP3    H164363   3.470   0.391   5.102  0.7779 -1.7665  0.3813
14316TIP3    H264364   3.338   0.443   5.154  0.0539 -0.0433 -2.8683
14317TIP3   OH264365   4.307   6.024  15.009  0.0751  0.2821  0.6186
14317TIP3    H164366   4.291   6.078  14.932 -1.4790 -1.9715 -0.7335
14317TIP3    H264367   4.228   6.033  15.062 -0.1664 -0.5632  0.4188
14318TIP3   OH264368   5.319   6.312  13.300 -0.0600 -0.0644  0.2915
14318TIP3    H164369   5.403   6.346  13.270  0.8605 -1.6836  0.8758
14318TIP3    H264370   5.327   6.217  13.291 -1.5502 -0.3034  1.0749
14319TIP3   OH264371   5.010   2.643  12.716 -0.0314 -0.1828  0.1365
14319TIP3    H164372   4.925   2.602  12.697 -1.1530  1.7208  0.7450
14319TIP3    H264373   5.039   2.601  12.797 -0.7727 -0.3346  0.3370
14320TIP3   OH264374   6.191   4.026   0.172  0.8918 -0.2818  0.5179
14320TIP3    H164375   6.182   4.050   0.264  2.7899  2.0297  0.1946
14320TIP3    H264376   6.253   3.953   0.172  1.3797  0.1256  1.0495
14321TIP3   OH264377   2.645   3.204  15.328  0.0196  1.0799  0.5044
14321TIP3    H164378   2.585   3.200  15.402  0.5194 -0.8168  0.8408
14321TIP3    H264379   2.727   3.167  15.360  0.0135 -0.5493 -1.1902
14322TIP3   OH264380   3.317   2.469  12.655 -0.5258 -0.2889  0.3169
14322TIP3    H164381   3.229   2.503  12.641 -0.2291 -0.3780 -2.2309
14322TIP3    H264382   3.375   2.536  12.617  0.3248 -1.3914 -0.3961
14323TIP3   OH264383   1.291   4.510  11.798 -0.2278  0.2574  0.0130
14323TIP3    H164384   1.251   4.539  11.880 -0.7984 -1.4526  0.3882
14323TIP3    H264385   1.346   4.436  11.824  1.0595  0.8615 -0.9096
14324TIP3   OH264386   0.952   5.746   5.136  0.3022  0.3507  0.1740
14324TIP3    H164387   0.933   5.765   5.227  1.7212  0.9435  0.3804
14324TIP3    H264388   0.870   5.764   5.090 -0.5263 -0.2744  1.3470
14325TIP3   OH264389   4.254   6.537  12.496  0.4465  0.1893  0.0419
14325TIP3    H164390   4.180   6.501  12.447 -0.9061  0.0030  2.1002
14325TIP3    H264391   4.283   6.465  12.553  1.1252  0.7690  0.4528
14326TIP3   OH264392   1.171   0.005   6.749  0.6992  0.2455  0.4660
14326TIP3    H164393   1.138   0.046   6.829  0.9744 -0.3987  0.9170
14326TIP3    H264394   1.098  -0.049   6.718  0.1311  1.4886 -0.4438
14327TIP3   OH264395   6.355   4.762   4.262  0.6101  0.1246  0.5020
14327TIP3    H164396   6.299   4.748   4.185  1.9494 -0.1404 -0.4610
14327TIP3    H264397   6.296   4.797   4.328 -0.4755  1.0121 -0.8683
14328TIP3   OH264398   4.458   3.228   5.800  0.1614 -0.3145 -0.8881
14328TIP3    H164399   4.462   3.311   5.847  0.8136 -1.4882  1.2602
14328TIP3    H264400   4.544   3.219   5.759 -0.1952  0.4303 -1.8265
14329TIP3   OH264401   0.537   5.121  15.804 -0.3011  0.5074  0.0755
14329TIP3    H164402   0.483   5.198  15.786 -1.3130 -0.4452 -1.0640
14329TIP3    H264403   0.615   5.133  15.749 -0.1571  1.0050  0.3769
14330TIP3   OH264404   1.586   5.433  14.086 -0.2416 -0.0706  0.3335
14330TIP3    H164405   1.536   5.488  14.026 -0.8675 -0.8262  0.1320
14330TIP3    H264406   1.520   5.379  14.129  0.3356 -0.5734  0.6051
14331TIP3   OH264407   6.612   4.767   2.136  0.0884  0.1466  0.0056
14331TIP3    H164408   6.695   4.777   2.182 -0.2348 -0.3103  0.6961
14331TIP3    H264409   6.550   4.820   2.185  0.1923  1.3899 -1.1440
14332TIP3   OH264410   0.289   2.433   0.602  0.2215 -0.3578 -0.1631
14332TIP3    H164411   0.370   2.462   0.560  1.1165  0.0201  1.7111
14332TIP3    H264412   0.313   2.422   0.694 -1.0844 -3.2480 -0.0754
14333TIP3   OH264413   6.090   0.684   1.191 -0.4555 -0.2217  0.4813
14333TIP3    H164414   6.081   0.623   1.264  0.4432 -1.2724 -0.2486
14333TIP3    H264415   6.097   0.770   1.232  1.1934 -0.8999  1.7123
14334TIP3   OH264416   5.247   6.048   3.535 -0.0152  0.1717  0.2277
14334TIP3    H164417   5.339   6.022   3.537  0.1220  0.5141 -0.8714
14334TIP3    H264418   5.242   6.111   3.463 -1.5859 -1.6918 -1.3993
14335TIP3   OH264419   4.568   5.626   1.289 -0.3640  0.4277  0.0066
14335TIP3    H164420   4.593   5.545   1.334 -1.2148 -1.0541 -2.0295
14335TIP3    H264421   4.648   5.654   1.245  0.0990  1.1049  1.2134
14336TIP3   OH264422   6.206   5.308  10.740 -0.2047 -0.2247 -0.2230
14336TIP3    H164423   6.273   5.285  10.804 -1.3341  0.4476  1.2415
14336TIP3    H264424   6.200   5.403  10.744 -0.2113 -0.1561 -1.4448
14337TIP3   OH264425   2.162   3.024   5.926  0.9027  0.1479  0.4897
14337TIP3    H164426   2.201   2.969   5.995 -1.6379 -1.3190  0.9089
14337TIP3    H264427   2.131   3.101   5.972  0.5102 -0.1505  0.7293
14338TIP3   OH264428   2.385   5.356  11.904 -0.1309 -0.1108  0.0938
14338TIP3    H164429   2.369   5.422  11.837 -0.9589  0.1298  0.5129
14338TIP3    H264430   2.343   5.277  11.869 -1.3257  0.2343  0.6915
14339TIP3   OH264431   6.587   4.259  16.589 -0.4135 -0.3461  0.6142
14339TIP3    H164432   6.616   4.231  16.676  1.5229  0.5208  0.2887
14339TIP3    H264433   6.570   4.177  16.543  2.5782 -1.0385  0.5285
14340TIP3   OH264434   4.286   2.875   0.575  0.9945 -0.0975 -0.6054
14340TIP3    H164435   4.233   2.805   0.537  0.5913  0.1217 -0.4456
14340TIP3    H264436   4.373   2.835   0.585  1.0670 -0.2176 -1.5752
14341TIP3   OH264437   6.669   4.339   0.192 -0.3773  0.0422 -0.1559
14341TIP3    H164438   6.713   4.390   0.260  0.3244 -1.0652  0.2505
14341TIP3    H264439   6.705   4.373   0.110 -0.5609  0.7784  0.0628
14342TIP3   OH264440   3.308   1.401   1.398  0.2908 -0.1876  0.3858
14342TIP3    H164441   3.329   1.341   1.326 -1.4069  0.2616 -0.5149
14342TIP3    H264442   3.356   1.481   1.377  1.3959 -0.6999  0.8368
14343TIP3   OH264443   2.578   5.637   4.049 -0.5614 -0.1297  0.0607
14343TIP3    H164444   2.595   5.685   4.130  1.5680  0.8999 -0.9257
14343TIP3    H264445   2.661   5.595   4.028 -0.6697  0.6430 -2.2031
14344TIP3   OH264446   5.969   2.928   2.971  0.2490 -0.0254  0.0333
14344TIP3    H164447   6.032   2.876   3.021 -1.6813 -1.1420  1.4713
14344TIP3    H264448   5.946   2.872   2.897 -0.0598 -0.2064  0.2648
14345TIP3   OH264449   0.623   3.248   3.085  0.0323  0.4532  0.0739
14345TIP3    H164450   0.708   3.251   3.127 -0.1763 -0.1884  0.5500
14345TIP3    H264451   0.596   3.340   3.077  0.2233  0.5937  1.0301
14346TIP3   OH264452   0.114   6.474   1.898 -0.4681  0.2941 -0.5897
14346TIP3    H164453   0.161   6.557   1.903 -1.2905  0.6953  1.4786
14346TIP3    H264454   0.022   6.499   1.904 -0.6781 -0.8235  1.7821
14347TIP3   OH264455   1.799   2.327  13.395  0.5310 -0.3259  0.7922
14347TIP3    H164456   1.721   2.306  13.447  0.6509  0.2478  1.2097
14347TIP3    H264457   1.846   2.391  13.448  1.7737 -1.3589  0.9957
14348TIP3   OH264458   6.782   2.784  11.879 -0.1150 -0.5167  0.1479
14348TIP3    H164459   6.698   2.828  11.890  0.2382  0.0918  0.4782
14348TIP3    H264460   6.823   2.790  11.965  0.7654  0.2566 -0.3031
14349TIP3   OH264461   6.175   0.904   0.402 -0.1554  0.1950  0.1256
14349TIP3    H164462   6.168   0.995   0.372  0.6464  0.4420  0.6700
14349TIP3    H264463   6.084   0.872   0.403 -0.5924  1.3999  1.1968
14350TIP3   OH264464   2.742   1.774  16.253  0.0707 -0.0340 -0.1003
14350TIP3    H164465   2.770   1.683  16.255  0.8029 -0.0210 -3.2871
14350TIP3    H264466   2.824   1.824  16.254 -0.1029  0.3577 -1.6064
14351TIP3   OH264467   2.845   2.409   0.350  0.4460 -0.2533  0.4432
14351TIP3    H164468   2.910   2.474   0.326  2.4952 -1.9506  1.0640
14351TIP3    H264469   2.857   2.338   0.287  0.1661 -1.1987  1.4217
14352TIP3   OH264470   6.565   0.395  16.893 -0.1483 -0.3675 -0.0203
14352TIP3    H164471   6.604   0.309  16.877  1.5928  0.4925 -0.6684
14352TIP3    H264472   6.550   0.430  16.805 -0.7887  0.0214  0.2423
14353TIP3   OH264473   4.623   0.903  16.578 -0.0594 -0.8600  0.6291
14353TIP3    H164474   4.631   0.994  16.550  0.6377 -0.5918  1.6646
14353TIP3    H264475   4.637   0.905  16.672 -0.6748 -1.9642  0.7666
14354TIP3   OH264476   3.015   2.085  12.056  0.5552 -0.1236 -0.1283
14354TIP3    H164477   3.068   2.065  12.133  2.0753 -0.3186 -1.1815
14354TIP3    H264478   3.055   2.164  12.019 -0.1429 -0.0347 -0.7136
14355TIP3   OH264479   6.146   3.222  13.328  0.6421  0.0394  0.3939
14355TIP3    H164480   6.207   3.269  13.385  1.9090  1.3759 -1.9213
14355TIP3    H264481   6.179   3.133  13.324  0.6056 -0.0407  1.6006
14356TIP3   OH264482   4.973   5.688  12.689  0.7039  0.2378 -0.0408
14356TIP3    H164483   4.984   5.760  12.752 -0.1287  0.7105 -0.4165
14356TIP3    H264484   4.892   5.645  12.717  2.0803 -1.6758  1.2408
14357TIP3   OH264485   6.593   5.848   3.941  0.3218 -0.0948 -0.4368
14357TIP3    H164486   6.622   5.876   3.854 -0.5688  1.5613 -0.2381
14357TIP3    H264487   6.502   5.878   3.946  0.5476  0.3863  1.2937
14358TIP3   OH264488   3.931   4.297   5.745 -0.4294 -0.0627 -0.3183
14358TIP3    H164489   3.979   4.271   5.824  0.0477  0.4005 -0.4571
14358TIP3    H264490   3.952   4.230   5.681 -0.0057  0.1112 -0.3642
14359TIP3   OH264491   4.271   5.062   0.480 -0.2584  0.2856  0.1271
14359TIP3    H164492   4.286   5.000   0.551 -2.8147 -0.1881  0.3508
14359TIP3    H264493   4.269   5.148   0.523  1.7153  0.4395  0.0365
14360TIP3   OH264494   2.962   0.344   0.674 -0.4675  0.0183 -0.6322
14360TIP3    H164495   2.943   0.283   0.745  2.1735  0.4358  0.5325
14360TIP3    H264496   2.971   0.429   0.717  0.2547  0.4499 -1.5921
14361TIP3   OH264497   1.294   1.032   2.348 -0.3699  0.1394  0.3208
14361TIP3    H164498   1.268   1.049   2.439 -0.7380  1.0552  0.0618
14361TIP3    H264499   1.318   1.119   2.315  2.6101 -0.5564  0.3971
14362TIP3   OH264500   5.534   1.848   2.017  0.2249 -0.0248 -0.1719
14362TIP3    H164501   5.442   1.841   2.043  0.0610 -1.5879 -1.0546
14362TIP3    H264502   5.582   1.822   2.095 -0.1659 -1.2255 -0.3026
14363TIP3   OH264503   3.116   2.300  16.340  0.0365 -0.3185  0.2555
14363TIP3    H164504   3.181   2.240  16.377 -1.1324 -1.3079  0.7691
14363TIP3    H264505   3.165   2.350  16.274  2.3747  1.8123  3.2824
14364TIP3   OH264506   2.760   2.097   5.125 -0.0489 -0.1970 -0.3477
14364TIP3    H164507   2.702   2.171   5.107 -0.2726  0.2676  1.9662
14364TIP3    H264508   2.703   2.031   5.165  0.7039 -0.3601  0.4855
14365TIP3   OH264509   0.136   5.288   4.446 -0.1215 -0.1737 -0.1884
14365TIP3    H164510   0.200   5.223   4.418  0.3227  0.7371 -1.3549
14365TIP3    H264511   0.156   5.301   4.539 -0.3672 -1.8352  0.1264
14366TIP3   OH264512   2.252   1.129  13.651 -0.3681 -0.3979 -0.5369
14366TIP3    H164513   2.199   1.061  13.693 -1.5769 -0.2745 -1.8081
14366TIP3    H264514   2.259   1.101  13.559  0.5538  0.3362 -0.7076
14367TIP3   OH264515   2.684   4.562   1.139 -0.6254 -0.4845 -0.2814
14367TIP3    H164516   2.612   4.625   1.147  0.5486  0.7971  0.6449
14367TIP3    H264517   2.641   4.477   1.142 -2.2148  0.2440 -1.0010
14368TIP3   OH264518   1.580   6.751   5.425  0.1539 -0.2033  0.0905
14368TIP3    H164519   1.524   6.784   5.496 -0.3535 -1.8416  0.5028
14368TIP3    H264520   1.523   6.692   5.376  0.9311 -0.2368 -0.7946
14369TIP3   OH264521   3.885   6.467  14.935  0.6060  0.3550  0.2226
14369TIP3    H164522   3.943   6.433  14.866  0.4801 -0.0414  0.3056
14369TIP3    H264523   3.899   6.561  14.935 -0.7443  0.6100 -1.6188
14370TIP3   OH264524   4.637   6.696  12.538  0.5728  0.0690  0.3540
14370TIP3    H164525   4.584   6.632  12.586  0.0559  0.7326  0.6797
14370TIP3    H264526   4.586   6.714  12.459  0.5414  0.3381  0.4341
14371TIP3   OH264527   1.606   0.886  11.601 -0.5657 -0.3091 -0.3076
14371TIP3    H164528   1.615   0.944  11.525 -0.5568 -0.6749 -0.5881
14371TIP3    H264529   1.631   0.940  11.676 -1.1740  0.2344 -0.4957
14372TIP3   OH264530   0.904   0.199  12.290 -0.1786 -0.3022 -0.1892
14372TIP3    H164531   0.953   0.120  12.269 -1.1719 -0.5807 -1.5717
14372TIP3    H264532   0.964   0.271  12.270 -0.2838 -0.6374 -1.8116
14373TIP3   OH264533   0.948   0.321   1.415 -0.1942 -0.7091  0.2574
14373TIP3    H164534   0.932   0.240   1.464 -0.8309 -0.0963  1.0956
14373TIP3    H264535   1.021   0.363   1.462 -0.1196 -0.6071  0.0520
14374TIP3   OH264536   4.923   5.898  17.122  0.2659 -0.1246 -0.8220
14374TIP3    H164537   5.005   5.946  17.136  1.1148 -1.4607 -1.0752
14374TIP3    H264538   4.859   5.944  17.176  1.8494 -0.7998  1.8099
14375TIP3   OH264539   6.662   6.681  12.646 -0.0580  0.2077  0.3871
14375TIP3    H164540   6.749   6.687  12.607 -0.3491 -1.5525 -0.6424
14375TIP3    H264541   6.603   6.670  12.571 -1.1136  0.9189  1.0963
14376TIP3   OH264542   3.160   1.824  16.924  0.2378 -0.5141 -0.4246
14376TIP3    H164543   3.087   1.771  16.893 -1.3418  0.6352  1.1576
14376TIP3    H264544   3.119   1.899  16.966  2.3422  0.1239  0.6091
14377TIP3   OH264545   0.654   0.276   2.692  0.3348 -0.1948 -0.0643
14377TIP3    H164546   0.633   0.213   2.622  1.4904  0.6506 -1.2143
14377TIP3    H264547   0.639   0.362   2.652  0.0159  0.3031  1.0823
14378TIP3   OH264548   6.145   0.788  14.265 -0.0892 -0.0602 -0.6779
14378TIP3    H164549   6.158   0.786  14.170  0.7454  0.9357 -0.6029
14378TIP3    H264550   6.207   0.724  14.298 -1.3804 -1.4681 -0.8725
14379TIP3   OH264551   1.292   4.548   1.177  0.1446  0.2178  0.2555
14379TIP3    H164552   1.359   4.594   1.125 -1.1363  2.0878  0.1384
14379TIP3    H264553   1.245   4.494   1.113  0.2405  0.5086 -0.0660
14380TIP3   OH264554   1.873   3.019   3.244  0.4272 -0.7875 -0.2247
14380TIP3    H164555   1.881   2.925   3.223  1.3139 -0.6073 -0.7298
14380TIP3    H264556   1.815   3.053   3.176  0.2820 -0.9299 -0.1719
14381TIP3   OH264557   1.352   1.764   2.911 -0.3784 -0.2808  0.7690
14381TIP3    H164558   1.309   1.784   2.828 -0.7630  0.8660  1.2310
14381TIP3    H264559   1.434   1.813   2.908 -0.3669 -0.2819  1.0471
14382TIP3   OH264560   6.766   3.363  10.776  0.2166  0.1727 -0.3934
14382TIP3    H164561   6.771   3.458  10.765 -2.1157  0.4049 -0.0051
14382TIP3    H264562   6.672   3.344  10.774  0.6343 -2.1396 -0.4640
14383TIP3   OH264563   2.995   1.735   0.487 -0.1909  0.3502  0.7083
14383TIP3    H164564   3.039   1.666   0.437 -0.0800  0.5479  0.5289
14383TIP3    H264565   2.904   1.733   0.456 -0.1825  0.2971  0.6874
14384TIP3   OH264566   5.433   3.214   2.378  0.2098 -0.0606  0.0475
14384TIP3    H164567   5.441   3.217   2.474  0.7355 -1.4412  0.0692
14384TIP3    H264568   5.513   3.255   2.346 -0.3935  1.2698  0.1707
14385TIP3   OH264569   0.472   6.225   4.698 -0.2119  0.2130  0.1579
14385TIP3    H164570   0.561   6.254   4.678 -0.5744  0.8354 -0.6371
14385TIP3    H264571   0.479   6.182   4.783  1.1457 -1.2141 -0.6313
14386TIP3   OH264572   1.793   1.333  17.029 -0.6170  0.0835  0.2622
14386TIP3    H164573   1.716   1.288  17.061  0.2189 -1.0071  0.8098
14386TIP3    H264574   1.852   1.263  17.001 -0.5433  0.9389 -1.9000
14387TIP3   OH264575   2.154   5.902  13.769 -0.2645 -0.4348 -0.2611
14387TIP3    H164576   2.234   5.850  13.762 -0.7434 -1.5346  1.6280
14387TIP3    H264577   2.157   5.939  13.857 -0.2285  2.3702 -1.3526
14388TIP3   OH264578   5.122   6.733  14.151  0.0922 -0.0147 -0.2251
14388TIP3    H164579   5.098   6.783  14.073  0.8652  0.5220 -0.1280
14388TIP3    H264580   5.115   6.796  14.223  0.2078 -0.2845  0.0235
14389TIP3   OH264581   3.637   6.160   1.120  0.2885 -0.0214  0.0417
14389TIP3    H164582   3.658   6.091   1.183  1.5420  0.3860  0.0985
14389TIP3    H264583   3.655   6.241   1.166  0.8307  0.2954 -0.7015
14390TIP3   OH264584   0.585   6.794  17.120  0.1584 -0.2497  0.2297
14390TIP3    H164585   0.651   6.862  17.108 -0.6314  0.3138 -1.2219
14390TIP3    H264586   0.609   6.726  17.058  0.3316 -0.8200  0.9132
14391TIP3   OH264587   1.736   0.224  12.007 -0.4659  0.4057  0.2353
14391TIP3    H164588   1.670   0.164  12.040  1.9031 -2.8867 -0.4789
14391TIP3    H264589   1.751   0.196  11.917  1.7730  1.0717  0.3347
14392TIP3   OH264590   5.800   3.496  13.865  0.1473 -0.6506  0.5181
14392TIP3    H164591   5.828   3.579  13.904  1.2885 -0.7191 -0.0901
14392TIP3    H264592   5.714   3.514  13.829 -0.0521 -0.0202  1.2893
14393TIP3   OH264593   1.521   2.795   5.908 -0.0089  0.4478  0.3228
14393TIP3    H164594   1.451   2.795   5.842  0.8628  2.2825 -0.6720
14393TIP3    H264595   1.508   2.878   5.955  0.1760 -0.2411  1.6150
14394TIP3   OH264596   6.140   1.231   4.842  0.4369 -0.2615 -0.1854
14394TIP3    H164597   6.159   1.315   4.799  0.7623 -0.6785 -0.8833
14394TIP3    H264598   6.136   1.168   4.770 -1.7344 -0.5432  0.1241
14395TIP3   OH264599   2.257   4.775   4.259  0.1552 -0.3870 -0.6570
14395TIP3    H164600   2.341   4.820   4.263  0.3466 -0.7964  1.3901
14395TIP3    H264601   2.193   4.841   4.284  0.1072 -0.5445 -0.3563
14396TIP3   OH264602   0.528   1.661  14.509 -0.0833  0.3684 -0.4325
14396TIP3    H164603   0.524   1.668  14.604  1.1080  0.0134 -0.3369
14396TIP3    H264604   0.443   1.694  14.478 -0.8004 -0.2961  0.7843
14397TIP3   OH264605   6.545   4.969   4.605 -0.0757  0.1087 -0.4125
14397TIP3    H164606   6.589   5.049   4.575  0.9315 -0.5014 -0.5975
14397TIP3    H264607   6.460   5.000   4.637  0.5058  1.3329  0.0403
14398TIP3   OH264608   1.725   2.634  12.114 -0.2154 -0.0331  0.6764
14398TIP3    H164609   1.820   2.625  12.110 -0.2593 -0.8410  1.1057
14398TIP3    H264610   1.694   2.592  12.034 -0.1743  1.1842 -0.0040
14399TIP3   OH264611   2.907   6.536  12.578 -0.0121  0.3924  0.0013
14399TIP3    H164612   2.985   6.483  12.596 -1.6802 -1.3604  2.9295
14399TIP3    H264613   2.910   6.607  12.642 -2.0896 -1.3207  2.1863
14400TIP3   OH264614   1.918   1.733  12.436 -0.3388  0.1015  0.5269
14400TIP3    H164615   1.955   1.821  12.438  1.4096 -0.5404 -0.9295
14400TIP3    H264616   1.889   1.722  12.346 -0.8211 -0.7064  0.7736
14401TIP3   OH264617   3.664   1.623   1.553 -0.0341 -0.7329  0.3493
14401TIP3    H164618   3.683   1.547   1.609 -0.6834 -2.3303 -1.5034
14401TIP3    H264619   3.750   1.647   1.517  0.0104 -1.3688  0.0132
14402TIP3   OH264620   3.186   0.806  13.636  0.3887 -0.3913  0.5366
14402TIP3    H164621   3.206   0.776  13.548  2.9565 -1.5635  1.4252
14402TIP3    H264622   3.192   0.901  13.631  1.3700 -0.4884 -0.3882
14403TIP3   OH264623   6.257   0.886   5.435 -0.4865  0.0161 -0.2875
14403TIP3    H164624   6.207   0.843   5.365 -1.0749  0.0210  0.1284
14403TIP3    H264625   6.320   0.941   5.388 -0.1382 -0.8158 -0.8209
14404TIP3   OH264626   1.852   1.275  11.062 -0.3188 -0.2715  0.0898
14404TIP3    H164627   1.940   1.295  11.094 -1.4654  3.9543  1.2177
14404TIP3    H264628   1.843   1.327  10.982 -1.6803 -0.9341 -0.2098
14405TIP3   OH264629   0.283   3.554   6.474 -0.8258  0.3731 -0.1032
14405TIP3    H164630   0.283   3.489   6.403 -1.7159  1.2119 -0.8973
14405TIP3    H264631   0.356   3.612   6.452 -0.3616 -0.0431  0.3199
14406TIP3   OH264632   1.651   2.935  14.209 -0.4700  0.0671  0.4672
14406TIP3    H164633   1.630   2.925  14.116  0.6565 -2.1672  0.3807
14406TIP3    H264634   1.740   2.969  14.209  0.8902 -3.0830  0.5536
14407TIP3   OH264635   4.355   2.795   4.571 -0.5143 -0.3065  0.1286
14407TIP3    H164636   4.411   2.790   4.494 -0.7850 -1.3105 -0.0254
14407TIP3    H264637   4.414   2.779   4.645 -0.3879 -0.1471  0.0606
14408TIP3   OH264638   1.581   3.833  16.550  0.6556  0.1622 -0.1888
14408TIP3    H164639   1.551   3.812  16.461 -0.0865 -0.4276  0.1791
14408TIP3    H264640   1.646   3.902  16.538  1.8037 -1.0477 -1.3236
14409TIP3   OH264641   5.791   0.362   1.036 -0.3231 -0.3119  0.2136
14409TIP3    H164642   5.842   0.324   0.964  0.1608 -0.6204  0.7120
14409TIP3    H264643   5.831   0.448   1.050 -1.1036  0.2042 -0.5864
14410TIP3   OH264644   4.425   0.702   6.245 -0.4364  0.9070  0.4127
14410TIP3    H164645   4.384   0.615   6.252 -0.0567  0.6592 -0.3164
14410TIP3    H264646   4.352   0.763   6.246 -0.6738  0.6350  1.6281
14411TIP3   OH264647   0.193   1.396  16.705  0.2869 -0.4373 -0.3933
14411TIP3    H164648   0.108   1.439  16.692  0.3786 -0.4008 -0.8730
14411TIP3    H264649   0.174   1.324  16.766 -0.0529 -0.3177 -0.3542
14412TIP3   OH264650   5.933   2.460  14.912  0.1386 -0.0381 -0.4078
14412TIP3    H164651   5.966   2.540  14.872 -1.3026  2.0998  2.3052
14412TIP3    H264652   5.997   2.438  14.979  0.2458 -0.8810 -0.7679
14413TIP3   OH264653   6.155   1.109  16.081  0.4414 -0.6221 -0.5532
14413TIP3    H164654   6.212   1.104  16.158 -1.0888  1.3049  0.8424
14413TIP3    H264655   6.096   1.034  16.090  0.5020 -0.6105 -0.0353
14414TIP3   OH264656   5.272   6.241   1.070 -0.1786 -0.6163 -0.0231
14414TIP3    H164657   5.356   6.200   1.050  0.1841  0.4763 -0.8246
14414TIP3    H264658   5.207   6.172   1.054  0.4620 -1.0725 -0.6909
14415TIP3   OH264659   0.983   0.051  12.550 -0.4211  0.5221  0.4847
14415TIP3    H164660   0.906   0.092  12.591 -0.4424  1.9046 -0.8483
14415TIP3    H264661   0.947   0.006  12.473  0.0750  1.0255 -0.0456
14416TIP3   OH264662   1.700   3.667  11.681 -0.1900  0.1862 -0.0487
14416TIP3    H164663   1.604   3.674  11.678 -0.2997 -0.0388  1.7531
14416TIP3    H264664   1.731   3.729  11.616 -1.5696  0.3211 -0.5986
14417TIP3   OH264665   2.001   5.879   1.763 -0.3931  0.9856  0.2675
14417TIP3    H164666   1.946   5.902   1.688 -0.3237 -1.8474 -0.8040
14417TIP3    H264667   2.090   5.893   1.732 -0.3705 -0.0411 -0.2026
14418TIP3   OH264668   0.221   3.332   3.639  0.7141  0.2297  0.2790
14418TIP3    H164669   0.287   3.390   3.599 -0.5390  1.0906 -0.6375
14418TIP3    H264670   0.252   3.244   3.620  1.6911  0.6104  0.0225
14419TIP3   OH264671   6.439   5.524   0.323  0.1715  0.0062 -0.0536
14419TIP3    H164672   6.352   5.538   0.361 -0.2845  1.8262 -1.5994
14419TIP3    H264673   6.491   5.597   0.355  0.7062 -0.2644 -0.3025
14420TIP3   OH264674   5.482   0.155   3.012  0.2006  0.1976  0.3965
14420TIP3    H164675   5.523   0.120   2.933  1.1156  0.9152  0.5423
14420TIP3    H264676   5.542   0.223   3.043  0.2022 -0.5097  2.0722
14421TIP3   OH264677   5.753   5.234   5.851 -0.5019  0.7528  0.1852
14421TIP3    H164678   5.802   5.278   5.921 -0.6932  0.5690  0.4358
14421TIP3    H264679   5.817   5.174   5.812 -0.9642 -0.8053  1.6657
14422TIP3   OH264680   2.301   5.045   6.366  0.3947  0.0010 -0.1366
14422TIP3    H164681   2.217   5.014   6.331  0.6160 -0.7672 -0.0119
14422TIP3    H264682   2.314   5.130   6.325 -0.7623  0.4366  0.3339
14423TIP3   OH264683   2.153   4.434  11.760  0.5973 -0.6005  0.0781
14423TIP3    H164684   2.087   4.399  11.700  0.9745  1.2282 -1.4967
14423TIP3    H264685   2.106   4.449  11.842 -1.0198  0.6983 -1.0164
14424TIP3   OH264686   2.783   3.819   5.688 -0.1906 -0.6249  0.0727
14424TIP3    H164687   2.768   3.729   5.715  0.0233 -0.4071  0.9882
14424TIP3    H264688   2.770   3.870   5.768  0.9449  0.0125 -0.1171
14425TIP3   OH264689   0.610   0.995  17.134 -0.1049  0.6011  0.3214
14425TIP3    H164690   0.696   0.995  17.176  0.1095 -0.3604 -0.0934
14425TIP3    H264691   0.548   0.999  17.207  0.2738  2.2058  0.6001
14426TIP3   OH264692   1.982   1.676   5.641 -0.0830  0.7365  0.3787
14426TIP3    H164693   2.047   1.688   5.571  2.3602  0.8783  2.5462
14426TIP3    H264694   1.925   1.753   5.633 -0.8979 -0.0298 -2.3859
14427TIP3   OH264695   6.371   4.806   1.680 -0.1986 -0.5999  0.0981
14427TIP3    H164696   6.393   4.794   1.588  0.5416 -0.6640  0.2771
14427TIP3    H264697   6.382   4.900   1.695 -1.4358 -0.4010 -0.1527
14428TIP3   OH264698   2.691   3.892  14.639 -0.3370  0.4693  0.4201
14428TIP3    H164699   2.595   3.897  14.639 -0.3594  1.0305 -1.5894
14428TIP3    H264700   2.716   3.905  14.547  1.6130 -1.0324  0.6601
14429TIP3   OH264701   5.626   2.566  16.234 -0.3095  0.0301 -0.4232
14429TIP3    H164702   5.566   2.584  16.162 -1.1612 -0.3976  0.1580
14429TIP3    H264703   5.603   2.478  16.263  0.7841 -0.2454 -0.3495
14430TIP3   OH264704   4.658   0.918  11.816  0.2765  0.8862  0.3893
14430TIP3    H164705   4.659   0.878  11.903  0.2943 -0.8960 -0.3888
14430TIP3    H264706   4.569   0.905  11.784  0.3165  1.3759  0.0634
14431TIP3   OH264707   1.118   1.822   0.565 -0.5945 -0.2949 -0.2052
14431TIP3    H164708   1.192   1.856   0.614 -0.4846 -1.8070  0.7409
14431TIP3    H264709   1.158   1.774   0.492 -0.5026 -2.5188  1.2192
14432TIP3   OH264710   5.815   0.700  12.917  0.4490 -0.0633 -0.4251
14432TIP3    H164711   5.723   0.722  12.934  1.1014  1.6607  1.2108
14432TIP3    H264712   5.824   0.707  12.822 -1.1843 -0.6192 -0.6507
14433TIP3   OH264713   2.318   5.365   1.418 -0.3546 -0.6573  0.1487
14433TIP3    H164714   2.262   5.408   1.353 -0.5061 -1.2557 -0.1204
14433TIP3    H264715   2.280   5.278   1.429  2.0894 -2.1534 -2.1380
14434TIP3   OH264716   1.581   5.882  14.697  0.1454 -0.0955 -0.5590
14434TIP3    H164717   1.601   5.795  14.661 -0.2142 -0.4396  0.0723
14434TIP3    H264718   1.589   5.871  14.791  2.0746  1.0514 -0.5365
14435TIP3   OH264719   1.382   2.087  13.670  0.5994  0.2284  0.1434
14435TIP3    H164720   1.365   1.993  13.668  1.6243 -0.0097  1.2689
14435TIP3    H264721   1.296   2.128  13.664  0.1783 -0.7509 -0.9933
14436TIP3   OH264722   2.001   4.534  15.753 -0.3477  0.3773 -0.6115
14436TIP3    H164723   2.090   4.565  15.768  0.2187 -0.3606 -2.2626
14436TIP3    H264724   1.960   4.603  15.702 -0.2704  0.0810 -1.0738
14437TIP3   OH264725   2.167   0.097   5.592  0.4917  0.9056 -1.0578
14437TIP3    H164726   2.137   0.144   5.514  0.7441  2.3294 -0.3382
14437TIP3    H264727   2.117   0.136   5.664  0.0895 -0.5389 -0.5175
14438TIP3   OH264728   2.719   3.520   6.379 -0.0323 -0.2809  0.2864
14438TIP3    H164729   2.807   3.520   6.416 -0.1987  2.6059  0.9635
14438TIP3    H264730   2.673   3.450   6.425  1.8807 -1.8911 -0.1256
14439TIP3   OH264731   3.418   1.224  16.314  0.6143  0.3410 -0.0143
14439TIP3    H164732   3.432   1.148  16.370  1.4178  1.3887  1.2538
14439TIP3    H264733   3.451   1.196  16.228 -1.1766 -1.4787 -0.1934
14440TIP3   OH264734   2.701   5.540   4.658  0.0287  0.5162 -0.1398
14440TIP3    H164735   2.723   5.519   4.567  0.3168 -0.4180  0.1389
14440TIP3    H264736   2.783   5.572   4.695 -0.1374  1.0956 -0.2484
14441TIP3   OH264737   1.870   6.652   0.212 -0.3901 -0.1566 -0.1357
14441TIP3    H164738   1.928   6.607   0.274 -3.4797 -0.7925  2.5707
14441TIP3    H264739   1.879   6.602   0.131  0.7131 -2.0081  1.0313
14442TIP3   OH264740   0.079   3.020  16.505  0.4218 -0.4074 -0.1200
14442TIP3    H164741   0.085   3.114  16.489  0.0101 -0.4665 -0.6590
14442TIP3    H264742   0.011   3.011  16.572 -0.1960 -0.3758 -0.7303
14443TIP3   OH264743   1.367   6.382   2.658 -0.3549  0.1705  0.1268
14443TIP3    H164744   1.413   6.414   2.581 -0.1707 -0.8586 -0.2081
14443TIP3    H264745   1.419   6.414   2.732 -0.3729  0.9215 -0.1797
14444TIP3   OH264746   0.844   6.688  11.620 -0.3968  0.1309  0.6293
14444TIP3    H164747   0.750   6.669  11.616 -0.8362  2.2250 -0.2126
14444TIP3    H264748   0.859   6.750  11.549  1.4710  0.4557  1.2520
14445TIP3   OH264749   1.409   5.659  12.029  0.4306  0.3919 -0.3658
14445TIP3    H164750   1.349   5.705  11.971  1.3240 -0.2529 -1.8640
14445TIP3    H264751   1.439   5.584  11.978  1.6420  0.0696  0.7483
14446TIP3   OH264752   1.188   0.282  11.349  0.1437 -0.6715  0.0033
14446TIP3    H164753   1.268   0.245  11.313  0.4519  0.8667 -0.9722
14446TIP3    H264754   1.124   0.276  11.279 -0.0039 -0.0449  0.0750
14447TIP3   OH264755   4.736   3.390  11.075 -0.0529 -0.1844  0.4026
14447TIP3    H164756   4.672   3.370  11.007  0.0519 -0.5950  0.4228
14447TIP3    H264757   4.685   3.392  11.156 -0.5966  2.4643  0.1035
14448TIP3   OH264758   6.795   0.417   4.830  0.4570 -0.4070 -0.3400
14448TIP3    H164759   6.832   0.464   4.756 -0.3497 -0.0515 -0.5352
14448TIP3    H264760   6.859   0.349   4.851  0.8084 -0.3454 -1.1969
14449TIP3   OH264761   3.872   3.817  16.587  0.4788 -0.0304  0.0057
14449TIP3    H164762   3.877   3.726  16.619 -0.6496 -0.0892  0.0762
14449TIP3    H264763   3.845   3.809  16.496  2.0258  0.2000 -0.5000
14450TIP3   OH264764   2.415   6.775  16.711 -0.3722  0.3279 -0.2820
14450TIP3    H164765   2.472   6.852  16.720 -1.0904  1.0045 -1.3303
14450TIP3    H264766   2.326   6.811  16.714 -0.7061 -0.2947 -2.0527
14451TIP3   OH264767   1.451   1.560  12.702  0.2278 -0.2210  0.0451
14451TIP3    H164768   1.522   1.617  12.732  1.1189 -0.5270 -1.3877
14451TIP3    H264769   1.374   1.616  12.699  1.0248  0.8657 -1.0394
14452TIP3   OH264770   3.298   4.181   0.055 -0.2332  0.0947 -0.4548
14452TIP3    H164771   3.206   4.188   0.030 -0.9679 -0.1992  1.8484
14452TIP3    H264772   3.308   4.089   0.080  1.3072 -0.4020 -2.6727
14453TIP3   OH264773   1.141   2.031   3.172  0.0313 -0.1004  0.0748
14453TIP3    H164774   1.178   2.053   3.258  0.0909 -1.8198  0.5164
14453TIP3    H264775   1.215   2.034   3.112  0.4913 -1.3398  0.5538
14454TIP3   OH264776   1.410   1.583   5.638 -0.6879 -0.2542 -0.6535
14454TIP3    H164777   1.475   1.648   5.609 -0.6313 -0.4606 -0.9994
14454TIP3    H264778   1.333   1.635   5.660 -0.2237  0.0457  0.3098
14455TIP3   OH264779   0.337   1.506  16.942  0.4327  0.3328 -0.6326
14455TIP3    H164780   0.292   1.496  16.858 -1.2818  1.4929  0.0819
14455TIP3    H264781   0.268   1.492  17.007  1.8527 -1.1516  0.6352
14456TIP3   OH264782   1.559   3.283   3.521  0.0272  0.1057  0.1579
14456TIP3    H164783   1.476   3.311   3.482 -0.2113  0.4633  0.9021
14456TIP3    H264784   1.546   3.191   3.544  0.5192 -0.4282 -1.5042
14457TIP3   OH264785   0.210   5.147  16.940 -0.0350 -0.2254 -0.2050
14457TIP3    H164786   0.269   5.161  16.866 -1.2986 -0.4989 -1.3040
14457TIP3    H264787   0.188   5.235  16.971 -1.6907  0.0648 -1.9889
14458TIP3   OH264788   3.381   4.970  12.924 -0.8132  0.1944 -0.4394
14458TIP3    H164789   3.459   4.979  12.978 -0.8067  0.6452 -0.5267
14458TIP3    H264790   3.414   4.949  12.837 -0.7642  0.9210 -0.6007
14459TIP3   OH264791   2.495   4.742   6.283  0.1967 -0.1815  0.2244
14459TIP3    H164792   2.479   4.766   6.374  0.3452  1.5786 -0.1807
14459TIP3    H264793   2.590   4.752   6.272  0.3035 -1.2008  0.0718
14460TIP3   OH264794   4.209   5.617   3.193 -0.3917 -0.3649  0.5658
14460TIP3    H164795   4.175   5.534   3.162 -1.5995  0.0755  0.6579
14460TIP3    H264796   4.256   5.596   3.274 -1.9101 -0.7870  1.3798
14461TIP3   OH264797   4.160   5.963   4.681  0.5016  0.3681  0.2268
14461TIP3    H164798   4.187   5.896   4.744 -1.9113 -0.4196  0.5285
14461TIP3    H264799   4.127   6.035   4.734 -2.0799 -0.5270 -0.0235
14462TIP3   OH264800   4.908   6.106   4.251 -0.4527  0.3066 -0.4370
14462TIP3    H164801   4.910   6.016   4.220  1.1899 -0.5467  1.8145
14462TIP3    H264802   4.838   6.107   4.316  1.5058 -0.3544  1.8730
14463TIP3   OH264803   5.739   5.623  10.829  0.8970  0.2441  0.0978
14463TIP3    H164804   5.794   5.699  10.849  0.4484 -0.1588  3.5336
14463TIP3    H264805   5.669   5.658  10.775  0.6866  2.3299  1.6042
14464TIP3   OH264806   4.614   2.741   5.646 -0.2839 -0.8483  0.3167
14464TIP3    H164807   4.705   2.757   5.622 -0.2775 -0.5610  0.5262
14464TIP3    H264808   4.597   2.802   5.718 -0.9641 -0.1396 -0.4394
14465TIP3   OH264809   5.228   0.510  15.663  0.3967 -0.3260  0.0817
14465TIP3    H164810   5.222   0.548  15.751 -1.9915 -0.4500  0.0172
14465TIP3    H264811   5.153   0.451  15.657 -0.5999  1.0672 -2.6810
14466TIP3   OH264812   2.290   4.344   3.819  0.1234  0.0197  0.0564
14466TIP3    H164813   2.300   4.391   3.902 -0.1077  0.0035  0.0946
14466TIP3    H264814   2.201   4.365   3.791  0.3002  0.2593 -0.3338
14467TIP3   OH264815   1.712   5.472   6.594 -0.0901 -0.1926 -0.2560
14467TIP3    H164816   1.632   5.436   6.632 -1.2922  0.4573 -2.0400
14467TIP3    H264817   1.781   5.448   6.655 -1.7260 -0.2612  1.6566
14468TIP3   OH264818   4.762   5.252  16.370  0.1646  0.1312 -0.1715
14468TIP3    H164819   4.764   5.232  16.463  1.1397  1.5119  0.1196
14468TIP3    H264820   4.718   5.176  16.331 -0.0300 -0.5853  1.3633
14469TIP3   OH264821   0.894   5.926  14.543  0.1248  0.1335  0.2161
14469TIP3    H164822   0.910   5.856  14.480 -0.0051  0.4466 -0.1619
14469TIP3    H264823   0.893   6.006  14.491 -2.2502  0.2031  0.2560
14470TIP3   OH264824   4.778   5.311   6.576  0.0555  0.2385  0.3893
14470TIP3    H164825   4.724   5.382   6.612 -0.1317  0.0345  0.5174
14470TIP3    H264826   4.715   5.241   6.557  0.2576  0.0564  0.3933
14471TIP3   OH264827   3.051   5.049   0.813  0.0396  0.1431 -0.1165
14471TIP3    H164828   3.110   5.026   0.742  1.4656 -1.4941  1.4934
14471TIP3    H264829   3.042   4.968   0.863 -1.9268  0.9165  0.8666
14472TIP3   OH264830   0.400   0.054  13.566 -0.0071 -0.3148 -0.0980
14472TIP3    H164831   0.416   0.132  13.619  0.4782 -0.4673 -0.0106
14472TIP3    H264832   0.308   0.032  13.582 -0.2513  0.4565 -0.4178
14473TIP3   OH264833   1.748   5.491   4.721 -0.0617 -0.3846  0.8835
14473TIP3    H164834   1.722   5.419   4.779  0.6252 -0.5215  1.0239
14473TIP3    H264835   1.665   5.530   4.694 -0.4009 -0.5403  1.6687
14474TIP3   OH264836   2.733   3.708  10.535  0.4270  0.4207  0.2263
14474TIP3    H164837   2.790   3.781  10.510  0.7333  0.5165  1.1516
14474TIP3    H264838   2.664   3.749  10.588  0.4927  0.0749  0.5846
14475TIP3   OH264839   2.683   4.667   5.774  0.2635 -0.7109 -0.5694
14475TIP3    H164840   2.767   4.699   5.743 -0.2895  1.8774  0.3200
14475TIP3    H264841   2.703   4.615   5.852  1.0837 -1.1971 -1.0886
14476TIP3   OH264842   5.416   4.817   2.252 -0.1142 -0.3671  0.0074
14476TIP3    H164843   5.497   4.766   2.255 -0.0011 -0.1521  0.6380
14476TIP3    H264844   5.416   4.868   2.333 -0.2166  0.6556 -0.6164
14477TIP3   OH264845   5.111   3.468  14.748  0.8127 -0.5877  0.5140
14477TIP3    H164846   5.099   3.384  14.705  0.8925 -0.3150 -0.0471
14477TIP3    H264847   5.201   3.466  14.780  1.3230 -0.1089 -0.8536
14478TIP3   OH264848   2.273   5.497  13.502  0.3607 -0.9556 -0.0156
14478TIP3    H164849   2.250   5.580  13.460  0.6424 -0.5223  0.6692
14478TIP3    H264850   2.194   5.471  13.550  0.4502 -0.8128  0.2066
14479TIP3   OH264851   4.225   2.963   5.035 -0.0748  0.3749  0.4925
14479TIP3    H164852   4.149   2.929   4.988  0.6202  1.4179 -1.4871
14479TIP3    H264853   4.287   2.891   5.038 -0.1979  0.2476 -0.0366
14480TIP3   OH264854   6.719   2.472   6.811 -0.1164  0.2104  0.2440
14480TIP3    H164855   6.673   2.454   6.892 -2.5624  1.9989 -0.6229
14480TIP3    H264856   6.737   2.566   6.814 -0.4801  0.3583 -1.3855
14481TIP3   OH264857   0.997   6.583  14.441  0.3581  0.2325 -0.8894
14481TIP3    H164858   0.977   6.582  14.534  0.3190  0.4422 -0.8957
14481TIP3    H264859   0.962   6.666  14.409  0.3941  0.1743 -1.0862
14482TIP3   OH264860   3.486   3.129   1.310 -0.3418  0.3192 -0.2278
14482TIP3    H164861   3.422   3.059   1.324  1.1691 -0.9261  0.9905
14482TIP3    H264862   3.487   3.142   1.215 -0.6974 -1.3513 -0.5049
14483TIP3   OH264863   0.952   2.404  13.664  0.0125 -0.5528  0.2695
14483TIP3    H164864   0.972   2.487  13.706 -0.5270 -0.2744 -0.0131
14483TIP3    H264865   0.953   2.424  13.570  0.2027 -0.9360  0.1891
14484TIP3   OH264866   5.390   0.005  14.194 -0.1434  0.4089 -0.0219
14484TIP3    H164867   5.389   0.099  14.175  0.6536 -0.0391 -2.7113
14484TIP3    H264868   5.303  -0.025  14.167 -0.0321  0.2160 -0.1647
14485TIP3   OH264869   2.471   1.776  16.301 -0.1616 -0.3767  0.2042
14485TIP3    H164870   2.564   1.798  16.300 -0.3626  0.6918  1.5676
14485TIP3    H264871   2.455   1.743  16.389 -1.1872  0.0132  0.1777
14486TIP3   OH264872   5.447   0.534  15.201  0.2534 -0.7943  0.0053
14486TIP3    H164873   5.473   0.465  15.140  0.9762 -0.0346 -0.5867
14486TIP3    H264874   5.502   0.609  15.176 -2.3032  0.8402 -1.1217
14487TIP3   OH264875   3.286   6.361   4.134  0.1065 -0.6596 -0.3500
14487TIP3    H164876   3.212   6.333   4.080  1.0287 -0.8677 -1.5542
14487TIP3    H264877   3.312   6.283   4.182 -0.3282 -0.6254 -0.0438
14488TIP3   OH264878   3.758   0.102   0.050  0.3917 -0.2404 -0.1867
14488TIP3    H164879   3.673   0.075   0.084  0.7507 -0.7005  0.3614
14488TIP3    H264880   3.793   0.024   0.008  0.2454  0.1387 -1.0497
14489TIP3   OH264881   5.746   5.037  16.401 -0.5535 -0.0910 -0.4053
14489TIP3    H164882   5.766   5.126  16.374 -0.2921 -0.7722 -2.6822
14489TIP3    H264883   5.831   4.992  16.400 -0.7766 -0.5420  0.0959
14490TIP3   OH264884   2.184   1.996  10.961  0.1676  0.0206 -0.9086
14490TIP3    H164885   2.239   1.935  11.010 -0.7216  0.2592  0.4253
14490TIP3    H264886   2.181   1.958  10.872  1.3829 -0.6936 -0.6802
14491TIP3   OH264887   3.814   0.546  12.373  0.0681 -0.5486  0.1935
14491TIP3    H164888   3.801   0.570  12.282  1.6244 -0.7464 -0.1106
14491TIP3    H264889   3.901   0.580  12.395  0.4672 -2.0276  1.0626
14492TIP3   OH264890   1.192   6.583  14.211  0.5689  0.3646  0.4321
14492TIP3    H164891   1.207   6.499  14.166  2.0108  0.4959  0.6208
14492TIP3    H264892   1.100   6.580  14.237 -0.2166  0.0775 -2.0920
14493TIP3   OH264893   4.300   5.599   2.588  0.1772 -0.2041  0.9241
14493TIP3    H164894   4.291   5.694   2.596  0.0907  0.0353 -1.3634
14493TIP3    H264895   4.210   5.566   2.591  0.0786 -0.0316  0.1516
14494TIP3   OH264896   6.354   4.024  10.879  0.1906 -0.1006  0.1341
14494TIP3    H164897   6.332   3.999  10.789  1.5659 -0.6825 -0.0698
14494TIP3    H264898   6.385   4.115  10.872 -1.1043  0.3740  0.2726
14495TIP3   OH264899   1.035   4.456   2.594 -0.0270 -0.6429 -0.6203
14495TIP3    H164900   0.977   4.499   2.657 -0.2006 -1.4356 -0.2239
14495TIP3    H264901   0.996   4.370   2.580  1.1302 -1.2520 -0.2300
14496TIP3   OH264902   2.637   5.234   4.902  0.4510 -0.5063  0.6864
14496TIP3    H164903   2.725   5.246   4.864  1.3419  0.8918  3.0248
14496TIP3    H264904   2.578   5.238   4.826  2.2222  0.7995 -0.7206
14497TIP3   OH264905   3.372   0.385  11.537 -0.2277  0.3345  0.5265
14497TIP3    H164906   3.332   0.339  11.463 -0.7278 -0.9312  1.5615
14497TIP3    H264907   3.447   0.332  11.561  0.9762  1.6650 -0.1441
14498TIP3   OH264908   0.435   4.677  17.069 -0.0714  0.4562  0.6874
14498TIP3    H164909   0.377   4.718  17.134 -0.9698  1.4588 -0.6737
14498TIP3    H264910   0.430   4.736  16.993  0.8176 -0.7543 -0.3438
14499TIP3   OH264911   0.145   4.257  15.154  0.2113 -0.2125  0.0752
14499TIP3    H164912   0.052   4.250  15.172  0.2560 -0.2719  0.2865
14499TIP3    H264913   0.184   4.182  15.199  0.2304 -0.8411 -0.9744
14500TIP3   OH264914   5.933   5.105  16.679  0.1352 -0.3414  0.7423
14500TIP3    H164915   5.941   5.165  16.753 -0.3672  0.6929 -0.0227
14500TIP3    H264916   5.958   5.157  16.602 -0.2111 -1.1361  0.0715
14501TIP3   OH264917   4.480   3.168  13.967 -0.1034 -0.0960  0.5641
14501TIP3    H164918   4.427   3.214  13.902 -0.7677 -1.5501  0.0430
14501TIP3    H264919   4.567   3.164  13.927  0.0626  0.9912  0.7769
14502TIP3   OH264920   5.424   2.885  16.849 -0.1705  0.5522  0.3379
14502TIP3    H164921   5.347   2.886  16.792 -1.4987 -0.6775  1.9660
14502TIP3    H264922   5.498   2.867  16.791 -0.7031  3.9503 -1.6002
14503TIP3   OH264923   0.396   1.828  14.220  0.0514  0.1089  0.1741
14503TIP3    H164924   0.447   1.892  14.268  0.4444 -0.0403 -0.0436
14503TIP3    H264925   0.387   1.865  14.132 -2.0664  1.1761  0.7745
14504TIP3   OH264926   6.691   6.492   4.533 -0.5579  0.1880  0.1649
14504TIP3    H164927   6.635   6.570   4.533 -0.3457  0.3494 -0.4852
14504TIP3    H264928   6.669   6.447   4.452 -0.8241 -0.5445  0.6349
14505TIP3   OH264929   0.196   0.533   1.296  0.1009  0.1173  0.4003
14505TIP3    H164930   0.220   0.592   1.367 -0.0196 -0.3669  0.8485
14505TIP3    H264931   0.280   0.500   1.263  0.2237  1.2333 -0.4689
14506TIP3   OH264932   2.959   6.739   5.100 -0.3901  0.3477 -0.4315
14506TIP3    H164933   2.969   6.805   5.032 -1.0124 -0.6869 -1.5849
14506TIP3    H264934   3.011   6.665   5.069 -1.5707 -0.5474 -0.3672
14507TIP3   OH264935   1.824   3.588  13.341 -0.4807 -0.0778  0.2292
14507TIP3    H164936   1.820   3.517  13.277  1.3314 -2.3768  2.4500
14507TIP3    H264937   1.742   3.582  13.390 -1.1793  0.6813 -0.8069
14508TIP3   OH264938   2.324   1.010   2.340  0.4715 -0.6071 -0.4736
14508TIP3    H164939   2.310   1.026   2.247 -1.5314  1.7597  0.1303
14508TIP3    H264940   2.251   0.954   2.367  1.2335 -1.5762 -0.3501
14509TIP3   OH264941   1.763   1.318  14.635 -0.0127 -0.5948 -0.2084
14509TIP3    H164942   1.737   1.395  14.686  2.7937 -0.7107  1.5744
14509TIP3    H264943   1.712   1.246  14.673  1.3278 -0.5054  1.9141
14510TIP3   OH264944   6.205   0.603  14.571 -0.3443  0.4042 -0.1516
14510TIP3    H164945   6.207   0.507  14.569  2.4220  0.4151 -0.8277
14510TIP3    H264946   6.117   0.625  14.539 -0.4720 -1.8780 -1.6101
14511TIP3   OH264947   1.279   3.801  12.577  0.4823 -0.3916 -0.4157
14511TIP3    H164948   1.321   3.736  12.520 -0.2817 -0.4892 -0.8892
14511TIP3    H264949   1.189   3.806  12.544  0.1727 -0.0639  0.4613
14512TIP3   OH264950   2.977   3.942   5.527 -0.3160 -0.2074  0.1049
14512TIP3    H164951   2.911   3.887   5.570  0.7207 -0.8662  0.8751
14512TIP3    H264952   2.966   4.028   5.568 -0.9228 -0.2114 -0.0310
14513TIP3   OH264953   0.854   4.707  15.732  1.1534 -0.0694  0.4883
14513TIP3    H164954   0.810   4.758  15.664  2.9433  0.5499 -0.2749
14513TIP3    H264955   0.838   4.616  15.708  0.6314  0.1415  0.0231
14514TIP3   OH264956   2.724   3.655  15.892  0.0743  0.0360  0.6484
14514TIP3    H164957   2.744   3.625  15.803 -0.8733 -0.4743  0.5880
14514TIP3    H264958   2.629   3.666  15.892  0.1066  0.3551  1.5071
14515TIP3   OH264959   3.749   4.868  11.246  0.1317 -0.0037  0.6634
14515TIP3    H164960   3.794   4.911  11.173  0.8938  1.9377  2.1665
14515TIP3    H264961   3.684   4.811  11.205  1.1360  0.3179 -1.5143
14516TIP3   OH264962   0.592   4.056   4.879  0.0858 -0.5340 -0.5160
14516TIP3    H164963   0.551   4.078   4.963  0.2257 -1.1930 -0.2622
14516TIP3    H264964   0.575   4.131   4.823 -0.1091 -0.1320  0.0710
14517TIP3   OH264965   3.602   4.183   5.091  0.1561 -0.3171 -1.1331
14517TIP3    H164966   3.590   4.182   5.186 -0.0367 -0.0646 -1.1534
14517TIP3    H264967   3.695   4.166   5.079  0.7123  2.0627 -0.7901
14518TIP3   OH264968   2.982   0.375   6.190 -0.2881  0.2163  0.5389
14518TIP3    H164969   2.917   0.427   6.238 -0.9134 -0.5454  0.5397
14518TIP3    H264970   2.999   0.300   6.247 -0.6352 -0.4251 -0.1831
14519TIP3   OH264971   6.111   2.386  13.024  0.3801 -0.5138  0.0716
14519TIP3    H164972   6.110   2.450  13.096  0.9582 -1.0119  0.5381
14519TIP3    H264973   6.177   2.420  12.963 -1.5557  1.0043 -1.2843
14520TIP3   OH264974   6.220   3.957   4.574  0.3235  0.4638  0.1492
14520TIP3    H164975   6.299   3.906   4.557 -0.4279  0.0702 -2.6109
14520TIP3    H264976   6.179   3.913   4.648  0.8082 -1.6418 -0.7615
14521TIP3   OH264977   2.668   6.094   2.140  0.0625  0.1709 -0.2737
14521TIP3    H164978   2.641   6.123   2.054 -0.2619  1.7637  0.3434
14521TIP3    H264979   2.713   6.011   2.124  0.7195  0.8349 -2.0512
14522TIP3   OH264980   1.967   6.279  16.664 -0.1137 -0.4147 -0.0042
14522TIP3    H164981   1.873   6.265  16.655 -0.3808  1.4456 -0.5868
14522TIP3    H264982   2.007   6.216  16.605 -1.0422 -0.5991 -0.4475
14523TIP3   OH264983   4.989   6.051  12.556  0.1937 -0.1729 -0.1367
14523TIP3    H164984   5.054   5.994  12.595  0.7950  1.6628  1.7100
14523TIP3    H264985   5.039   6.114  12.504 -0.2781  0.0507 -0.3321
14524TIP3   OH264986   1.934   4.060  15.052 -0.0048 -0.0579 -0.2425
14524TIP3    H164987   1.965   4.092  15.137 -1.3515 -1.4772  0.8477
14524TIP3    H264988   1.970   3.972  15.045  0.2277  0.1044 -1.2384
14525TIP3   OH264989   2.181   6.217   3.934 -0.6361  0.1157 -0.4701
14525TIP3    H164990   2.265   6.233   3.976 -0.8492 -1.0798  0.4437
14525TIP3    H264991   2.122   6.282   3.973  0.0035  1.4936 -1.6942
14526TIP3   OH264992   6.197   5.660   3.163  0.2340  0.0971  0.0930
14526TIP3    H164993   6.171   5.568   3.170  0.7901  0.0282  1.5819
14526TIP3    H264994   6.241   5.666   3.078 -0.6069 -0.7862 -0.4289
14527TIP3   OH264995   6.061   3.445  11.590  0.1133 -0.1617 -0.3975
14527TIP3    H164996   6.030   3.416  11.504  1.7055 -2.3261 -0.3234
14527TIP3    H264997   6.156   3.443  11.584  0.2686 -0.2896  1.4048
14528TIP3   OH264998   4.383   2.696   3.079 -0.3539  0.1393 -0.2756
14528TIP3    H164999   4.381   2.783   3.040  1.5993 -0.6123 -2.1998
14528TIP3    H265000   4.352   2.710   3.169  0.7470  2.9638 -0.2393
14529TIP3   OH265001   5.517   4.824   3.761  0.1431 -0.3572 -0.4287
14529TIP3    H165002   5.600   4.858   3.727 -0.3339  1.8697  0.4770
14529TIP3    H265003   5.543   4.757   3.824  1.1824 -0.8758 -1.3667
14530TIP3   OH265004   6.446   2.134   4.907  0.4775  0.1489 -0.5179
14530TIP3    H165005   6.399   2.115   4.825  0.1169  1.9028 -0.7630
14530TIP3    H265006   6.433   2.228   4.920  4.0678  0.8091 -0.6942
14531TIP3   OH265007   3.370   3.029  12.675 -0.9613 -0.1363 -0.7080
14531TIP3    H165008   3.339   3.097  12.615 -0.2746 -0.5628 -1.5723
14531TIP3    H265009   3.402   2.959  12.618 -2.0283 -1.3754  0.1529
14532TIP3   OH265010   3.060   5.411   0.745 -0.0274 -0.6667 -1.0083
14532TIP3    H165011   3.145   5.381   0.780 -0.0632 -1.0415 -1.2310
14532TIP3    H265012   2.995   5.374   0.805 -0.0102  0.2142 -0.4229
14533TIP3   OH265013   5.778   6.374   4.781  0.4466  0.2484  0.1403
14533TIP3    H165014   5.718   6.415   4.843  1.0752  1.2649  0.1131
14533TIP3    H265015   5.833   6.447   4.749  1.4673 -0.5831 -0.0725
14534TIP3   OH265016   5.259   6.016   6.588 -0.0618 -0.0130  0.0644
14534TIP3    H165017   5.184   5.959   6.602  1.1736 -1.4973  0.8795
14534TIP3    H265018   5.314   6.003   6.664  1.3599  0.5365 -0.8269
14535TIP3   OH265019   4.939   3.190  14.837  0.0270  0.1386  0.3181
14535TIP3    H165020   4.850   3.227  14.839  0.4600  1.2254  0.4282
14535TIP3    H265021   4.974   3.208  14.925  0.9974  1.4164 -0.2961
14536TIP3   OH265022   4.916   3.200  13.489 -0.0808 -0.0802  0.1289
14536TIP3    H165023   4.845   3.219  13.428 -0.2485 -1.9333 -0.3199
14536TIP3    H265024   4.881   3.132  13.546  1.5387 -1.6175 -0.6081
14537TIP3   OH265025   5.030   0.535   0.390 -0.0752  0.6371 -0.3317
14537TIP3    H165026   4.975   0.557   0.315 -0.1115  0.9884 -0.2025
14537TIP3    H265027   5.115   0.575   0.370  0.2151 -0.1218 -0.6516
14538TIP3   OH265028   0.595   1.744  16.310  0.3559  0.3185 -0.0169
14538TIP3    H165029   0.531   1.750  16.239  0.8234  2.9522 -0.3162
14538TIP3    H265030   0.680   1.747  16.266  0.6602  0.6218  0.5794
14539TIP3   OH265031   6.218   2.848   3.808 -0.6963  0.0019  0.6078
14539TIP3    H165032   6.149   2.894   3.856  0.0777  1.1159  0.6766
14539TIP3    H265033   6.287   2.913   3.796 -0.7697 -0.2703 -1.8725
14540TIP3   OH265034   4.357   0.260  11.562 -0.1471  0.1303  0.0292
14540TIP3    H165035   4.450   0.252  11.583 -0.2607 -0.9916  0.1603
14540TIP3    H265036   4.348   0.217  11.477 -0.6134 -0.1129  0.2001
14541TIP3   OH265037   5.892   6.077   0.761  0.2621 -0.0951 -0.1488
14541TIP3    H165038   5.967   6.020   0.748 -0.2215 -0.4453 -1.5997
14541TIP3    H265039   5.926   6.166   0.751  0.5241 -0.2435 -0.5533
14542TIP3   OH265040   5.373   4.752   0.847 -0.2838 -0.3697  0.3616
14542TIP3    H165041   5.412   4.765   0.933  1.0543  0.8795 -0.3958
14542TIP3    H265042   5.287   4.715   0.865 -0.0181 -0.1617  2.2256
14543TIP3   OH265043   4.629   0.816  16.309 -0.3657 -0.2285 -0.4259
14543TIP3    H165044   4.685   0.885  16.273 -0.8130  0.2388 -0.2400
14543TIP3    H265045   4.645   0.819  16.403 -0.4550 -0.3244 -0.4089
14544TIP3   OH265046   0.385   0.953  11.381 -0.4356  0.2229  0.4717
14544TIP3    H165047   0.378   0.862  11.410  0.2659 -0.0682 -0.2455
14544TIP3    H265048   0.393   1.004  11.462  0.0950 -0.4434  0.8460
14545TIP3   OH265049   5.242   0.132  16.970  0.1103 -0.0308 -0.2573
14545TIP3    H165050   5.153   0.104  16.991  0.3809 -1.3910 -0.8161
14545TIP3    H265051   5.239   0.228  16.973 -1.1351 -0.0820  0.6350
14546TIP3   OH265052   3.263   4.917   1.156  0.4495  0.2422 -0.3937
14546TIP3    H165053   3.257   4.893   1.063 -1.8437 -0.2546 -0.1899
14546TIP3    H265054   3.205   4.993   1.165 -1.9560 -1.5896  1.1069
14547TIP3   OH265055   1.044   3.004  12.511  0.3145 -0.2520 -0.4297
14547TIP3    H165056   1.027   2.944  12.438  0.8589  0.1629 -0.9105
14547TIP3    H265057   1.086   3.079  12.470  0.7943 -0.0901  0.3429
14548TIP3   OH265058   5.000   2.496  11.413  0.6366 -0.2165  0.0579
14548TIP3    H165059   4.948   2.467  11.338  0.6703  0.4573 -0.2304
14548TIP3    H265060   5.012   2.416  11.465 -0.7622 -0.3832  0.1841
14549TIP3   OH265061   5.017   2.916   0.045  0.6929  0.1357  0.4558
14549TIP3    H165062   5.090   2.859   0.071  0.7317 -0.3048 -0.5823
14549TIP3    H265063   4.939   2.864   0.064  0.7507 -0.7030 -1.4038
14550TIP3   OH265064   3.427   4.726   3.166  0.2339 -0.2176  0.4639
14550TIP3    H165065   3.435   4.770   3.081 -0.5558 -0.9263 -0.0076
14550TIP3    H265066   3.350   4.767   3.207 -0.3083 -0.9080  0.1616
14551TIP3   OH265067   1.867   0.419   2.855 -0.5556  0.1256 -0.3981
14551TIP3    H165068   1.812   0.498   2.856  0.1614  0.6552  1.1187
14551TIP3    H265069   1.918   0.427   2.774 -1.7888  0.2674 -1.1876
14552TIP3   OH265070   3.213   3.340  17.031  0.4630 -0.2689 -0.2910
14552TIP3    H165071   3.212   3.314  17.123 -0.0112  0.2957 -0.1366
14552TIP3    H265072   3.121   3.336  17.004  0.4374  0.7999 -0.3923
14553TIP3   OH265073   4.055   3.863  12.191  0.6651  0.5452 -0.5716
14553TIP3    H165074   4.066   3.851  12.285 -1.7235  1.2438 -0.1424
14553TIP3    H265075   4.011   3.784  12.161 -0.9081  1.3723 -0.5766
14554TIP3   OH265076   4.205   5.816  16.297  0.2722 -0.5370 -0.4550
14554TIP3    H165077   4.152   5.737  16.310  1.6452 -1.2089  1.4831
14554TIP3    H265078   4.292   5.783  16.275  0.7176  0.4385 -0.1959
14555TIP3   OH265079   5.414   0.590   0.007 -0.2306 -0.2166  0.2975
14555TIP3    H165080   5.454   0.637   0.080 -0.4682 -1.6166  1.3728
14555TIP3    H265081   5.487   0.564  -0.049 -0.1189  1.5998 -0.4480
14556TIP3   OH265082   2.971   0.306   0.988 -0.3340  0.3154  0.0959
14556TIP3    H165083   2.974   0.390   1.034  1.6715  0.3434  0.0060
14556TIP3    H265084   3.052   0.262   1.015 -0.3799 -0.7405 -1.4071
14557TIP3   OH265085   3.002   1.693  15.301 -0.1992 -0.1596  0.2872
14557TIP3    H165086   3.020   1.786  15.292  1.1107 -0.4023  0.2475
14557TIP3    H265087   2.937   1.688  15.371 -1.8976  0.9127 -1.1234
14558TIP3   OH265088   3.209   0.232   1.072 -0.7835  0.0002 -0.3931
14558TIP3    H165089   3.267   0.179   1.018 -0.7670 -0.3062 -0.0829
14558TIP3    H265090   3.263   0.306   1.100 -0.2842 -0.7052  0.5619
14559TIP3   OH265091   0.599   0.512   4.248  0.8922  0.1165 -0.4393
14559TIP3    H165092   0.613   0.498   4.342 -2.5872 -0.4964  0.1353
14559TIP3    H265093   0.590   0.424   4.212 -1.5864  0.3437 -0.5391
14560TIP3   OH265094   0.450   1.571  15.922 -0.2907  0.0175  0.5676
14560TIP3    H165095   0.391   1.592  15.850  0.9292  0.4551 -0.3546
14560TIP3    H265096   0.426   1.632  15.992  1.0262  2.4047 -0.8934
14561TIP3   OH265097   2.904   3.837   2.415  0.7374  0.0149  0.0629
14561TIP3    H165098   2.870   3.859   2.502  0.6473 -0.2341  0.0905
14561TIP3    H265099   2.921   3.922   2.374 -1.2847  0.2092 -0.4923
14562TIP3   OH265100   4.363   6.618  11.794 -0.2090 -0.1141 -0.5522
14562TIP3    H165101   4.424   6.676  11.838 -1.4460  1.5794 -0.9849
14562TIP3    H265102   4.311   6.579  11.865 -0.0663  0.1234 -0.3195
14563TIP3   OH265103   0.364   2.306   4.047  0.1064 -0.4167  0.3349
14563TIP3    H165104   0.279   2.349   4.045  0.8011  1.0051 -0.0268
14563TIP3    H265105   0.399   2.326   4.134  0.7882  0.5313 -0.1316
14564TIP3   OH265106   0.787   0.566  15.093  0.0555  0.3413  0.4354
14564TIP3    H165107   0.845   0.496  15.065  0.4302  0.3345  1.2257
14564TIP3    H265108   0.807   0.639  15.033  0.5452  0.1884  0.4149
14565TIP3   OH265109   3.296   6.023  16.730 -0.3865  0.4102  1.1739
14565TIP3    H165110   3.209   5.985  16.715  0.6126 -1.4518 -0.2025
14565TIP3    H265111   3.326   5.982  16.811  0.5660 -1.6659 -0.1507
14566TIP3   OH265112   6.602   2.641  16.374 -0.4257 -0.1182  0.4037
14566TIP3    H165113   6.547   2.594  16.437 -0.1218 -1.1631 -0.0955
14566TIP3    H265114   6.680   2.588  16.365 -0.5591 -0.1139 -1.0254
14567TIP3   OH265115   2.286   3.276   6.317 -0.0109  0.4643 -0.0967
14567TIP3    H165116   2.255   3.231   6.396 -1.4806  2.0980  0.3251
14567TIP3    H265117   2.372   3.309   6.341 -0.3276  0.7047  0.7499
14568TIP3   OH265118   3.184   1.392   2.514 -0.6809 -0.1596  0.0815
14568TIP3    H165119   3.095   1.417   2.486 -0.7846 -0.1544  0.4101
14568TIP3    H265120   3.174   1.371   2.607 -0.1551  0.7570  0.3549
14569TIP3   OH265121   3.910   3.999   3.738  0.6726  0.2627 -0.0894
14569TIP3    H165122   3.995   4.041   3.736  0.9008 -0.2011 -1.7068
14569TIP3    H265123   3.876   4.008   3.649 -0.6464 -0.2074  0.3301
14570TIP3   OH265124   6.379   1.954   0.956  0.7409 -0.5386 -0.1819
14570TIP3    H165125   6.470   1.960   0.928  0.2560  0.1182 -1.7221
14570TIP3    H265126   6.353   2.044   0.976  0.2926 -0.6485 -0.2426
14571TIP3   OH265127   5.854   3.181   2.033 -0.2480  0.2441 -0.6753
14571TIP3    H165128   5.842   3.239   1.958  0.8379 -0.3942 -1.3857
14571TIP3    H265129   5.859   3.093   1.994 -1.6042 -0.3217  0.3461
14572TIP3   OH265130   2.820   3.230  13.830 -0.2651  0.4099 -0.2525
14572TIP3    H165131   2.903   3.200  13.868 -1.2043 -0.9039  0.8771
14572TIP3    H265132   2.823   3.325  13.838  0.1538  0.2649  1.9781
14573TIP3   OH265133   0.522   4.888   2.270 -0.0723  0.6217  0.6366
14573TIP3    H165134   0.606   4.849   2.293 -0.9079 -1.1828  0.7987
14573TIP3    H265135   0.537   4.929   2.185  0.1310 -2.8301 -1.1553
14574TIP3   OH265136   5.082   5.187   3.595  0.3656 -0.1264 -0.9304
14574TIP3    H165137   5.097   5.128   3.668 -0.3574  0.7771 -0.0183
14574TIP3    H265138   5.020   5.141   3.539  1.8182 -1.3198 -1.6101
14575TIP3   OH265139   6.784   6.073   5.404 -0.3110 -0.9249  0.1222
14575TIP3    H165140   6.740   6.157   5.395  0.8090  0.4072  4.6151
14575TIP3    H265141   6.865   6.082   5.355 -0.6065  0.3056 -0.1517
14576TIP3   OH265142   4.146   5.930  11.072 -0.1812 -0.5170 -0.3433
14576TIP3    H165143   4.190   5.851  11.104  1.0027  0.4240  0.4419
14576TIP3    H265144   4.148   5.922  10.977  0.1261 -1.3373 -0.2720
14577TIP3   OH265145   1.059   3.998  16.641 -0.4594 -0.1040 -0.3453
14577TIP3    H165146   1.110   3.969  16.565  1.1878 -0.4656  0.8390
14577TIP3    H265147   1.005   3.922  16.664  2.0694 -1.5724  1.2735
14578TIP3   OH265148   1.523   3.335  16.463 -0.3654 -0.2210  0.0418
14578TIP3    H165149   1.548   3.381  16.383 -0.7151 -0.1114 -0.0015
14578TIP3    H265150   1.604   3.330  16.514  0.1821 -1.4476 -0.8902
14579TIP3   OH265151   0.663   5.768   2.580 -0.4172 -0.1092  0.2447
14579TIP3    H165152   0.755   5.748   2.562 -0.0277  1.1822  0.7027
14579TIP3    H265153   0.626   5.685   2.610  0.8157 -0.4536  0.8839
14580TIP3   OH265154   3.494   3.352  15.186 -0.1359  0.1557 -0.1187
14580TIP3    H165155   3.528   3.295  15.117 -1.0315  0.2460 -0.6522
14580TIP3    H265156   3.444   3.419  15.139 -1.4334 -0.2437  0.6401
14581TIP3   OH265157   5.727   4.216  13.528 -0.4904  0.5703 -0.5139
14581TIP3    H165158   5.667   4.141  13.520  0.2436  0.0156 -0.9785
14581TIP3    H265159   5.761   4.210  13.617  1.4573 -1.1578 -1.2933
14582TIP3   OH265160   5.095   5.744  15.419  0.4104 -0.4639 -0.1782
14582TIP3    H165161   5.157   5.697  15.475  0.0411 -1.1804 -0.3608
14582TIP3    H265162   5.148   5.812  15.377  1.0928 -1.0978 -0.3669
14583TIP3   OH265163   0.457   2.510  12.781 -0.6443 -0.1669 -0.6419
14583TIP3    H165164   0.392   2.470  12.837 -1.7208 -0.7785 -2.2495
14583TIP3    H265165   0.464   2.600  12.811 -1.6729 -0.3071  0.0266
14584TIP3   OH265166   3.487   5.430  16.486 -0.1436  0.1747  0.0513
14584TIP3    H165167   3.535   5.460  16.563  0.5816 -1.7822  0.4121
14584TIP3    H265168   3.409   5.388  16.521  0.8324 -1.9069 -0.1339
14585TIP3   OH265169   0.066   4.007  15.795  0.3069  0.0104 -0.2221
14585TIP3    H165170  -0.014   3.958  15.777  1.2905 -1.9367  0.3971
14585TIP3    H265171   0.136   3.942  15.786  1.8083  1.5883 -0.4873
14586TIP3   OH265172   6.236   0.580  16.769 -0.0165 -0.5260 -0.1275
14586TIP3    H165173   6.228   0.666  16.810 -0.6353 -1.1432  1.0914
14586TIP3    H265174   6.255   0.520  16.841 -1.5360 -1.7027 -0.6452
14587TIP3   OH265175   1.463   5.191   3.351 -0.0921  0.5940 -0.1590
14587TIP3    H165176   1.490   5.256   3.285  0.2594  1.0906  0.4525
14587TIP3    H265177   1.509   5.111   3.326 -0.7941  0.4768 -1.1179
14588TIP3   OH265178   4.401   0.745   5.698  0.2557  0.3598  0.8456
14588TIP3    H165179   4.360   0.671   5.743  1.1231 -0.0355  1.0097
14588TIP3    H265180   4.495   0.726   5.701  0.4056  0.8743 -0.1755
14589TIP3   OH265181   3.988   3.279   4.852  0.1511  0.6810 -0.0532
14589TIP3    H165182   4.051   3.312   4.788  0.2769  0.3019 -0.1234
14589TIP3    H265183   3.905   3.321   4.828  0.8564  3.3750  1.6490
14590TIP3   OH265184   0.161   4.600   1.108  0.5900 -0.1681  0.0178
14590TIP3    H165185   0.196   4.635   1.026  0.3829 -2.0734 -0.9464
14590TIP3    H265186   0.172   4.505   1.100 -2.4048 -0.6877  0.7537
14591TIP3   OH265187   3.426   3.672  14.533  0.0356  0.0445  0.0329
14591TIP3    H165188   3.371   3.678  14.612  0.9200 -0.4561  0.7130
14591TIP3    H265189   3.429   3.578  14.514  0.4817  0.0871 -0.1141
14592TIP3   OH265190   1.094   2.574  14.224 -0.1577  0.0436 -0.0137
14592TIP3    H165191   1.017   2.588  14.280 -0.4279 -0.0488 -0.3640
14592TIP3    H265192   1.116   2.662  14.193 -0.3976  0.0101 -0.2794
14593TIP3   OH265193   1.582   1.450   6.681 -0.5727 -0.4926 -0.2839
14593TIP3    H165194   1.615   1.361   6.685 -0.1393 -0.2855  1.8932
14593TIP3    H265195   1.634   1.492   6.612  1.7598 -0.9872  1.0726
14594TIP3   OH265196   6.110   5.402  16.510  0.1434 -0.1102 -0.5647
14594TIP3    H165197   6.086   5.486  16.469  0.6352 -0.7553 -2.2557
14594TIP3    H265198   6.134   5.346  16.436  1.7831 -1.1185  0.6738
14595TIP3   OH265199   6.553   6.292  12.391  0.0889  0.2213  0.4215
14595TIP3    H165200   6.607   6.221  12.424 -0.1891 -0.4877 -0.6100
14595TIP3    H265201   6.604   6.371  12.407  0.9884 -0.3418  0.3583
14596TIP3   OH265202   0.025   3.878   5.078 -0.3306 -0.2778 -0.6801
14596TIP3    H165203   0.045   3.785   5.090  0.3503 -0.1263 -0.5660
14596TIP3    H265204  -0.018   3.883   4.993 -1.7300 -0.8822 -0.0506
14597TIP3   OH265205   1.425   4.037   1.673  0.4159  0.1700 -0.4526
14597TIP3    H165206   1.482   3.970   1.710  3.4075  1.6837 -1.9165
14597TIP3    H265207   1.450   4.041   1.581 -0.7621  2.2192 -0.7399
14598TIP3   OH265208   3.541   5.782  12.388  0.2977  0.2660  0.1574
14598TIP3    H165209   3.524   5.867  12.348 -0.6865 -0.0622 -0.1346
14598TIP3    H265210   3.606   5.801  12.456  1.3997  0.9637 -1.0414
14599TIP3   OH265211   2.541   1.925   4.859 -0.3226  0.8006  0.1526
14599TIP3    H165212   2.606   1.858   4.840 -0.8277  0.1594  0.6502
14599TIP3    H265213   2.550   1.942   4.953 -2.9112 -1.5482  0.9416
14600TIP3   OH265214   2.703   4.653  10.648 -0.1857 -0.2859 -0.0362
14600TIP3    H165215   2.794   4.671  10.622 -0.0396  0.2757  0.8062
14600TIP3    H265216   2.709   4.573  10.700  0.1265  0.7079  1.5394
14601TIP3   OH265217   5.809   4.301   0.058  0.6186  0.7841  0.0097
14601TIP3    H165218   5.815   4.207   0.076 -1.5930  0.5736 -0.0696
14601TIP3    H265219   5.719   4.314   0.027  1.1132  2.8175 -0.7251
14602TIP3   OH265220   3.217   3.074  16.513 -0.0421  0.2358 -0.2595
14602TIP3    H165221   3.130   3.071  16.474  1.1355 -1.1727 -3.0469
14602TIP3    H265222   3.273   3.110  16.444  2.1559 -2.2648  0.0771
14603TIP3   OH265223   6.655   4.369  12.845  0.4920 -0.0627 -0.2198
14603TIP3    H165224   6.744   4.361  12.879  0.2122  0.6866  0.7505
14603TIP3    H265225   6.612   4.287  12.870  0.0740  0.7612  2.0091
14604TIP3   OH265226   2.206   1.020   6.568  0.0855  0.0053 -0.1500
14604TIP3    H165227   2.242   0.936   6.598 -2.9668 -1.4407 -0.2031
14604TIP3    H265228   2.217   1.079   6.643 -1.4991 -1.6861  1.5223
14605TIP3   OH265229   1.150   2.458   3.793 -0.0777 -0.5636 -0.4042
14605TIP3    H165230   1.071   2.507   3.772 -0.0670 -0.9990 -1.5353
14605TIP3    H265231   1.185   2.501   3.871 -1.4876 -0.4477  0.1805
14606TIP3   OH265232   4.408   2.771  14.030  0.6696 -0.5703  0.3940
14606TIP3    H165233   4.427   2.752  14.122  1.7044 -0.0748  0.2973
14606TIP3    H265234   4.344   2.842  14.033  1.8961  0.5697  0.7571
14607TIP3   OH265235   6.006   0.854   0.980 -0.5300  0.3511  0.0354
14607TIP3    H165236   6.047   0.940   0.987 -0.3383  0.2598  0.0495
14607TIP3    H265237   6.064   0.796   1.030 -1.3444  0.4535  1.1343
14608TIP3   OH265238   3.240   1.416  17.093 -0.4840 -0.5078 -0.1409
14608TIP3    H165239   3.292   1.496  17.106 -0.1585 -0.7899  0.3143
14608TIP3    H265240   3.149   1.445  17.101 -0.3791 -0.1399 -0.2293
14609TIP3   OH265241   2.948   5.614  15.312 -0.2977 -0.6199  0.0708
14609TIP3    H165242   2.964   5.641  15.221 -1.0337 -0.2604  0.0441
14609TIP3    H265243   3.007   5.539  15.325 -1.0001 -1.4027 -1.0683
14610TIP3   OH265244   5.676   5.573   4.029  0.4178 -0.6353  0.2955
14610TIP3    H165245   5.754   5.628   4.036  0.8441 -1.1137 -0.5072
14610TIP3    H265246   5.609   5.619   4.079  1.3017 -0.3878  1.2942
14611TIP3   OH265247   1.747   3.314   6.517 -0.1600  0.4488 -0.1764
14611TIP3    H165248   1.727   3.229   6.479 -0.1317  0.1117  0.5622
14611TIP3    H265249   1.667   3.365   6.507 -0.1336  0.3854 -0.7405
14612TIP3   OH265250   3.258   0.435   5.423  0.6656  0.3367 -0.1952
14612TIP3    H165251   3.285   0.383   5.348  0.3203  1.6442 -1.2741
14612TIP3    H265252   3.174   0.398   5.450  0.1718  0.6419 -1.2720
14613TIP3   OH265253   2.771   6.226   5.316 -0.0851  0.3015  0.1956
14613TIP3    H165254   2.786   6.305   5.264 -1.6254  0.4476 -0.0746
14613TIP3    H265255   2.710   6.253   5.385  0.1644 -0.4209  0.7224
14614TIP3   OH265256   0.404   0.011  15.526 -0.5192  0.4778 -0.1673
14614TIP3    H165257   0.349  -0.005  15.450 -1.1333 -0.6573  0.4942
14614TIP3    H265258   0.343   0.009  15.600  0.3051 -0.0756  0.5111
14615TIP3   OH265259   5.281   6.797  14.621 -0.3763 -0.2934 -0.0898
14615TIP3    H165260   5.290   6.891  14.636  3.0177 -0.3551 -0.9524
14615TIP3    H265261   5.329   6.757  14.694  0.8124 -1.1859 -1.3059
14616TIP3   OH265262   1.285   6.059  11.289  0.7561  0.2116 -0.1658
14616TIP3    H165263   1.212   6.015  11.245  0.7664 -0.8103  0.7872
14616TIP3    H265264   1.283   6.024  11.378  1.0310  1.8621  0.5181
14617TIP3   OH265265   6.000   2.065   4.361  0.4134  0.2810  0.1479
14617TIP3    H165266   5.946   2.129   4.315  2.6397  1.5030 -0.9372
14617TIP3    H265267   5.982   1.982   4.316 -1.0851  0.4754  0.3329
14618TIP3   OH265268   5.354   5.402  11.315  0.0709  0.1993  0.5017
14618TIP3    H165269   5.430   5.393  11.257  0.8779  0.0110  1.5465
14618TIP3    H265270   5.302   5.323  11.300  0.7129 -0.2566  0.6487
14619TIP3   OH265271   3.212   4.132   2.699  0.2368  0.0970 -0.4141
14619TIP3    H165272   3.263   4.207   2.668  0.8484 -0.2338 -0.2189
14619TIP3    H265273   3.178   4.161   2.784  0.8174  0.0112 -0.1433
14620TIP3   OH265274   0.206   1.516   6.095 -0.2453 -0.1623 -0.3826
14620TIP3    H165275   0.234   1.575   6.165  1.8592 -1.7441  0.2069
14620TIP3    H265276   0.110   1.517   6.100 -0.1855  0.7635  1.6558
14621TIP3   OH265277   1.390   1.302   5.482  0.2547 -0.1207 -0.3206
14621TIP3    H165278   1.298   1.273   5.477  0.4936 -1.1464  0.6888
14621TIP3    H265279   1.403   1.323   5.574  1.1363 -0.3445 -0.3885
14622TIP3   OH265280   3.788   3.097   2.536  0.3264 -0.2671  0.0226
14622TIP3    H165281   3.825   3.011   2.519  2.1989  0.2309  1.3150
14622TIP3    H265282   3.693   3.081   2.544  0.4767 -1.9614 -0.9919
14623TIP3   OH265283   0.103   4.375  12.977  0.7859 -0.5903 -0.6370
14623TIP3    H165284   0.155   4.296  12.963 -0.4599 -1.8058  1.2087
14623TIP3    H265285   0.090   4.380  13.071 -0.3242  1.0705 -0.8205
14624TIP3   OH265286   1.874   3.747   3.518 -0.4519  0.0598  0.2003
14624TIP3    H165287   1.921   3.664   3.517 -1.0571 -0.3538  2.1173
14624TIP3    H265288   1.807   3.738   3.451  1.3104  0.1755 -1.6771
14625TIP3   OH265289   1.724   3.183   0.481 -0.0746 -0.3754 -0.0409
14625TIP3    H165290   1.750   3.137   0.560 -1.0404 -1.1436 -0.1484
14625TIP3    H265291   1.788   3.253   0.471 -0.4624  0.2907  1.9066
14626TIP3   OH265292   5.287   6.415   5.324 -0.2968  0.3112 -0.3050
14626TIP3    H165293   5.316   6.324   5.315 -2.1101 -0.1600 -2.0695
14626TIP3    H265294   5.336   6.448   5.399  0.3506 -2.1364  0.4484
14627TIP3   OH265295   2.838   1.112   5.046 -0.4998  0.1051 -0.1233
14627TIP3    H165296   2.908   1.168   5.080 -0.8823 -0.1961  1.2159
14627TIP3    H265297   2.767   1.121   5.110 -0.7252 -1.5751 -0.1137
14628TIP3   OH265298   2.234   4.772   5.639  0.0604  0.3409  0.1519
14628TIP3    H165299   2.236   4.850   5.695 -0.4224  0.6689 -0.2832
14628TIP3    H265300   2.321   4.733   5.650 -0.1327  0.2174  1.3796
14629TIP3   OH265301   1.447   1.496   4.830 -0.3288  0.1372  0.3615
14629TIP3    H165302   1.474   1.546   4.753  0.5307 -1.3869 -0.3731
14629TIP3    H265303   1.351   1.493   4.824 -0.3207  0.7286 -0.1828
14630TIP3   OH265304   3.835   5.473  11.907 -0.1551  0.2149 -0.3185
14630TIP3    H165305   3.758   5.517  11.872  0.4715  0.9237 -0.8469
14630TIP3    H265306   3.908   5.530  11.883  0.5890 -0.7068 -0.2934
14631TIP3   OH265307   6.648   2.818  14.524  0.2194  0.1145  0.2488
14631TIP3    H165308   6.678   2.782  14.440  0.3021  2.3468 -0.7586
14631TIP3    H265309   6.554   2.832  14.512  0.2119  0.3426  0.5733
14632TIP3   OH265310   2.300   2.978   0.145  0.4886  0.0251  0.2168
14632TIP3    H165311   2.355   3.005   0.218 -0.8585  1.4709  0.7800
14632TIP3    H265312   2.298   3.054   0.087 -1.3146  0.2769  0.5185
14633TIP3   OH265313   0.454   3.677   6.105  0.1749 -0.1308 -0.3461
14633TIP3    H165314   0.440   3.688   6.199  0.2226  2.2895 -0.5590
14633TIP3    H265315   0.522   3.610   6.098 -0.4018 -0.9209  1.2934
14634TIP3   OH265316   2.852   5.149  16.238 -0.0767 -0.2947  0.3155
14634TIP3    H165317   2.936   5.193  16.223 -0.2780  0.4843  1.3159
14634TIP3    H265318   2.851   5.132  16.332 -0.8747 -0.6484  0.2530
14635TIP3   OH265319   6.667   3.708  16.017 -0.5262 -0.0821 -0.2894
14635TIP3    H165320   6.675   3.771  15.945 -2.1619 -0.6302 -1.0124
14635TIP3    H265321   6.728   3.739  16.083  0.2046  1.0846 -1.4626
14636TIP3   OH265322   6.015   2.897   3.980  0.2321 -0.7633  0.2253
14636TIP3    H165323   5.963   2.948   4.042  0.9109 -0.1695  0.3247
14636TIP3    H265324   6.059   2.831   4.034  0.3438 -0.6366  0.2911
14637TIP3   OH265325   3.073   1.095   1.333  0.1387 -0.1289  0.5619
14637TIP3    H165326   3.048   1.173   1.381  0.4105  1.1471 -1.2768
14637TIP3    H265327   3.152   1.120   1.284 -0.8833 -0.8773 -1.6007
14638TIP3   OH265328   2.641   0.203   4.441  0.1228 -0.0958 -0.1469
14638TIP3    H165329   2.609   0.184   4.529 -0.3892  1.1528 -0.0466
14638TIP3    H265330   2.691   0.284   4.450  1.3568 -0.7577 -0.7462
14639TIP3   OH265331   6.566   3.214  13.456 -0.1389  0.1425 -0.4754
14639TIP3    H165332   6.489   3.194  13.509 -1.4607 -3.7431 -3.3858
14639TIP3    H265333   6.530   3.252  13.376  0.8917 -1.5007 -1.7794
14640TIP3   OH265334   1.770   3.380  11.208 -0.2365  0.1538 -0.0570
14640TIP3    H165335   1.811   3.463  11.181  3.2540 -0.9745  1.2455
14640TIP3    H265336   1.769   3.327  11.128  0.1303  0.4480 -0.2597
14641TIP3   OH265337   0.566   4.210   5.497 -0.1376  0.0387  0.8817
14641TIP3    H165338   0.591   4.118   5.510  1.7467  0.6245  1.8306
14641TIP3    H265339   0.509   4.230   5.572 -0.3238 -0.2807  0.8267
14642TIP3   OH265340   2.061   5.104   4.189  0.6175  0.1476  0.1243
14642TIP3    H165341   2.016   5.178   4.229  1.3853  0.3231  0.6776
14642TIP3    H265342   2.072   5.129   4.097  1.3187  0.9388  0.4205
14643TIP3   OH265343   3.244   0.214  13.200 -0.0466  0.1507  0.1858
14643TIP3    H165344   3.217   0.170  13.120  0.1727  0.1163  0.1299
14643TIP3    H265345   3.310   0.156  13.239  0.2303  0.4196  0.1220
14644TIP3   OH265346   2.631   3.138   1.300 -0.0510  0.3156  0.4917
14644TIP3    H165347   2.681   3.068   1.341 -1.2421  0.5827  2.5101
14644TIP3    H265348   2.645   3.214   1.356 -1.8824  0.6577  0.5358
14645TIP3   OH265349   3.077   4.009  14.375 -0.0351 -0.2466 -0.2330
14645TIP3    H165350   3.160   3.968  14.401  0.2587 -0.0740 -0.8771
14645TIP3    H265351   3.078   4.094  14.418  0.4627  0.0486 -0.7995
14646TIP3   OH265352   4.726   1.768  16.681 -0.2861 -0.2501 -0.2657
14646TIP3    H165353   4.660   1.729  16.625 -1.9808  2.4713 -0.3458
14646TIP3    H265354   4.724   1.861  16.659  3.5406  0.0150 -0.1742
14647TIP3   OH265355   3.779   4.228   1.028  0.0522  0.1900 -0.2961
14647TIP3    H165356   3.825   4.282   1.091 -4.4819  2.3502  1.6534
14647TIP3    H265357   3.768   4.285   0.951  3.1295 -1.4530 -2.1209
14648TIP3   OH265358   2.703   2.747   1.434 -0.1305 -0.0874 -0.3280
14648TIP3    H165359   2.745   2.762   1.519 -1.0420 -0.6171  0.2323
14648TIP3    H265360   2.679   2.655   1.435 -1.5796  0.2667 -0.4991
14649TIP3   OH265361   2.257   1.653   2.046  0.0262 -0.4699  0.4967
14649TIP3    H165362   2.301   1.619   2.124 -1.7453 -2.8083  0.5775
14649TIP3    H265363   2.328   1.685   1.991  1.6040 -1.6858  1.7223
14650TIP3   OH265364   3.704   3.354   4.387 -0.2777  0.2406  0.6983
14650TIP3    H165365   3.768   3.411   4.345 -0.1775 -1.1294 -1.1140
14650TIP3    H265366   3.711   3.271   4.340 -2.5115 -0.3347  1.2626
14651TIP3   OH265367   5.303   6.076   3.228 -0.4825  0.6252 -0.0031
14651TIP3    H165368   5.227   6.102   3.175  0.0144 -0.4220 -1.2746
14651TIP3    H265369   5.378   6.091   3.172 -0.0921 -2.6075 -0.5215
14652TIP3   OH265370   3.978   4.835  15.420  0.3419 -0.4671 -0.1221
14652TIP3    H165371   3.950   4.752  15.461  2.8837 -0.4189  1.9377
14652TIP3    H265372   3.934   4.835  15.335 -1.1117 -3.1018  0.5110
14653TIP3   OH265373   4.265   1.148   5.501  0.7255 -0.8854 -0.1970
14653TIP3    H165374   4.328   1.077   5.514 -0.7279 -2.1181  0.3520
14653TIP3    H265375   4.181   1.111   5.528 -0.2976  0.6347 -1.1671
14654TIP3   OH265376   6.095   4.238   2.359 -0.3700 -0.1387  0.7847
14654TIP3    H165377   6.061   4.186   2.431  0.0940  0.5558  1.5339
14654TIP3    H265378   6.157   4.298   2.401  1.6175 -1.2099 -0.4712
14655TIP3   OH265379   2.092   5.134  14.024 -0.1544 -0.2513  0.2801
14655TIP3    H165380   2.019   5.091  13.980 -0.0581 -3.4586  2.9282
14655TIP3    H265381   2.165   5.073  14.014  1.0878  1.0603  1.0428
14656TIP3   OH265382   1.343   6.402  11.617  0.3939  0.0036  0.7092
14656TIP3    H165383   1.389   6.475  11.659  1.3549  0.7521 -1.4738
14656TIP3    H265384   1.368   6.408  11.524 -1.6347 -1.4975 -0.0181
14657TIP3   OH265385   1.504   6.628   5.844  0.0711  0.7211 -0.4391
14657TIP3    H165386   1.519   6.548   5.795 -1.2915  0.4548 -0.4643
14657TIP3    H265387   1.488   6.695   5.778 -1.3262  0.4547 -0.4004
14658TIP3   OH265388   1.989   0.848  14.814 -0.1292 -0.2079 -0.0881
14658TIP3    H165389   1.972   0.796  14.892 -0.7870  0.9421  0.5636
14658TIP3    H265390   2.026   0.786  14.751  0.7836 -1.0675  1.2602
14659TIP3   OH265391   4.673   3.460   1.546 -0.4671 -0.0712 -0.1641
14659TIP3    H165392   4.732   3.524   1.586  0.5771 -2.1802  1.9108
14659TIP3    H265393   4.591   3.471   1.594 -0.5990  0.3085 -0.4648
14660TIP3   OH265394   5.575   3.771  13.191  0.1008  0.3517  0.3917
14660TIP3    H165395   5.556   3.864  13.191  0.5522  0.4672  1.5587
14660TIP3    H265396   5.560   3.742  13.101  2.8035  2.1241 -0.7680
14661TIP3   OH265397   2.567   1.438  15.576 -0.4199 -0.1977 -0.4569
14661TIP3    H165398   2.629   1.367  15.592  0.8351  0.9234 -0.0883
14661TIP3    H265399   2.523   1.413  15.495  0.3008 -1.1865 -0.5682
14662TIP3   OH265400   0.440   0.733   4.130  0.0557 -0.7261  0.0560
14662TIP3    H165401   0.356   0.737   4.175 -1.0914 -1.2521 -1.9110
14662TIP3    H265402   0.467   0.642   4.140  0.3682 -0.5769  0.6159
14663TIP3   OH265403   1.002   5.893  12.250  0.0907 -0.0342 -0.1528
14663TIP3    H165404   1.064   5.829  12.213  1.3491  1.0949 -0.0535
14663TIP3    H265405   1.058   5.956  12.296 -1.2863 -0.2351  1.9201
14664TIP3   OH265406   0.859   2.485   5.201 -0.5372  0.1840 -0.2632
14664TIP3    H165407   0.874   2.570   5.160 -1.9771  1.9316  2.5273
14664TIP3    H265408   0.940   2.468   5.251 -0.1803 -0.2006 -0.9592
14665TIP3   OH265409   4.855   6.022   2.567 -0.1410  0.3723  0.1316
14665TIP3    H165410   4.885   5.962   2.499  0.3259  1.3802 -0.5688
14665TIP3    H265411   4.927   6.025   2.630 -0.5021 -0.4261  0.5971
14666TIP3   OH265412   3.375   3.269  14.829  0.4380 -0.0673 -0.1152
14666TIP3    H165413   3.328   3.300  14.751  0.1927 -0.5501 -0.1622
14666TIP3    H265414   3.434   3.202  14.795 -0.7172 -1.3316  0.3173
14667TIP3   OH265415   4.692   6.778   0.539  0.1173 -0.8447  0.2798
14667TIP3    H165416   4.761   6.813   0.596 -0.9376  1.3486  0.3166
14667TIP3    H265417   4.624   6.845   0.541 -1.6130 -2.5171 -0.5226
14668TIP3   OH265418   3.385   3.143   4.162 -0.2582 -0.1383 -0.5826
14668TIP3    H165419   3.433   3.069   4.199 -1.5847 -0.0463  1.5079
14668TIP3    H265420   3.407   3.216   4.219 -2.6872 -0.0721  0.4077
14669TIP3   OH265421   1.363   0.478  10.591  0.6306  0.3826 -0.0612
14669TIP3    H165422   1.300   0.411  10.565  0.6034  0.9306 -1.5636
14669TIP3    H265423   1.441   0.430  10.617  0.3624 -0.2567 -0.4263
14670TIP3   OH265424   1.833   0.935  12.894  0.2202  0.5112 -0.4264
14670TIP3    H165425   1.900   0.988  12.851  2.4772  0.0147  2.2019
14670TIP3    H265426   1.782   0.997  12.945  0.0428  0.6285 -0.7410
14671TIP3   OH265427   1.228   0.231   4.617 -0.1587  0.1967 -0.2597
14671TIP3    H165428   1.175   0.151   4.620  0.4802 -0.1991  0.9247
14671TIP3    H265429   1.178   0.290   4.560 -2.8390  0.4815  2.1434
14672TIP3   OH265430   6.672   4.268  11.175  0.2489  0.2258  0.2015
14672TIP3    H165431   6.677   4.290  11.082 -2.0711  0.9019  0.1896
14672TIP3    H265432   6.687   4.173  11.178  4.7163  0.7004 -0.3152
14673TIP3   OH265433   4.406   3.507   5.614 -0.1810  0.2398 -0.0356
14673TIP3    H165434   4.439   3.489   5.702 -0.9473 -2.1442 -0.1638
14673TIP3    H265435   4.479   3.551   5.570  0.2430  1.4367  1.7216
14674TIP3   OH265436   3.428   0.227  12.320 -0.2162  0.0721 -0.1728
14674TIP3    H165437   3.478   0.148  12.342 -1.2839 -0.9178 -1.1621
14674TIP3    H265438   3.354   0.195  12.269  0.2658  1.8815 -2.1518
14675TIP3   OH265439   0.122   4.406  13.928  0.7688 -0.6052  0.1821
14675TIP3    H165440   0.064   4.432  13.857  0.5088  0.3587  0.7275
14675TIP3    H265441   0.168   4.329  13.895  1.3542  0.3751 -1.3918
14676TIP3   OH265442   3.779   3.162  12.518 -0.1175 -0.3140  0.0390
14676TIP3    H165443   3.798   3.068  12.518  0.3571 -0.2554  1.6566
14676TIP3    H265444   3.701   3.171  12.572  0.4415  0.3067  0.7671
14677TIP3   OH265445   0.742   3.780  15.975 -0.5426 -0.4023  0.3146
14677TIP3    H165446   0.828   3.759  16.011 -0.6240 -1.4095 -0.0482
14677TIP3    H265447   0.709   3.850  16.031 -0.4423 -1.5592  1.8834
14678TIP3   OH265448   4.615   2.955   5.879 -0.0813  0.1346 -0.0538
14678TIP3    H165449   4.667   2.877   5.897  1.6917  1.2659 -0.0229
14678TIP3    H265450   4.673   3.028   5.903 -1.0870  1.4921 -1.5840
14679TIP3   OH265451   1.474   5.602   3.328  0.2865 -0.1856  0.4694
14679TIP3    H165452   1.559   5.560   3.313  1.1127  1.7296 -0.5324
14679TIP3    H265453   1.442   5.624   3.241 -0.7851 -0.0164  0.8930
14680TIP3   OH265454   3.917   5.173  11.183 -0.6622  0.1534  0.0428
14680TIP3    H165455   3.903   5.103  11.120 -2.4720  0.9990 -0.5411
14680TIP3    H265456   3.843   5.169  11.243  0.4729  0.0472  1.5146
14681TIP3   OH265457   2.222   0.822  11.340  0.2356 -0.0691  0.2704
14681TIP3    H165458   2.283   0.761  11.299  0.7381 -0.0672  0.9824
14681TIP3    H265459   2.190   0.876  11.268  1.2281  0.0487 -0.1082
14682TIP3   OH265460   3.945   3.743  16.905 -0.2293  0.0793  0.0571
14682TIP3    H165461   3.944   3.668  16.965  0.1580  0.5807  0.7037
14682TIP3    H265462   3.934   3.819  16.962  0.2537  0.5744 -0.5009
14683TIP3   OH265463   5.425   2.184  12.345 -0.0763 -0.2805  0.3169
14683TIP3    H165464   5.354   2.127  12.316 -1.1868 -0.3932  3.0082
14683TIP3    H265465   5.502   2.152  12.298 -1.3965 -1.4529 -1.1710
14684TIP3   OH265466   4.645   1.241  14.190  0.3630 -0.6274 -0.0129
14684TIP3    H165467   4.652   1.335  14.174  0.3641 -0.2532  1.9118
14684TIP3    H265468   4.586   1.209  14.122  1.4521  0.5043 -1.5498
14685TIP3   OH265469   5.808   0.277   6.081 -0.0583  0.2435  0.0161
14685TIP3    H165470   5.886   0.333   6.091 -0.6525  1.0604  0.1661
14685TIP3    H265471   5.735   0.338   6.084 -0.8223 -0.6962  1.6957
14686TIP3   OH265472   0.489   3.147  13.293 -0.3062 -0.3838 -0.0052
14686TIP3    H165473   0.582   3.163  13.281 -0.6561  2.3584  0.3274
14686TIP3    H265474   0.477   3.150  13.388 -1.0372  1.7499 -0.1150
14687TIP3   OH265475   2.403   2.654   0.351  0.0804 -0.2220 -0.4046
14687TIP3    H165476   2.418   2.645   0.446  2.0158  0.1747 -0.6245
14687TIP3    H265477   2.319   2.699   0.344  0.1997  0.3145  1.1619
14688TIP3   OH265478   2.633   0.912   3.300 -0.2690 -0.3570  0.3401
14688TIP3    H165479   2.627   0.817   3.311 -2.6584 -0.1599  1.4537
14688TIP3    H265480   2.608   0.927   3.208 -0.2023 -0.7990  0.2496
14689TIP3   OH265481   4.699   6.758   0.244  0.2003  0.1858  0.0114
14689TIP3    H165482   4.710   6.748   0.339 -0.5231  0.9602  0.1915
14689TIP3    H265483   4.605   6.766   0.231  0.2239 -0.7674 -0.8824
14690TIP3   OH265484   0.898   0.403  13.255 -0.3662  0.8845 -0.2502
14690TIP3    H165485   0.944   0.402  13.171  1.3119  0.2858  0.6378
14690TIP3    H265486   0.806   0.387  13.232  0.2736 -0.9457 -1.8444
14691TIP3   OH265487   0.732   4.278   4.336  0.2189 -0.1064  0.5028
14691TIP3    H165488   0.728   4.182   4.330  0.1982 -0.0472 -0.4904
14691TIP3    H265489   0.747   4.307   4.247  0.4099  0.8177  0.8310
14692TIP3   OH265490   3.918   0.015   3.294  0.9299 -0.0119  0.0713
14692TIP3    H165491   4.000  -0.021   3.259  0.1352  0.7401 -2.8568
14692TIP3    H265492   3.925   0.110   3.279 -0.1927  0.1436  0.4172
14693TIP3   OH265493   5.472   3.275   4.880  0.1170 -0.6248  0.1416
14693TIP3    H165494   5.396   3.230   4.843 -1.3962  2.1348 -0.2973
14693TIP3    H265495   5.492   3.225   4.959 -2.1261 -1.4590  0.2648
14694TIP3   OH265496   2.931   0.591   1.791  0.3714 -0.3441  0.2445
14694TIP3    H165497   3.009   0.617   1.741  1.0107 -0.5198  1.1185
14694TIP3    H265498   2.867   0.566   1.724  0.8597  0.3550 -0.5086
14695TIP3   OH265499   3.377   3.554   4.120 -0.2635  0.1057  0.0098
14695TIP3    H165500   3.375   3.647   4.139 -0.4112  0.1785 -0.3416
14695TIP3    H265501   3.344   3.512   4.200 -0.1931  0.3531  0.1689
14696TIP3   OH265502   0.742   6.639   2.788  0.0494 -0.6485 -0.3440
14696TIP3    H165503   0.727   6.545   2.787 -0.9209 -0.5100 -0.0640
14696TIP3    H265504   0.803   6.653   2.860 -1.4431 -0.8593  1.0286
14697TIP3   OH265505   1.596   1.902  14.027 -0.4643 -0.1212 -0.2466
14697TIP3    H165506   1.563   1.819  14.061 -1.4595  0.0026 -0.8654
14697TIP3    H265507   1.670   1.878  13.971  0.2451 -0.4493  0.8097
14698TIP3   OH265508   0.370   6.105   2.184  0.6615 -0.2772 -0.4222
14698TIP3    H165509   0.367   6.065   2.271  0.1954 -0.9103 -0.7206
14698TIP3    H265510   0.296   6.167   2.184  1.8840  1.2568  0.3353
14699TIP3   OH265511   0.166   6.142   5.218  0.3259  0.4852  0.0589
14699TIP3    H165512   0.176   6.224   5.169  1.2042  0.8255  0.7677
14699TIP3    H265513   0.114   6.086   5.161  0.2218  1.3289 -0.6985
14700TIP3   OH265514   4.193   2.003   4.269 -0.1194  0.8408 -0.6040
14700TIP3    H165515   4.207   1.954   4.349 -0.4441 -1.0595 -1.6595
14700TIP3    H265516   4.132   2.072   4.293  0.3916  0.7832  0.9347
14701TIP3   OH265517   3.119   5.684  16.079 -0.1202  0.2705 -0.7901
14701TIP3    H165518   3.170   5.680  16.160 -0.9706 -1.2724 -0.2815
14701TIP3    H265519   3.156   5.614  16.025 -0.5079  0.3325 -1.1366
14702TIP3   OH265520   0.148   3.331  13.662 -0.1143  0.6074  0.0990
14702TIP3    H165521   0.123   3.373  13.745 -0.0321 -2.1916  1.6736
14702TIP3    H265522   0.096   3.251  13.660  2.4400 -1.1354 -0.8013
14703TIP3   OH265523   6.450   4.467   2.183  0.1517  0.0418  0.2146
14703TIP3    H165524   6.432   4.481   2.090 -0.8077  0.5222  0.4620
14703TIP3    H265525   6.474   4.374   2.189 -0.4322 -0.1584 -0.4253
14704TIP3   OH265526   5.902   0.964  12.979 -0.2948  0.0618  0.2988
14704TIP3    H165527   5.868   0.993  12.894 -0.5481 -0.2588  0.2916
14704TIP3    H265528   5.845   0.892  13.005 -2.4485  2.3143  2.3836
14705TIP3   OH265529   0.681   4.917   3.133  0.2388  0.5253  0.1957
14705TIP3    H165530   0.645   4.995   3.090  0.2573 -0.5524 -1.8944
14705TIP3    H265531   0.604   4.867   3.160  0.1317 -0.3546 -1.6033
14706TIP3   OH265532   2.106   0.992   4.352 -0.3882  0.2206  0.3104
14706TIP3    H165533   2.196   1.022   4.366  0.7721 -2.4529 -0.8089
14706TIP3    H265534   2.113   0.925   4.285 -3.8157  2.8210 -3.1020
14707TIP3   OH265535   5.919   5.012   0.701  0.2443 -0.0623  0.1850
14707TIP3    H165536   5.950   5.034   0.613 -2.2189  1.3194 -0.4230
14707TIP3    H265537   5.882   4.924   0.692  1.9059 -0.8300  0.4202
14708TIP3   OH265538   0.508   5.129  13.916 -0.1555 -0.1269  0.1725
14708TIP3    H165539   0.476   5.182  13.843 -0.8989 -0.0186  0.5681
14708TIP3    H265540   0.534   5.046  13.876  0.9860  0.5102 -0.4449
14709TIP3   OH265541   2.753   1.762   0.887  0.1377  0.4414 -0.3175
14709TIP3    H165542   2.806   1.690   0.851 -0.0889 -0.1388  0.4690
14709TIP3    H265543   2.760   1.751   0.982  0.2688  1.6013 -0.1844
14710TIP3   OH265544   1.579   5.415  15.641  0.2978  0.0377 -0.0445
14710TIP3    H165545   1.644   5.416  15.711  1.4331  0.7011 -1.0760
14710TIP3    H265546   1.542   5.327  15.643 -0.3967  0.3335  1.9998
14711TIP3   OH265547   6.341   2.480  14.828 -0.5122 -0.0191 -0.1734
14711TIP3    H165548   6.398   2.540  14.877  0.6812 -0.6856 -0.7206
14711TIP3    H265549   6.275   2.453  14.892  1.8113 -1.9796  1.5754
14712TIP3   OH265550   4.461   5.851   5.151  0.1528 -0.2329  0.2952
14712TIP3    H165551   4.445   5.881   5.061 -1.7149  0.9429  0.9608
14712TIP3    H265552   4.550   5.879   5.170  0.1159  0.6713 -0.7462
14713TIP3   OH265553   5.184   0.141   3.830  0.3996  0.1102 -0.0790
14713TIP3    H165554   5.183   0.046   3.846  0.9258  0.1833  0.4470
14713TIP3    H265555   5.103   0.158   3.783 -0.1960 -0.4612  0.7094
14714TIP3   OH265556   0.915   0.115  14.477  0.3151  0.3645 -0.2255
14714TIP3    H165557   0.833   0.123  14.527  0.3195 -3.3985  0.7072
14714TIP3    H265558   0.887   0.111  14.386 -0.1866  2.0326 -0.1866
14715TIP3   OH265559   1.043   3.821  12.835  0.3788  0.0942  0.2068
14715TIP3    H165560   1.069   3.731  12.814  0.6159 -0.4970  2.7771
14715TIP3    H265561   1.108   3.875  12.791  1.7549 -1.1029  0.7012
14716TIP3   OH265562   1.666   6.476   5.270  0.7178 -0.6473 -1.1894
14716TIP3    H165563   1.645   6.468   5.178  0.4028 -0.5794 -1.1227
14716TIP3    H265564   1.761   6.460   5.275  0.6152 -1.3473 -1.4331
14717TIP3   OH265565   1.226   2.080  13.971 -0.3479 -0.5161  0.0561
14717TIP3    H165566   1.205   2.154  13.914 -0.8328 -1.0116 -0.4335
14717TIP3    H265567   1.176   2.007  13.933  0.2994 -1.1409  0.3910
14718TIP3   OH265568   3.625   3.536   1.956 -0.1374 -0.2273 -0.0949
14718TIP3    H165569   3.711   3.565   1.984  0.7483 -2.6122 -0.1344
14718TIP3    H265570   3.633   3.525   1.861 -0.5274 -0.2935 -0.1227
14719TIP3   OH265571   4.581   4.897   5.614 -0.1624 -0.5218  0.1661
14719TIP3    H165572   4.526   4.974   5.600 -1.9140 -1.6669  0.3488
14719TIP3    H265573   4.646   4.901   5.544 -0.5343  0.8509 -0.1234
14720TIP3   OH265574   6.455   2.962   1.056  0.0912 -0.1027  0.4020
14720TIP3    H165575   6.386   3.028   1.066  0.2324  0.1220 -0.0721
14720TIP3    H265576   6.519   3.003   0.997 -0.6839 -1.3079 -1.3886
14721TIP3   OH265577   0.387   4.926  13.750  0.1830 -0.0607 -0.2085
14721TIP3    H165578   0.355   4.837  13.731 -1.0718  0.5332 -0.9888
14721TIP3    H265579   0.319   4.984  13.716  1.2936  1.2324 -0.3082
14722TIP3   OH265580   4.021   4.206   5.267 -0.2049 -0.1020 -0.3084
14722TIP3    H165581   3.966   4.188   5.190 -0.3316  0.0687 -0.2588
14722TIP3    H265582   4.096   4.147   5.257 -0.0532  0.1518 -0.7394
14723TIP3   OH265583   4.007   4.686  10.788  0.1693 -0.1809  0.3482
14723TIP3    H165584   4.011   4.693  10.693  1.0432 -0.4247  0.3577
14723TIP3    H265585   4.098   4.687  10.817  0.0220 -1.7984  1.0403
14724TIP3   OH265586   6.730   1.409   0.108  0.0992 -0.2206 -0.5377
14724TIP3    H165587   6.824   1.400   0.094  0.9991  0.2199  3.6857
14724TIP3    H265588   6.716   1.503   0.121 -0.7718 -0.3473 -0.4811
14725TIP3   OH265589   5.538   5.899   4.938 -0.0892  0.0049 -0.7292
14725TIP3    H165590   5.466   5.923   4.880  0.1528 -0.0906 -1.0744
14725TIP3    H265591   5.543   5.804   4.931  0.1876  0.0267 -0.8539
14726TIP3   OH265592   3.157   1.046   2.850  0.0605 -0.2276  0.5412
14726TIP3    H165593   3.227   0.990   2.882 -0.5207 -0.9185  0.6409
14726TIP3    H265594   3.084   1.031   2.911 -0.3037  0.1680  0.2115
14727TIP3   OH265595   6.214   5.926   2.088  0.5026 -0.0566  0.0968
14727TIP3    H165596   6.147   5.870   2.127 -0.0678  0.5077 -0.0631
14727TIP3    H265597   6.294   5.905   2.138  1.0868 -3.2196 -1.8486
14728TIP3   OH265598   5.216   2.313  15.873  0.5443  0.2852  0.5948
14728TIP3    H165599   5.162   2.384  15.841  0.3330  0.0778  0.4906
14728TIP3    H265600   5.188   2.300  15.963 -0.5223 -0.7136  0.1379
14729TIP3   OH265601   2.188   5.074  17.100  0.2990  0.3281  0.0374
14729TIP3    H165602   2.159   5.092  17.190 -0.2392 -1.2006  0.1970
14729TIP3    H265603   2.107   5.058  17.052  0.6868 -1.1007 -0.1838
14730TIP3   OH265604   6.655   5.009   3.127 -0.2918  0.2580  0.1019
14730TIP3    H165605   6.737   5.035   3.085  0.7390  0.2711  2.0488
14730TIP3    H265606   6.681   4.963   3.207 -2.1778 -0.4243  0.3910
14731TIP3   OH265607   2.124   0.304   6.187 -0.2008  0.7219  0.4706
14731TIP3    H165608   2.087   0.253   6.259 -0.7246 -0.8038 -0.8167
14731TIP3    H265609   2.217   0.281   6.186 -0.3971 -0.0743  0.0195
14732TIP3   OH265610   3.167   3.824   0.840 -0.0022 -0.0779 -0.0106
14732TIP3    H165611   3.257   3.850   0.822 -0.0082  1.1724  1.5301
14732TIP3    H265612   3.173   3.739   0.883  0.1769 -1.6599 -2.8997
14733TIP3   OH265613   2.490   3.528   0.510 -0.3670  0.3572 -0.0812
14733TIP3    H165614   2.497   3.585   0.433 -0.2672  0.9459  0.3551
14733TIP3    H265615   2.571   3.477   0.510  1.9488  3.6198  2.1750
14734TIP3   OH265616   2.921   3.459  12.356 -0.5357 -0.2972 -0.6988
14734TIP3    H165617   2.847   3.474  12.415  1.2985  1.7102  1.2591
14734TIP3    H265618   2.893   3.499  12.273 -1.4097  1.0774  0.2079
14735TIP3   OH265619   1.397   4.071  17.092  0.0441 -0.3357 -0.6186
14735TIP3    H165620   1.432   4.138  17.033  0.3358 -0.5618 -0.7043
14735TIP3    H265621   1.324   4.033  17.044  1.3621 -1.7387 -1.6010
14736TIP3   OH265622   1.938   2.316   2.209 -0.7034  0.4006 -0.3652
14736TIP3    H165623   1.869   2.382   2.202 -0.4821  0.7968  0.8496
14736TIP3    H265624   1.908   2.256   2.277 -0.6826 -0.5026 -1.1296
14737TIP3   OH265625   5.822   2.118  15.713  0.4020  0.1752 -0.3536
14737TIP3    H165626   5.862   2.076  15.637 -0.2972  1.2969 -1.3624
14737TIP3    H265627   5.731   2.087  15.712 -0.0613  1.5165 -0.9805
14738TIP3   OH265628   4.146   5.014  13.969 -0.1256 -0.3647 -0.2693
14738TIP3    H165629   4.129   5.108  13.961 -0.3544 -0.3400  0.4414
14738TIP3    H265630   4.091   4.973  13.902  0.8461  0.0795 -1.3834
14739TIP3   OH265631   3.700   0.405  11.794  0.0745 -0.3240  0.2663
14739TIP3    H165632   3.716   0.497  11.774  0.3964 -0.4334  0.0205
14739TIP3    H265633   3.644   0.374  11.723  0.3331 -0.4337  0.1106
14740TIP3   OH265634   0.729   3.543   0.189  0.3258 -0.1235 -0.3760
14740TIP3    H165635   0.819   3.568   0.170 -0.5283  2.8173 -1.0026
14740TIP3    H265636   0.677   3.620   0.166 -2.1921 -1.1258  1.4947
14741TIP3   OH265637   0.647   1.820   2.979 -0.6235  0.6443  0.5560
14741TIP3    H165638   0.731   1.809   2.934 -1.2789  0.2739 -0.6183
14741TIP3    H265639   0.667   1.875   3.055  0.6030  0.8972  0.0661
14742TIP3   OH265640   6.188   2.979  14.963 -0.1041 -0.1611 -0.0841
14742TIP3    H165641   6.254   2.930  14.914 -0.5757 -0.5873 -0.2904
14742TIP3    H265642   6.197   2.948  15.053  0.3092  0.1458 -0.0102
14743TIP3   OH265643   6.608   5.282  16.737 -0.0732 -0.1177  0.0125
14743TIP3    H165644   6.671   5.274  16.808  1.2583 -1.0285 -1.2184
14743TIP3    H265645   6.566   5.196  16.733  0.2594 -0.2569 -0.6443
14744TIP3   OH265646   1.932   3.371   0.532  0.1183 -0.1402 -0.6731
14744TIP3    H165647   1.964   3.460   0.549  0.3436 -0.0124 -1.6860
14744TIP3    H265648   1.981   3.316   0.593  0.3059  0.3838 -0.3443
14745TIP3   OH265649   3.597   6.027   4.290 -0.3469  0.4277  0.3185
14745TIP3    H165650   3.637   5.941   4.300  1.2944  1.2729  1.3565
14745TIP3    H265651   3.557   6.024   4.203  2.0216 -0.4960 -0.8371
14746TIP3   OH265652   3.622   6.243   1.712  0.3341  0.9103 -0.1893
14746TIP3    H165653   3.688   6.176   1.729 -1.0218 -0.3935  0.1279
14746TIP3    H265654   3.604   6.281   1.798 -0.2450  0.3486 -0.0498
14747TIP3   OH265655   4.940   0.640  17.095 -0.0289  0.1224  0.2568
14747TIP3    H165656   4.966   0.705  17.030  0.9335  0.8723  1.3529
14747TIP3    H265657   4.915   0.563  17.044 -0.5395  1.1095 -1.0403
14748TIP3   OH265658   4.561   1.502   1.282  0.5658 -0.3338 -0.1039
14748TIP3    H165659   4.487   1.460   1.237  0.8107  0.0827 -0.9158
14748TIP3    H265660   4.624   1.431   1.296 -0.2262 -0.8169  1.1335
14749TIP3   OH265661   4.990   4.755  14.248 -0.3541 -0.5100 -0.2353
14749TIP3    H165662   4.937   4.832  14.228 -0.7177 -1.1290 -1.8498
14749TIP3    H265663   5.036   4.777  14.328 -1.3185  0.9401 -0.0441
14750TIP3   OH265664   6.187   4.936  13.849 -0.7067 -0.1553  0.0029
14750TIP3    H165665   6.236   4.998  13.903 -2.1181  0.3841  0.7095
14750TIP3    H265666   6.120   4.901  13.907 -1.4976 -0.4642 -1.0737
14751TIP3   OH265667   1.511   0.679   3.996 -0.4715 -0.1885  0.4183
14751TIP3    H165668   1.605   0.695   3.984 -1.1573  2.5274 -3.0592
14751TIP3    H265669   1.490   0.609   3.935 -1.1399  1.5363 -1.4468
14752TIP3   OH265670   1.676   1.768   3.079 -0.3118 -0.4607  0.5137
14752TIP3    H165671   1.746   1.709   3.051  0.2016  0.5879 -0.4413
14752TIP3    H265672   1.595   1.718   3.065  0.0743 -0.6982 -0.9356
14753TIP3   OH265673   5.539   6.005   3.531  0.0401  0.5532 -0.3403
14753TIP3    H165674   5.589   5.965   3.460 -0.7768  0.7822 -1.0529
14753TIP3    H265675   5.577   5.967   3.611  0.7937  0.1027 -0.9015
14754TIP3   OH265676   4.613   0.806  10.566  0.4394 -0.3976  0.4899
14754TIP3    H165677   4.561   0.785  10.489  0.0437 -2.3193  1.2348
14754TIP3    H265678   4.553   0.792  10.640  1.2438 -0.0287  1.2287
14755TIP3   OH265679   0.336   0.288   4.135 -0.3868  0.0729  0.0819
14755TIP3    H165680   0.420   0.264   4.175  1.4572  3.6318 -1.1964
14755TIP3    H265681   0.341   0.252   4.046 -0.2744  0.1132  0.0709
14756TIP3   OH265682   2.521   4.703  11.166 -0.3505 -0.0846 -0.1083
14756TIP3    H165683   2.506   4.619  11.210 -0.9090 -0.6678 -1.3736
14756TIP3    H265684   2.528   4.681  11.073  1.7005  1.0021 -0.2770
14757TIP3   OH265685   0.216   5.781   4.408 -0.9657  0.8018 -0.5861
14757TIP3    H165686   0.143   5.737   4.365 -1.2518  1.6954 -1.0565
14757TIP3    H265687   0.217   5.746   4.497  1.2481 -3.0582 -1.8860
14758TIP3   OH265688   2.793   3.178  14.232 -0.4157 -1.0328 -0.4414
14758TIP3    H165689   2.753   3.248  14.180 -0.6012 -0.5812  0.2986
14758TIP3    H265690   2.735   3.169  14.308  1.0947 -0.0713  0.8775
14759TIP3   OH265691   6.394   1.724   2.783 -0.1596 -0.6409  0.5886
14759TIP3    H165692   6.473   1.777   2.796 -1.1518  0.9110  0.5320
14759TIP3    H265693   6.376   1.686   2.869 -1.1612  1.6696  1.4993
14760TIP3   OH265694   4.016   4.217  16.653 -0.2559  0.0282  0.1609
14760TIP3    H165695   4.040   4.141  16.705 -0.9167 -1.4962 -1.6580
14760TIP3    H265696   4.011   4.184  16.563  0.4252  2.4378 -0.8493
14761TIP3   OH265697   4.373   1.358  11.924 -0.7695  0.1035  0.2254
14761TIP3    H165698   4.322   1.374  12.004  0.5987  1.4987  0.8727
14761TIP3    H265699   4.432   1.286  11.946  0.2275  1.0694  0.8138
14762TIP3   OH265700   3.141   5.669   4.039 -0.0604 -0.0313  0.6717
14762TIP3    H165701   3.081   5.605   4.001  0.5576  1.4140 -3.1905
14762TIP3    H265702   3.090   5.750   4.043  0.6671  0.4522  0.4337
14763TIP3   OH265703   5.979   0.436   3.263  0.7101  0.6858 -0.3448
14763TIP3    H165704   5.935   0.427   3.179 -0.4529 -0.4224  0.3433
14763TIP3    H265705   6.063   0.390   3.252 -0.2259 -1.0967 -0.3845
14764TIP3   OH265706   0.326   4.725   5.681  0.1179  0.0957  0.3652
14764TIP3    H165707   0.324   4.764   5.594  1.7315  1.5572  0.9357
14764TIP3    H265708   0.246   4.672   5.685  0.2628 -0.4320 -2.1663
14765TIP3   OH265709   6.115   1.616   3.238 -0.3018  0.6791  0.1253
14765TIP3    H165710   6.039   1.662   3.201 -1.0496 -1.4602 -1.1292
14765TIP3    H265711   6.165   1.685   3.282 -2.6051  2.2739  0.4142
14766TIP3   OH265712   3.771   0.927  14.205 -0.1757 -0.8672 -0.1775
14766TIP3    H165713   3.827   0.861  14.166  0.6291  0.0060 -0.5193
14766TIP3    H265714   3.682   0.898  14.185  0.1922 -1.0541 -1.6583
14767TIP3   OH265715   4.407   3.754  16.908  0.0223 -0.4016  0.0817
14767TIP3    H165716   4.389   3.715  16.823  1.2501 -1.1296  0.1314
14767TIP3    H265717   4.501   3.773  16.907 -0.4857  2.6534  0.0605
14768TIP3   OH265718   0.556   4.599   4.688  1.0434  0.1542  0.0940
14768TIP3    H165719   0.609   4.611   4.767  0.9867  1.4476 -0.0411
14768TIP3    H265720   0.616   4.561   4.624  0.7264 -2.2934  1.1565
14769TIP3   OH265721   3.687   6.482   1.559  0.4191  0.0482 -0.2942
14769TIP3    H165722   3.650   6.412   1.613 -0.3592  0.6842  0.0254
14769TIP3    H265723   3.766   6.509   1.605 -0.2765  0.6357  0.5997
14770TIP3   OH265724   4.184   5.420  12.078 -0.2479 -0.6863  0.6455
14770TIP3    H165725   4.212   5.418  11.986  0.7831 -0.0353  0.9323
14770TIP3    H265726   4.089   5.410  12.074 -0.0222 -2.9897 -0.3608
14771TIP3   OH265727   1.852   4.776   2.630  0.2975 -0.0772  0.5162
14771TIP3    H165728   1.864   4.714   2.701 -1.1839  0.4992  1.3128
14771TIP3    H265729   1.940   4.807   2.609  1.0328 -2.1313  0.3521
14772TIP3   OH265730   6.590   2.817   0.236 -0.1156 -0.2811 -0.2237
14772TIP3    H165731   6.579   2.880   0.165  0.9717 -1.3272 -1.3701
14772TIP3    H265732   6.681   2.787   0.228  0.4619  0.4591  2.4025
14773TIP3   OH265733   6.630   1.977  16.153  0.4467 -0.2744 -0.1564
14773TIP3    H165734   6.705   2.008  16.103 -1.0751  0.5169 -2.0599
14773TIP3    H265735   6.568   1.946  16.088  0.2232 -3.7378  1.4872
14774TIP3   OH265736   1.660   5.411   4.238  0.0462 -0.1530 -0.1444
14774TIP3    H165737   1.626   5.425   4.150 -1.3169 -0.2286  0.3541
14774TIP3    H265738   1.659   5.498   4.278 -0.3123 -0.2768  0.1245
14775TIP3   OH265739   4.751   5.128   4.681  0.1139 -0.3521 -0.4425
14775TIP3    H165740   4.770   5.040   4.714 -2.2196 -0.9443 -0.5077
14775TIP3    H265741   4.764   5.185   4.756  1.3688 -0.7620 -0.3241
14776TIP3   OH265742   6.718   3.270   6.520  0.7253  0.1934  0.1858
14776TIP3    H165743   6.651   3.273   6.451 -0.1195 -1.7848  0.8625
14776TIP3    H265744   6.708   3.354   6.566 -0.3231  0.5226 -0.6062
14777TIP3   OH265745   0.146   1.329  16.395  0.6692 -0.0830  0.0638
14777TIP3    H165746   0.158   1.387  16.470 -1.4522  1.8869 -0.9812
14777TIP3    H265747   0.183   1.377  16.321  1.4818 -1.3929 -0.4225
14778TIP3   OH265748   0.436   5.489  16.314  0.1685 -0.2942 -0.1358
14778TIP3    H165749   0.382   5.550  16.264 -0.4476 -0.7370 -0.0137
14778TIP3    H265750   0.381   5.462  16.387  0.1940 -1.4936 -0.5453
14779TIP3   OH265751   0.172   1.914   3.489 -0.3623 -0.4037 -0.3747
14779TIP3    H165752   0.148   1.851   3.421  1.8640 -1.1981 -0.5072
14779TIP3    H265753   0.106   1.902   3.557 -1.5135 -0.9765 -1.5356
14780TIP3   OH265754   6.518   3.563  15.700  0.1062 -0.1480  0.2061
14780TIP3    H165755   6.542   3.525  15.785  0.2751 -0.5572 -0.0233
14780TIP3    H265756   6.545   3.497  15.636 -1.7672 -0.7404 -0.0581
14781TIP3   OH265757   3.201   6.508   0.199  0.1318 -0.2713 -0.1053
14781TIP3    H165758   3.165   6.448   0.264  1.1594 -1.8973 -0.9744
14781TIP3    H265759   3.127   6.561   0.171 -0.9155 -1.4384  0.3761
14782TIP3   OH265760   1.615   3.723  11.415 -0.0436  0.3484 -0.2241
14782TIP3    H165761   1.607   3.815  11.438 -0.2770  0.1311  0.5802
14782TIP3    H265762   1.708   3.703  11.424 -0.0426  0.4227 -0.0726
14783TIP3   OH265763   3.008   2.372   5.960 -0.8334 -0.0743 -0.6175
14783TIP3    H165764   3.067   2.447   5.965 -1.3218  0.3672 -1.1689
14783TIP3    H265765   2.987   2.366   5.866 -0.6295 -1.0348 -0.6024
14784TIP3   OH265766   0.833   5.501   2.146  0.3764 -0.4495 -0.5325
14784TIP3    H165767   0.889   5.577   2.127  0.0083 -0.7446 -3.1342
14784TIP3    H265768   0.863   5.433   2.086 -0.1231 -1.9830  0.8914
14785TIP3   OH265769   0.348   2.689  11.679  0.1672  0.0531  0.0814
14785TIP3    H165770   0.273   2.748  11.689  0.1495  0.2782 -1.2633
14785TIP3    H265771   0.423   2.739  11.711 -0.0369  0.3406  0.1142
14786TIP3   OH265772   4.194   4.872  14.686 -0.4636 -0.3089  0.1326
14786TIP3    H165773   4.125   4.930  14.717 -1.3656 -1.4477  0.3095
14786TIP3    H265774   4.185   4.872  14.591  0.7767  1.3180 -0.0210
14787TIP3   OH265775   2.027   1.416   1.748 -0.6481 -0.3156  0.6269
14787TIP3    H165776   1.935   1.435   1.767 -0.7714  0.0523 -0.3002
14787TIP3    H265777   2.070   1.419   1.833 -1.2268  1.0009  0.9014
14788TIP3   OH265778   4.984   1.346   5.077  0.4910  0.0381 -0.1150
14788TIP3    H165779   5.005   1.345   5.171  0.2130  1.4006 -0.0118
14788TIP3    H265780   4.892   1.371   5.074  0.0985 -1.3690 -0.7260
14789TIP3   OH265781   3.226   4.283   4.743 -0.8204  0.3540 -0.4945
14789TIP3    H165782   3.312   4.278   4.785 -1.8714 -1.2700  1.6482
14789TIP3    H265783   3.204   4.377   4.744 -0.6486  0.4785  2.5127
14790TIP3   OH265784   4.308   2.590  11.360 -0.2522  0.0747 -0.1022
14790TIP3    H165785   4.259   2.656  11.409 -0.8740 -0.6965  0.3353
14790TIP3    H265786   4.341   2.530  11.427  1.0752  0.4208 -0.4140
14791TIP3   OH265787   6.066   3.234  11.081  0.0799  0.2685 -0.3945
14791TIP3    H165788   6.005   3.282  11.025 -1.2443 -1.6626 -0.7153
14791TIP3    H265789   6.019   3.223  11.163  0.9862  0.8413  0.2148
14792TIP3   OH265790   2.856   0.322  13.932 -0.1121 -0.2702  0.5662
14792TIP3    H165791   2.928   0.314  13.869 -0.8015  0.5817 -0.3778
14792TIP3    H265792   2.877   0.401  13.981 -0.5271  0.1405  0.0968
14793TIP3   OH265793   1.611   1.739   6.353  0.3331 -0.2822 -0.4265
14793TIP3    H165794   1.569   1.774   6.432  0.1069 -3.2867  0.9474
14793TIP3    H265795   1.552   1.763   6.282  0.3307  2.1770  0.3203
14794TIP3   OH265796   1.764   0.413   5.110  0.0102  0.4138  0.2348
14794TIP3    H165797   1.807   0.339   5.152  0.6293  0.3974 -0.4106
14794TIP3    H265798   1.726   0.463   5.182 -0.5919 -0.6320  0.6632
14795TIP3   OH265799   1.629   3.189  14.603 -0.3012  0.4157 -0.2928
14795TIP3    H165800   1.551   3.181  14.549  0.3781 -0.0142 -1.2484
14795TIP3    H265801   1.701   3.163  14.545  0.4285 -0.3040  0.8881
14796TIP3   OH265802   2.345   5.487   0.889 -0.0955  0.6858  0.1407
14796TIP3    H165803   2.286   5.556   0.919  2.0024  2.3909  0.5509
14796TIP3    H265804   2.318   5.409   0.938 -1.5833  1.5449  0.7500
14797TIP3   OH265805   4.124   4.430  14.249  0.1928  0.3791  0.3817
14797TIP3    H165806   4.217   4.452  14.247  0.1405  0.5680 -0.2461
14797TIP3    H265807   4.083   4.500  14.300  0.3978  0.2625  0.7097
14798TIP3   OH265808   4.622   5.656  12.236  0.1649 -0.7853  0.2199
14798TIP3    H165809   4.558   5.712  12.279 -0.7176 -2.7087  1.5479
14798TIP3    H265810   4.701   5.663  12.290 -0.5825 -2.3036  1.6089
14799TIP3   OH265811   0.285   0.679   6.749 -0.3361 -0.3147 -0.3665
14799TIP3    H165812   0.268   0.668   6.655  0.2376 -0.8963 -0.4094
14799TIP3    H265813   0.284   0.589   6.783 -0.8180 -0.0887  0.2394
14800TIP3   OH265814   6.074   0.585   0.719  0.2758 -0.5106  0.5008
14800TIP3    H165815   6.118   0.514   0.765  0.0313 -0.6515  0.5180
14800TIP3    H265816   5.981   0.565   0.727  0.2552 -1.4812 -1.5597
14801TIP3   OH265817   4.553   1.230   3.319 -0.0391  0.2309  0.5687
14801TIP3    H165818   4.499   1.150   3.322  0.1279 -0.2004 -3.2252
14801TIP3    H265819   4.489   1.301   3.322 -0.2956 -0.0217  2.3507
14802TIP3   OH265820   5.257   4.271  16.427  0.1753 -0.0525 -1.0476
14802TIP3    H165821   5.166   4.258  16.402 -0.2293  0.6536 -0.0056
14802TIP3    H265822   5.295   4.320  16.354 -0.3719 -0.0257 -1.3175
14803TIP3   OH265823   2.602   0.842   5.403  0.0597 -0.0078  0.4030
14803TIP3    H165824   2.613   0.771   5.340 -0.6157  0.3626 -0.1432
14803TIP3    H265825   2.553   0.803   5.475 -0.3486 -0.0881  0.0845
14804TIP3   OH265826   4.022   1.086  11.091  0.5929 -0.0693  0.1580
14804TIP3    H165827   3.990   1.083  11.001  1.2814  0.4334 -0.1059
14804TIP3    H265828   3.959   1.140  11.137  1.0707  0.9646 -0.3752
14805TIP3   OH265829   3.947   5.521   3.803  0.0343  0.4526  0.1269
14805TIP3    H165830   3.870   5.470   3.779  0.6533  0.0495 -1.0631
14805TIP3    H265831   3.912   5.593   3.855 -1.2773  0.8984 -1.3058
14806TIP3   OH265832   4.221   3.089   2.159 -0.3254 -0.0324 -0.3801
14806TIP3    H165833   4.220   3.093   2.254  0.4816  2.5232 -0.4075
14806TIP3    H265834   4.158   3.155   2.131 -1.2499 -1.3922 -1.6589
14807TIP3   OH265835   3.419   2.792   1.485  0.7431  0.0964  0.2370
14807TIP3    H165836   3.424   2.742   1.403  0.8722  0.3053  0.1175
14807TIP3    H265837   3.503   2.776   1.528  2.2157  2.8576 -1.3376
14808TIP3   OH265838   6.206   4.059   5.204  0.3778 -0.3668 -0.1879
14808TIP3    H165839   6.154   4.007   5.143 -1.0631  0.9685 -0.1606
14808TIP3    H265840   6.182   4.025   5.290 -2.2788  1.6739 -0.0041
14809TIP3   OH265841   3.717   2.938  16.448 -0.3229  0.0127  0.1109
14809TIP3    H165842   3.681   2.882  16.517 -0.3080  0.8724  0.8237
14809TIP3    H265843   3.751   3.014  16.494  0.2516  0.3125 -0.7912
14810TIP3   OH265844   4.702   0.794  10.916  0.0534 -0.4426 -0.8160
14810TIP3    H165845   4.753   0.714  10.909 -0.6479 -1.0942  0.9883
14810TIP3    H265846   4.627   0.780  10.858 -1.4031 -2.2339  1.3208
14811TIP3   OH265847   4.560   3.910  15.914 -0.4724 -0.0037  0.1586
14811TIP3    H165848   4.557   3.995  15.870  0.7625  0.3905  0.7878
14811TIP3    H265849   4.481   3.865  15.884 -0.6689  0.9980 -0.9148
14812TIP3   OH265850   0.396   3.568  11.638  0.5315  0.2789 -0.2508
14812TIP3    H165851   0.407   3.546  11.730  1.8061  1.8721  0.0165
14812TIP3    H265852   0.403   3.484  11.592  1.0224 -0.3920  1.0206
14813TIP3   OH265853   5.371   1.266  12.506 -0.4669 -0.3052  0.8605
14813TIP3    H165854   5.439   1.319  12.463 -2.0769  1.2096  0.0402
14813TIP3    H265855   5.312   1.331  12.544 -1.8558 -1.5610  0.8907
14814TIP3   OH265856   2.259   5.133  12.242 -0.2332 -0.3929 -0.0786
14814TIP3    H165857   2.205   5.088  12.307 -0.8322  0.2041 -0.1474
14814TIP3    H265858   2.233   5.225  12.250  1.2066  0.0025  0.3017
14815TIP3   OH265859   1.755   4.039  16.449  0.2452  0.4369  0.3852
14815TIP3    H165860   1.735   4.126  16.414 -0.8779 -0.1534 -0.5399
14815TIP3    H265861   1.759   3.983  16.371  0.4750 -0.4219  1.0009
14816TIP3   OH265862   0.178   0.649  14.287 -0.1101 -0.1749 -0.4309
14816TIP3    H165863   0.164   0.622  14.196 -2.4389 -1.3003  0.1724
14816TIP3    H265864   0.107   0.606  14.336  0.4945  1.1598  1.7734
14817TIP3   OH265865   2.040   6.545  15.924  0.1248 -0.0251 -0.1069
14817TIP3    H165866   2.044   6.606  15.998 -0.1741 -0.6396  0.4214
14817TIP3    H265867   2.110   6.483  15.941 -0.0461 -0.2593 -0.2643
14818TIP3   OH265868   1.578   5.618   2.264  0.2904  0.2032  0.3964
14818TIP3    H165869   1.588   5.596   2.171 -1.5709  0.0903  0.1844
14818TIP3    H265870   1.587   5.534   2.309 -0.3396 -0.0042  0.1570
14819TIP3   OH265871   4.848   6.062  13.713 -0.2229  0.0994  0.0889
14819TIP3    H165872   4.877   6.048  13.623  1.6849 -1.0612  0.8213
14819TIP3    H265873   4.919   6.029  13.767 -0.5114  2.3776  2.0668
14820TIP3   OH265874   2.950   1.789   2.336 -0.0975 -0.0494 -0.2097
14820TIP3    H165875   2.920   1.785   2.245 -0.5805 -3.2757  0.0053
14820TIP3    H265876   2.890   1.850   2.378  0.4870  1.9717 -2.1049
14821TIP3   OH265877   1.835   4.629  12.332  0.4905 -0.8290  0.3196
14821TIP3    H165878   1.860   4.722  12.332  0.9190 -0.9257 -0.9635
14821TIP3    H265879   1.745   4.629  12.298 -0.1185 -0.7587  1.8791
14822TIP3   OH265880   1.077   4.388   2.288 -0.0912  0.2511  0.3109
14822TIP3    H165881   1.062   4.440   2.367  0.2084  0.1465  0.4379
14822TIP3    H265882   1.172   4.385   2.279 -0.1320  1.1617 -0.6558
14823TIP3   OH265883   0.422   4.960  16.494 -0.3159  0.4800 -0.2347
14823TIP3    H165884   0.422   4.914  16.409 -0.4022  0.0373  0.0017
14823TIP3    H265885   0.513   4.987  16.506  0.0401 -0.8398  0.2574
14824TIP3   OH265886   0.689   3.538  10.885 -0.0733  0.1908  0.5528
14824TIP3    H165887   0.765   3.596  10.885 -0.4692  0.7383  2.1353
14824TIP3    H265888   0.683   3.508  10.794  0.6125  1.9799 -0.1302
14825TIP3   OH265889   1.127   0.664  16.763  0.1983 -0.2386 -0.6050
14825TIP3    H165890   1.201   0.616  16.727 -0.3977 -0.2976 -1.8022
14825TIP3    H265891   1.113   0.627  16.850 -0.1493 -2.1405 -1.4352
14826TIP3   OH265892   5.433   0.768   5.995  0.2759 -0.1830  0.5569
14826TIP3    H165893   5.364   0.818   6.038  0.4152  0.1178  0.4346
14826TIP3    H265894   5.506   0.830   5.988 -0.0252  0.0435 -0.8688
14827TIP3   OH265895   3.394   6.156   5.477  0.8855  0.1813  0.2248
14827TIP3    H165896   3.404   6.233   5.421 -0.0576 -0.8406 -1.4253
14827TIP3    H265897   3.402   6.081   5.417  0.5470 -0.9920  1.5756
14828TIP3   OH265898   2.945   0.085   6.042  0.1638  0.2326  0.0173
14828TIP3    H165899   2.874   0.038   6.085  1.0749 -0.1002  1.2186
14828TIP3    H265900   2.960   0.162   6.098  1.3281 -0.1735  0.2921
14829TIP3   OH265901   2.376   6.221  13.066  0.1303 -0.3829  0.1540
14829TIP3    H165902   2.381   6.306  13.110  1.3847 -0.2782 -0.1593
14829TIP3    H265903   2.414   6.236  12.979 -1.6766 -0.7542 -0.7427
14830TIP3   OH265904   5.603   0.174   0.419 -0.8445  0.6184  0.0238
14830TIP3    H165905   5.567   0.136   0.339 -0.3307 -0.8935  0.4582
14830TIP3    H265906   5.536   0.234   0.451 -1.9820 -0.4029 -0.3966
14831TIP3   OH265907   1.624   2.128   6.630  0.1522  0.8901 -0.1368
14831TIP3    H165908   1.536   2.144   6.664  0.3283 -0.6244  1.1789
14831TIP3    H265909   1.649   2.043   6.667  3.0524  2.2433  1.3469
14832TIP3   OH265910   5.159   2.452  13.795  0.6265 -0.1898  0.6449
14832TIP3    H165911   5.227   2.510  13.760 -1.3792  1.6060 -0.5333
14832TIP3    H265912   5.124   2.499  13.870 -0.8377  0.0343 -0.1498
14833TIP3   OH265913   4.815   4.827   0.470  0.2265 -0.3236 -0.0085
14833TIP3    H165914   4.767   4.747   0.446  2.0558 -1.3343 -0.5080
14833TIP3    H265915   4.892   4.795   0.518  0.4349  1.2271  0.7299
14834TIP3   OH265916   6.786   0.777  13.310  0.1934  0.0132  0.0931
14834TIP3    H165917   6.813   0.781  13.402  1.0561  0.1184 -0.1536
14834TIP3    H265918   6.810   0.689  13.281  2.1722  0.7448 -0.6741
14835TIP3   OH265919   3.416   2.532  17.175  0.1623 -0.5316  0.1975
14835TIP3    H165920   3.511   2.537  17.163  0.0054 -1.0057 -1.6256
14835TIP3    H265921   3.399   2.440  17.197  0.0080 -0.8959 -1.2998
14836TIP3   OH265922   2.661   3.482  12.449  0.0227 -0.4452  0.2491
14836TIP3    H165923   2.680   3.541  12.522  1.0915  1.6740 -1.6291
14836TIP3    H265924   2.603   3.415  12.486 -0.3972  1.1836  2.7341
14837TIP3   OH265925   3.656   0.863   1.900 -0.3775  0.4635  0.1354
14837TIP3    H165926   3.600   0.827   1.968  0.4297 -1.5075 -0.1712
14837TIP3    H265927   3.595   0.900   1.835 -1.1739  1.2968  1.3254
14838TIP3   OH265928   1.511   1.476  13.268 -0.0446  0.0078 -0.1681
14838TIP3    H165929   1.555   1.492  13.351 -1.4225  1.8142  0.2668
14838TIP3    H265930   1.524   1.556  13.217  0.1258 -0.7831 -1.4116
14839TIP3   OH265931   4.554   6.626   5.156  0.0784 -0.1354 -0.1170
14839TIP3    H165932   4.639   6.581   5.153 -0.5809 -1.5892  1.2680
14839TIP3    H265933   4.531   6.641   5.065  0.5021 -2.3537 -0.6433
14840TIP3   OH265934   6.425   1.217  12.831 -0.2418 -0.7156  0.7172
14840TIP3    H165935   6.351   1.270  12.800  0.5537 -1.7981 -3.7091
14840TIP3    H265936   6.399   1.190  12.919 -3.2962  2.1023  0.9115
14841TIP3   OH265937   3.505   5.804  13.519  0.1629  0.2142  0.3800
14841TIP3    H165938   3.558   5.738  13.474  2.5557  0.6007  2.3998
14841TIP3    H265939   3.462   5.757  13.589  3.1659  0.8507  2.8719
14842TIP3   OH265940   0.700   3.851  16.721 -0.3604 -0.6995  0.2237
14842TIP3    H165941   0.622   3.803  16.693 -0.0518 -2.5141  2.2180
14842TIP3    H265942   0.773   3.792  16.700  0.3276  0.2551 -0.1031
14843TIP3   OH265943   3.766   2.959   0.790 -0.0764 -0.1636 -0.2120
14843TIP3    H165944   3.741   2.914   0.871  1.6824  2.0123  1.6563
14843TIP3    H265945   3.700   2.931   0.726 -2.2283 -1.0701  2.2399
14844TIP3   OH265946   2.283   3.481  16.741  0.0896 -0.8033  0.7855
14844TIP3    H165947   2.262   3.554  16.683 -0.6708 -0.6069  1.2896
14844TIP3    H265948   2.351   3.432  16.695  0.0850 -0.1862  0.1128
14845TIP3   OH265949   6.394   3.033  10.863 -0.0028 -0.3743  0.1783
14845TIP3    H165950   6.425   3.042  10.952 -0.0335  0.3474  0.1247
14845TIP3    H265951   6.431   3.108  10.816 -1.0372 -0.0146 -0.1017
14846TIP3   OH265952   3.630   1.770   2.620  0.3461  0.0152  0.3111
14846TIP3    H165953   3.540   1.787   2.594  0.8037  1.2467 -0.5362
14846TIP3    H265954   3.622   1.730   2.707 -1.0524 -1.1129 -0.2895
14847TIP3   OH265955   6.111   1.591   3.795  0.6479 -0.3314 -0.4981
14847TIP3    H165956   6.039   1.589   3.858  1.2163  0.3323  0.1938
14847TIP3    H265957   6.109   1.680   3.760  2.6342  0.5482  1.3652
14848TIP3   OH265958   3.009   6.464   2.744 -0.1553  0.0179 -0.0800
14848TIP3    H165959   3.001   6.395   2.678 -0.8224  0.2098 -0.2031
14848TIP3    H265960   3.026   6.543   2.694  0.1402  0.0294  0.0334
14849TIP3   OH265961   1.840   4.398   4.198  0.2806  0.1877 -0.1269
14849TIP3    H165962   1.911   4.448   4.238  1.5006 -2.3964  1.1902
14849TIP3    H265963   1.767   4.406   4.259  0.8891 -0.5926  0.7389
14850TIP3   OH265964   3.332   6.563   6.259 -0.0910  0.1555  0.4038
14850TIP3    H165965   3.402   6.558   6.324  1.4604 -2.8539 -1.2770
14850TIP3    H265966   3.366   6.621   6.191 -0.6337  1.2597  1.0565
14851TIP3   OH265967   1.547   3.126  13.454 -0.6819 -0.7366 -0.1004
14851TIP3    H165968   1.481   3.129  13.385 -0.9694 -0.2096  0.1891
14851TIP3    H265969   1.515   3.187  13.520 -0.0752 -0.7402  0.2021
14852TIP3   OH265970   5.052   5.872   1.210  0.2732  0.7776  0.5800
14852TIP3    H165971   4.981   5.873   1.275  0.6823  0.7784  1.0318
14852TIP3    H265972   5.116   5.809   1.245  0.5103  0.7959  0.1888
14853TIP3   OH265973   2.527   3.737   0.965  0.2853  0.4376  0.3726
14853TIP3    H165974   2.587   3.811   0.963  1.1950 -0.0936  3.2863
14853TIP3    H265975   2.449   3.769   1.011 -0.1745  0.1433 -0.1869
14854TIP3   OH265976   5.582   4.588  15.653  0.2848 -0.6970  0.3062
14854TIP3    H165977   5.669   4.606  15.689  0.0065  0.8655  0.2887
14854TIP3    H265978   5.597   4.573  15.560  0.5586 -0.6589  0.3427
14855TIP3   OH265979   4.113   1.755   6.561  0.7051 -0.0850 -0.2529
14855TIP3    H165980   4.082   1.666   6.547 -0.6415 -0.0151  1.7888
14855TIP3    H265981   4.047   1.811   6.521  0.1927  0.0018  0.6787
14856TIP3   OH265982   4.335   6.644  14.706 -0.1565  0.1216 -0.0034
14856TIP3    H165983   4.391   6.684  14.640 -0.0358  3.2094  1.8039
14856TIP3    H265984   4.278   6.714  14.737 -1.1294 -1.5043  2.2225
14857TIP3   OH265985   4.975   2.930   1.100 -0.1348 -0.2927 -0.0586
14857TIP3    H165986   4.891   2.895   1.128 -0.4219  0.0173 -0.5299
14857TIP3    H265987   5.019   2.857   1.057 -0.4112 -0.2933 -0.3442
14858TIP3   OH265988   1.194   3.226   0.954  0.5906  0.1428  0.6539
14858TIP3    H165989   1.179   3.161   1.022  2.3561 -0.6179  0.3914
14858TIP3    H265990   1.256   3.288   0.993  1.5282 -0.2351 -0.1806
14859TIP3   OH265991   5.807   3.138   3.719  0.7168 -0.2673  0.0256
14859TIP3    H165992   5.791   3.186   3.800 -0.3327 -0.1339 -0.2525
14859TIP3    H265993   5.901   3.119   3.721  0.6708 -0.4293  1.3550
14860TIP3   OH265994   4.743   1.436   0.805 -0.8967 -0.0903  0.0742
14860TIP3    H165995   4.740   1.469   0.895  1.4816  0.1104  0.1374
14860TIP3    H265996   4.746   1.514   0.751  0.7850 -0.1667  0.0158
14861TIP3   OH265997   2.683   3.123  17.152 -0.4115 -0.3705 -0.2072
14861TIP3    H165998   2.731   3.197  17.116  0.6372 -0.6479  0.5858
14861TIP3    H265999   2.596   3.130  17.112  0.3607 -0.0492 -1.9087
14862TIP3   OH266000   1.783   6.651   0.940 -0.9220  0.2748  0.5459
14862TIP3    H166001   1.727   6.658   0.863 -1.6623 -1.5736  0.8525
14862TIP3    H266002   1.734   6.597   1.001  0.4003  0.2010  1.6078
14863TIP3   OH266003   6.730   3.748   3.297 -0.0169  0.3227 -0.1339
14863TIP3    H166004   6.723   3.824   3.240 -2.0703 -0.3909 -0.9308
14863TIP3    H266005   6.778   3.779   3.374  0.7168  1.9204 -1.1907
14864TIP3   OH266006   1.906   0.959  16.329  0.2613 -0.5218 -0.3831
14864TIP3    H166007   1.915   0.877  16.377 -1.2757 -0.2267  0.4758
14864TIP3    H266008   1.950   1.024  16.385  0.8525 -0.6246 -0.7183
14865TIP3   OH266009   1.765   2.474   4.040 -0.0035 -0.6575  0.3160
14865TIP3    H166010   1.832   2.441   3.981  0.1115 -0.7072  0.4722
14865TIP3    H266011   1.732   2.397   4.085 -0.5572 -0.7027 -0.1561
14866TIP3   OH266012   6.063   3.379  16.236 -0.3384  0.2317 -0.0162
14866TIP3    H166013   6.014   3.450  16.193  0.0290  0.1103 -0.6557
14866TIP3    H266014   6.049   3.303  16.179 -1.2510 -0.3890  1.0049
14867TIP3   OH266015   3.213   5.235   3.838 -0.2453 -0.0751  0.1169
14867TIP3    H166016   3.187   5.317   3.879 -2.5834 -0.7456  0.1526
14867TIP3    H266017   3.243   5.180   3.911 -1.4090 -0.1946  0.5284
14868TIP3   OH266018   4.682   4.628   3.607 -0.1471 -0.1381 -0.0394
14868TIP3    H166019   4.774   4.652   3.616 -0.4443  0.3906  2.5431
14868TIP3    H266020   4.681   4.552   3.549  1.9684 -0.4887  0.3339
14869TIP3   OH266021   4.186   5.968   0.446 -0.5751 -0.1156 -1.0276
14869TIP3    H166022   4.274   5.994   0.474  0.9499 -1.5048 -4.0830
14869TIP3    H266023   4.191   5.873   0.436 -2.3153 -0.1731 -1.6818
14870TIP3   OH266024   5.874   6.172   0.117  0.0536  0.2489  0.1304
14870TIP3    H166025   5.789   6.215   0.130  0.6149  1.0088  1.5606
14870TIP3    H266026   5.856   6.079   0.127 -0.4805  0.4622  1.3423
14871TIP3   OH266027   2.430   2.943  12.768 -0.1021  0.4784 -0.1567
14871TIP3    H166028   2.391   2.902  12.691 -0.9311  0.3632  0.3145
14871TIP3    H266029   2.377   3.021  12.784 -0.1411  0.3219  0.4960
14872TIP3   OH266030   3.804   0.636   4.216  1.1135  0.3816  0.4666
14872TIP3    H166031   3.842   0.628   4.128 -1.3817 -1.0733 -0.5904
14872TIP3    H266032   3.821   0.551   4.257 -0.4062 -0.1102  0.1591
14873TIP3   OH266033   4.617   5.042  11.879  0.1292  0.4348  0.2879
14873TIP3    H166034   4.612   5.112  11.944 -0.9111  0.5186  0.1256
14873TIP3    H266035   4.677   5.076  11.813 -1.4814  1.8300 -0.5374
14874TIP3   OH266036   1.929   6.503  13.310 -0.0736  0.9542 -0.6299
14874TIP3    H166037   2.020   6.518  13.338 -0.1928  1.9578 -0.7435
14874TIP3    H266038   1.911   6.574  13.248 -0.0785 -0.7407 -2.6933
14875TIP3   OH266039   4.601   6.744   2.378  0.3290 -0.4259 -0.0654
14875TIP3    H166040   4.643   6.827   2.357  1.3395 -0.4469  1.6578
14875TIP3    H266041   4.532   6.768   2.440 -0.8863 -0.6427 -1.2892
14876TIP3   OH266042   5.642   1.166  11.550 -0.0144 -0.0632  0.0238
14876TIP3    H166043   5.698   1.095  11.580 -0.5127 -0.1392  0.8100
14876TIP3    H266044   5.606   1.136  11.467  0.1874 -0.5117  0.0997
14877TIP3   OH266045   5.030   0.482   5.090  0.0261  0.4670 -0.1101
14877TIP3    H166046   5.108   0.525   5.055 -0.1938  0.1033 -1.0864
14877TIP3    H266047   5.049   0.469   5.183  1.8545 -1.1335 -0.6383
14878TIP3   OH266048   2.470   1.348  16.125 -0.3255 -0.2395  0.6867
14878TIP3    H166049   2.497   1.319  16.212 -0.3927  0.7712  1.0541
14878TIP3    H266050   2.428   1.433  16.139 -0.2833 -0.0289 -0.3371
14879TIP3   OH266051   0.072   3.912   1.186  0.0176 -0.4846 -0.1199
14879TIP3    H166052   0.025   3.985   1.147  1.3995 -0.2067 -1.3562
14879TIP3    H266053   0.123   3.951   1.257 -0.0262 -0.4235 -0.1223
14880TIP3   OH266054   2.510   2.843  14.624 -0.4394 -0.2306  0.0263
14880TIP3    H166055   2.511   2.858  14.530 -1.8654 -0.0628  0.0135
14880TIP3    H266056   2.456   2.914  14.659 -0.8120 -0.9036  0.8432
14881TIP3   OH266057   6.616   1.245   1.608  0.1108  0.0514  0.0753
14881TIP3    H166058   6.606   1.313   1.675 -1.5109 -0.5824  0.5418
14881TIP3    H266059   6.692   1.195   1.636 -0.2160  0.1289  1.1767
14882TIP3   OH266060   1.482   1.007  14.385  0.3551  0.2567  0.6465
14882TIP3    H166061   1.495   0.939  14.319  0.6964  0.6589  0.2867
14882TIP3    H266062   1.466   1.087  14.334 -0.2919  0.4002  1.0634
14883TIP3   OH266063   2.012   3.721  14.251 -0.3479 -0.4869 -0.5285
14883TIP3    H166064   2.073   3.729  14.177 -2.4604  0.5555 -2.2877
14883TIP3    H266065   2.034   3.794  14.308  0.9640 -0.9801 -0.3498
14884TIP3   OH266066   4.295   2.329   4.411 -0.8036  0.5782 -0.1179
14884TIP3    H166067   4.349   2.385   4.466 -0.2351  0.4475 -0.5272
14884TIP3    H266068   4.335   2.243   4.418 -0.2829  0.7070 -1.2880
14885TIP3   OH266069   6.588   4.039  14.880  0.1160 -0.2028 -0.5568
14885TIP3    H166070   6.642   4.054  14.802  0.5248 -1.6259 -0.5844
14885TIP3    H266071   6.586   4.124  14.925  0.8308  0.3464 -1.5161
14886TIP3   OH266072   3.970   2.437  13.341 -0.4110  0.4984 -0.4745
14886TIP3    H166073   3.900   2.401  13.287 -0.0804  0.5450 -0.9369
14886TIP3    H266074   4.013   2.360  13.379 -2.9229  0.4672  2.7372
14887TIP3   OH266075   3.429   0.953   3.721 -0.2848 -0.3831  0.3291
14887TIP3    H166076   3.469   1.020   3.777  1.5948 -1.8832  0.8677
14887TIP3    H266077   3.442   0.985   3.632  0.0340  0.2668  0.6045
14888TIP3   OH266078   6.208   5.335   5.933 -0.6265  0.4120  0.2188
14888TIP3    H166079   6.115   5.324   5.954 -0.5221  1.6787  1.5175
14888TIP3    H266080   6.254   5.289   6.002 -0.2573 -0.5634 -0.6479
14889TIP3   OH266081   4.162   6.137  11.552  0.2197 -0.1045  0.2735
14889TIP3    H166082   4.168   6.085  11.471  0.4044 -1.4821  1.1239
14889TIP3    H266083   4.250   6.175  11.562 -0.0179  0.6756 -0.5440
14890TIP3   OH266084   4.343   4.979  14.235 -0.0688 -0.3147 -0.0624
14890TIP3    H166085   4.378   5.029  14.162 -0.0208  1.1338  0.9075
14890TIP3    H266086   4.420   4.958  14.289 -0.2101 -0.6281  0.0224
14891TIP3   OH266087   5.265   1.070  12.670 -0.1421  0.2823 -0.5690
14891TIP3    H166088   5.328   1.013  12.712  0.2175 -0.5680 -2.2046
14891TIP3    H266089   5.317   1.139  12.628 -0.5086  1.2727  0.5405
14892TIP3   OH266090   1.200   3.973   1.808 -0.2466  0.3446  0.3826
14892TIP3    H166091   1.277   4.001   1.759 -1.3796  1.4603 -0.8499
14892TIP3    H266092   1.234   3.946   1.893  1.3054  2.7713  0.6314
14893TIP3   OH266093   6.303   1.749   2.351 -0.4162  0.2851  0.1517
14893TIP3    H166094   6.256   1.832   2.342  1.9585  1.7424  0.5990
14893TIP3    H266095   6.271   1.713   2.434 -1.5132  0.6921 -0.0723
14894TIP3   OH266096   6.417   1.388   3.501  0.0047  0.0147  0.1875
14894TIP3    H166097   6.359   1.373   3.426 -2.2981  1.5997  1.5201
14894TIP3    H266098   6.441   1.480   3.495  1.0312 -0.2119  0.6075
14895TIP3   OH266099   3.749   2.742   4.010  0.4706  0.0243 -0.7195
14895TIP3    H166100   3.740   2.811   3.945  1.1688 -1.4310 -2.4547
14895TIP3    H266101   3.784   2.667   3.961 -0.8304 -1.7735  0.9127
14896TIP3   OH266102   2.488   4.693   3.798  0.2764  0.9662 -0.4925
14896TIP3    H166103   2.523   4.745   3.871  1.0490  1.2204 -1.0200
14896TIP3    H266104   2.420   4.748   3.760 -1.3164  0.1390  1.0304
14897TIP3   OH266105   5.117   5.941  15.080 -0.2039  0.0748 -0.3193
14897TIP3    H166106   5.079   5.975  15.161  3.5828  1.9886  0.9003
14897TIP3    H266107   5.172   6.013  15.048  1.4189 -1.9875 -2.4674
14898TIP3   OH266108   4.217   1.819   3.296 -0.5523  0.3901  0.4796
14898TIP3    H166109   4.312   1.814   3.310 -0.8138  0.2206  2.6165
14898TIP3    H266110   4.191   1.728   3.278 -0.0580  0.7654 -2.6911
14899TIP3   OH266111   5.199   0.586  11.741 -0.5015  0.5061 -0.5866
14899TIP3    H166112   5.244   0.573  11.824  0.5929 -1.3532 -1.3864
14899TIP3    H266113   5.149   0.505  11.728 -0.0972  0.4621 -2.0466
14900TIP3   OH266114   4.935   1.643   5.401  0.3932 -0.1464 -0.2318
14900TIP3    H166115   4.943   1.548   5.392  0.9730 -0.5135  3.0616
14900TIP3    H266116   4.975   1.677   5.321 -0.6447 -2.6198 -1.9495
14901TIP3   OH266117   3.970   4.201   3.161  0.0594 -0.3530  0.4167
14901TIP3    H166118   3.993   4.126   3.106 -1.2999 -0.4103 -0.1291
14901TIP3    H266119   3.929   4.163   3.238  0.6976 -0.2127  0.8339
14902TIP3   OH266120   1.332   4.378  14.068  0.2628  0.2886 -0.3549
14902TIP3    H166121   1.393   4.385  14.142 -1.9953 -0.5094  1.7327
14902TIP3    H266122   1.323   4.468  14.036  1.7970  0.5525 -0.1319
14903TIP3   OH266123   1.831   4.238   0.433  0.3046 -0.7323 -0.4663
14903TIP3    H166124   1.852   4.273   0.519  2.3044 -1.7588 -0.4557
14903TIP3    H266125   1.813   4.315   0.379 -2.8219 -0.1325  1.2026
14904TIP3   OH266126   0.591   6.465  17.031 -0.5408 -0.1446  0.0534
14904TIP3    H166127   0.534   6.409  16.978 -1.3524 -0.0152  0.7676
14904TIP3    H266128   0.628   6.528  16.968 -3.9178  2.0439  0.0296
14905TIP3   OH266129   3.576   2.918   4.825  0.1069  0.4178 -0.5067
14905TIP3    H166130   3.626   2.974   4.767  0.1076  0.2971 -0.6226
14905TIP3    H266131   3.490   2.910   4.783  0.3083 -0.1844 -0.8177
14906TIP3   OH266132   6.391   6.109  14.429  0.5410 -0.0057  0.3303
14906TIP3    H166133   6.475   6.065  14.439  0.6941  0.1730 -0.1496
14906TIP3    H266134   6.387   6.172  14.502 -0.1161 -1.4828  1.6248
14907TIP3   OH266135   6.344   0.711   2.323  0.3886 -0.0932  0.1559
14907TIP3    H166136   6.336   0.799   2.286 -0.3711 -0.1148  0.2653
14907TIP3    H266137   6.260   0.670   2.305  0.4953 -0.5603  0.7243
14908TIP3   OH266138   3.556   6.575  13.979 -0.5845 -0.2661  0.0154
14908TIP3    H166139   3.520   6.582  13.891  0.1694  0.6125 -0.2348
14908TIP3    H266140   3.579   6.483  13.988 -0.4557 -0.3217 -0.7986
14909TIP3   OH266141   4.866   5.291  10.930  0.1964  0.4791 -0.2961
14909TIP3    H166142   4.792   5.312  10.873  0.4690  0.7524 -0.5504
14909TIP3    H266143   4.918   5.228  10.880  0.1035  0.2299 -0.0869
14910TIP3   OH266144   5.713   1.576  12.080  0.2919 -0.1720  0.2823
14910TIP3    H166145   5.685   1.661  12.047 -0.8600 -0.6089  0.0966
14910TIP3    H266146   5.695   1.580  12.174 -0.3725 -0.4286  0.1735
14911TIP3   OH266147   6.392   5.160   0.045 -0.1978  0.3656 -0.3221
14911TIP3    H166148   6.449   5.083   0.046 -0.3917  0.2180 -0.4740
14911TIP3    H266149   6.379   5.182   0.138  2.1202  1.9234 -0.2913
14912TIP3   OH266150   1.550   0.851   2.444  0.6661  0.3014 -0.7303
14912TIP3    H166151   1.553   0.930   2.498  1.8903  0.9977 -1.7530
14912TIP3    H266152   1.632   0.806   2.464 -0.1681 -0.8991  0.0805
14913TIP3   OH266153   2.538   0.344   1.844 -0.3012  0.0565  0.3942
14913TIP3    H166154   2.580   0.267   1.883 -1.5518 -1.0859 -0.4514
14913TIP3    H266155   2.461   0.310   1.800 -1.8838  2.0117  1.4783
14914TIP3   OH266156   4.636   1.695  15.772 -0.2700  0.5211 -0.4494
14914TIP3    H166157   4.634   1.676  15.678  1.9857  0.7649 -0.5826
14914TIP3    H266158   4.640   1.790  15.777  0.6577  0.4722 -0.1504
14915TIP3   OH266159   4.522   0.043  17.187  0.1596  0.4985 -0.1356
14915TIP3    H166160   4.578   0.073  17.259  1.0385 -0.8837 -0.2211
14915TIP3    H266161   4.487  -0.040  17.217  1.1033 -0.4510 -1.5705
14916TIP3   OH266162   3.892   4.367   0.320  0.2002 -0.0391 -0.4475
14916TIP3    H166163   3.918   4.459   0.328  1.0055 -0.0719 -2.1745
14916TIP3    H266164   3.856   4.344   0.405  1.5464  1.4055  0.5659
14917TIP3   OH266165   1.350   6.164  14.956  0.1510 -0.6595  0.3355
14917TIP3    H166166   1.382   6.138  15.042  2.1785  0.1811 -0.1259
14917TIP3    H266167   1.403   6.239  14.932 -0.5648 -0.7103 -1.5388
14918TIP3   OH266168   6.028   5.170   2.178  0.2961  0.2631 -0.2534
14918TIP3    H166169   5.990   5.257   2.166  1.3518  0.6964 -0.4842
14918TIP3    H266170   6.013   5.126   2.094 -0.5136  0.0959 -0.0359
14919TIP3   OH266171   1.886   6.535  15.102  0.3270  0.1025 -0.1876
14919TIP3    H166172   1.820   6.469  15.082  0.1597 -0.0421  0.8027
14919TIP3    H266173   1.904   6.525  15.195  1.5603  0.3230 -0.3789
14920TIP3   OH266174   0.061   5.863   0.105  0.1018 -0.3442  0.6445
14920TIP3    H166175  -0.008   5.915   0.063 -0.0864  0.3660  1.8026
14920TIP3    H266176   0.022   5.777   0.119  0.3062 -0.7356 -1.0008
14921TIP3   OH266177   1.155   5.220   2.065  0.4937 -0.0772  0.3615
14921TIP3    H166178   1.083   5.283   2.060 -1.8912 -2.4517  2.0191
14921TIP3    H266179   1.157   5.179   1.979  0.1827  0.3075  0.1651
14922TIP3   OH266180   0.360   1.450   1.913 -0.1008 -0.2959 -0.0580
14922TIP3    H166181   0.368   1.354   1.910 -0.7979 -0.3748  0.3728
14922TIP3    H266182   0.357   1.476   1.821  2.5705 -0.4360 -0.2792
14923TIP3   OH266183   4.328   4.596   5.300 -0.0535 -0.3765 -0.0293
14923TIP3    H166184   4.375   4.603   5.383  0.3767  0.2836 -0.3267
14923TIP3    H266185   4.395   4.571   5.236  0.0355  1.1434 -0.5695
14924TIP3   OH266186   5.244   4.871   3.523  0.4977 -0.0607 -0.1707
14924TIP3    H166187   5.158   4.913   3.519  0.4430 -0.1019  0.5281
14924TIP3    H266188   5.235   4.803   3.589  0.6491 -1.0439 -1.1377
14925TIP3   OH266189   5.986   4.384   5.927  0.4297 -0.5436  0.6044
14925TIP3    H166190   6.042   4.362   6.002  1.0422  1.6607  0.8666
14925TIP3    H266191   6.040   4.361   5.851  2.0988  2.1523  0.8422
14926TIP3   OH266192   4.156   4.444  17.016 -0.0226 -0.8451 -0.4739
14926TIP3    H166193   4.083   4.453  17.077 -1.2729 -0.6059 -1.9517
14926TIP3    H266194   4.185   4.353  17.029  0.1155 -0.6384  0.8485
14927TIP3   OH266195   5.745   5.402   5.006  0.2687  0.1326 -0.5796
14927TIP3    H166196   5.739   5.320   4.957 -0.4057  0.4886 -1.1116
14927TIP3    H266197   5.812   5.386   5.072 -0.0507 -0.9478 -0.4974
14928TIP3   OH266198   6.197   0.317  14.474 -0.7195 -0.5681  0.4364
14928TIP3    H166199   6.201   0.230  14.514 -1.8014  0.2902  2.5450
14928TIP3    H266200   6.119   0.315  14.418 -0.7679 -0.9372  0.5150
14929TIP3   OH266201   0.802   0.510   6.595  0.0087  0.2947  0.1356
14929TIP3    H166202   0.728   0.494   6.653 -0.5780  0.5227 -0.5420
14929TIP3    H266203   0.878   0.509   6.653 -0.3090 -1.7267  0.6067
14930TIP3   OH266204   1.663   0.112   2.080  0.0808  0.2388 -1.0212
14930TIP3    H166205   1.704   0.083   1.998  2.6180  2.4336 -0.6677
14930TIP3    H266206   1.707   0.062   2.148  1.2635  1.5766 -0.7465
14931TIP3   OH266207   2.673   3.696  16.251  0.2748 -0.0305  0.7123
14931TIP3    H166208   2.651   3.758  16.181 -1.1511  0.9716  1.9723
14931TIP3    H266209   2.757   3.726  16.285 -0.3952  1.2659  1.3019
14932TIP3   OH266210   0.002   0.076  17.141  0.4001 -0.3612 -0.2251
14932TIP3    H166211   0.087   0.104  17.107  0.6088 -0.2716  0.3633
14932TIP3    H266212  -0.046   0.047  17.063  0.3615  1.1309 -0.7853
14933TIP3   OH266213   5.769   5.983  14.861 -0.2245  0.4212  0.4523
14933TIP3    H166214   5.762   5.952  14.771 -0.1003  1.6841 -0.0160
14933TIP3    H266215   5.794   5.906  14.911  2.5495  0.2375 -1.0072
14934TIP3   OH266216   0.803   0.148  12.772  0.4542 -0.0384 -0.0112
14934TIP3    H166217   0.765   0.236  12.772 -0.5276 -0.4278  1.2392
14934TIP3    H266218   0.750   0.100  12.836  0.3339 -1.8105 -1.3793
14935TIP3   OH266219   0.131   3.715  11.585  0.0367  0.4126 -0.4944
14935TIP3    H166220   0.090   3.661  11.652 -2.2782  1.2998 -1.0781
14935TIP3    H266221   0.223   3.690  11.586 -0.0148 -0.0171  2.5730
14936TIP3   OH266222   6.572   5.618  12.818 -0.1283 -0.3300  0.1201
14936TIP3    H166223   6.632   5.679  12.775 -1.0471  0.0989 -0.5936
14936TIP3    H266224   6.486   5.660  12.812 -0.8742 -1.8823 -0.8025
14937TIP3   OH266225   3.991   0.199  16.026 -0.8876 -0.2134 -0.4551
14937TIP3    H166226   3.970   0.254  15.951 -0.2196 -1.4091 -1.5492
14937TIP3    H266227   4.054   0.135  15.993 -1.5637 -1.5849  0.7814
14938TIP3   OH266228   1.279   5.464   0.353 -0.1108  0.1364  0.7032
14938TIP3    H166229   1.372   5.466   0.374  0.7580  1.2716 -2.6922
14938TIP3    H266230   1.274   5.417   0.270 -2.2974  1.7692 -0.1997
14939TIP3   OH266231   3.540   2.240  14.865 -0.2241 -0.2609 -0.2155
14939TIP3    H166232   3.545   2.277  14.953  0.5250  1.0904 -0.7868
14939TIP3    H266233   3.623   2.195  14.853 -0.9205 -1.7133  0.2839
14940TIP3   OH266234   4.532   0.790  14.948 -0.4919 -0.2107  0.1781
14940TIP3    H166235   4.556   0.869  14.996 -0.2757 -0.6413  0.7937
14940TIP3    H266236   4.597   0.725  14.974 -0.3518 -0.4538 -0.7276
14941TIP3   OH266237   0.430   6.269   4.325  0.5902  0.4886  0.5354
14941TIP3    H166238   0.465   6.189   4.365  1.6408  0.0957 -1.0488
14941TIP3    H266239   0.479   6.339   4.367  1.8758  0.0700 -0.2092
14942TIP3   OH266240   0.595   2.395  15.380 -0.5586  0.5724 -0.2015
14942TIP3    H166241   0.544   2.461  15.334 -1.2380 -0.5981 -1.1847
14942TIP3    H266242   0.631   2.340  15.310  1.4986  0.9404  0.4939
14943TIP3   OH266243   6.353   4.255  12.636 -0.3288  0.3814 -0.5400
14943TIP3    H166244   6.351   4.160  12.640  1.1147  0.3631  0.4216
14943TIP3    H266245   6.379   4.276  12.546  0.9466 -0.1887 -0.3220
14944TIP3   OH266246   2.101   6.075  14.270  0.7440  0.2689 -0.3548
14944TIP3    H166247   2.048   6.149  14.240  2.5674  1.5413 -0.5933
14944TIP3    H266248   2.058   6.045  14.350 -1.2291  0.1921 -1.3964
14945TIP3   OH266249   6.502   4.023   4.701  0.5260  0.0332  0.8351
14945TIP3    H166250   6.462   4.091   4.647 -0.3468 -1.0045  0.1107
14945TIP3    H266251   6.439   4.008   4.772 -0.7094 -1.9267 -0.5600
14946TIP3   OH266252   2.549   0.747   2.747 -0.5348  0.2048 -0.1712
14946TIP3    H166253   2.600   0.763   2.826 -0.7318  0.3482 -0.0728
14946TIP3    H266254   2.515   0.658   2.757 -0.5106  0.2011 -0.1231
14947TIP3   OH266255   1.069   0.256  14.251  0.1558 -0.4146 -0.1338
14947TIP3    H166256   1.089   0.341  14.291  0.7329 -1.3044  1.5492
14947TIP3    H266257   1.011   0.277  14.178 -1.2909  1.2621  1.4101
14948TIP3   OH266258   0.299   3.376   4.850  0.3705 -0.0562 -0.4380
14948TIP3    H166259   0.345   3.459   4.836 -0.1326  0.3195  0.0973
14948TIP3    H266260   0.223   3.381   4.792  0.1415  0.0267 -0.1378
14949TIP3   OH266261   0.568   5.432   4.984  0.0735  0.9128  0.2650
14949TIP3    H166262   0.496   5.387   5.029 -0.4053  2.7513  1.4249
14949TIP3    H266263   0.646   5.380   5.006 -0.3382  1.0458  2.2358
14950TIP3   OH266264   1.640   6.605   1.446 -0.3595  0.2250  0.1555
14950TIP3    H166265   1.724   6.605   1.492  1.7488 -1.7120 -3.2692
14950TIP3    H266266   1.650   6.673   1.379 -1.6952  0.2074 -0.0840
14951TIP3   OH266267   2.193   5.099  11.956  0.2288 -0.2004  0.0199
14951TIP3    H166268   2.236   5.095  12.041 -0.3643 -0.7355  0.3073
14951TIP3    H266269   2.128   5.029  11.959 -0.7935  0.7124 -0.3314
14952TIP3   OH266270   4.678   6.050  14.345 -0.3825  0.2257 -0.8737
14952TIP3    H166271   4.648   5.990  14.413 -0.0807  0.2599 -0.7077
14952TIP3    H266272   4.772   6.062  14.363 -0.5312  1.1012 -0.6378
14953TIP3   OH266273   6.537   1.293  14.705 -0.2819  0.1324  0.3671
14953TIP3    H166274   6.528   1.270  14.797 -0.0487 -1.7105 -0.0307
14953TIP3    H266275   6.447   1.298  14.673 -0.3846  1.3299  0.7940
14954TIP3   OH266276   4.545   4.074   2.656  0.0921 -0.9897  0.1429
14954TIP3    H166277   4.586   4.063   2.570  1.6475  0.4811  0.6338
14954TIP3    H266278   4.532   4.168   2.664 -0.1355 -1.1192  1.4660
14955TIP3   OH266279   4.387   0.010   0.662  0.0798  0.2071 -0.2908
14955TIP3    H166280   4.294   0.033   0.661  0.1545  0.5409 -1.9300
14955TIP3    H266281   4.426   0.064   0.593  1.2279 -1.0239 -0.6467
14956TIP3   OH266282   6.338   6.577   0.094  0.4023  0.2544  0.0277
14956TIP3    H166283   6.368   6.540   0.177 -0.6516  1.4497  0.9869
14956TIP3    H266284   6.389   6.657   0.083  1.1492 -0.3311 -0.9452
14957TIP3   OH266285   2.759   5.823   6.579  0.1891 -0.6233 -0.4679
14957TIP3    H166286   2.802   5.863   6.503  2.0726 -2.6308 -0.5556
14957TIP3    H266287   2.758   5.892   6.645  0.9096  0.3673 -1.4395
14958TIP3   OH266288   5.883   4.678   3.445  0.7052  0.0309  0.0279
14958TIP3    H166289   5.890   4.735   3.522 -0.5224  0.6980 -0.3107
14958TIP3    H266290   5.872   4.590   3.481 -0.7447  0.4384  0.6818
14959TIP3   OH266291   0.473   6.468  14.198 -0.4606 -0.3092  0.0683
14959TIP3    H166292   0.435   6.455  14.112  0.6137  0.5486 -0.5661
14959TIP3    H266293   0.463   6.562  14.215 -0.4929 -0.4392  0.7991
14960TIP3   OH266294   6.788   4.224   4.387  0.2529  0.0315 -0.4715
14960TIP3    H166295   6.718   4.241   4.324 -0.2877  0.4105  0.2191
14960TIP3    H266296   6.847   4.299   4.377  0.1204  0.1383 -0.4536
14961TIP3   OH266297   4.745   5.398  11.855  0.1541  0.8250  0.1639
14961TIP3    H166298   4.737   5.366  11.766  0.5433  0.4303  0.2687
14961TIP3    H266299   4.666   5.450  11.869 -0.6604 -0.3668  0.1079
14962TIP3   OH266300   3.930   1.104  14.375  0.8162 -0.1432  0.3197
14962TIP3    H166301   3.878   1.025  14.359 -0.1235  0.6411 -0.7050
14962TIP3    H266302   3.878   1.153  14.438  0.2153  0.6824 -0.7694
14963TIP3   OH266303   5.507   4.156   0.871 -0.1081 -0.4896 -0.2610
14963TIP3    H166304   5.468   4.189   0.790 -1.3622 -2.2245 -0.4115
14963TIP3    H266305   5.539   4.069   0.848  1.5375 -0.1507  0.5708
14964TIP3   OH266306   4.243   3.005  12.240  0.0291  0.5807  0.1126
14964TIP3    H166307   4.161   2.975  12.278 -0.0388  0.1381 -0.3618
14964TIP3    H266308   4.310   2.977  12.302 -0.1199  0.2971  0.1458
14965TIP3   OH266309   5.490   0.038  10.905 -0.2483  0.2881  0.8738
14965TIP3    H166310   5.569   0.040  10.849  0.2204 -2.7347  1.2236
14965TIP3    H266311   5.419   0.065  10.847  0.8528  1.8307  0.1850
14966TIP3   OH266312   3.324   1.651  13.591 -0.3338 -0.2600 -0.4549
14966TIP3    H166313   3.272   1.683  13.665 -0.1742 -1.7429  0.3328
14966TIP3    H266314   3.374   1.728  13.562 -0.1124  0.2682  1.2197
14967TIP3   OH266315   2.622   2.561  11.840  0.1327  0.5215 -0.0362
14967TIP3    H166316   2.609   2.547  11.934 -0.4323 -2.3850 -0.4689
14967TIP3    H266317   2.533   2.564  11.804  0.3574 -0.1355 -0.6696
14968TIP3   OH266318   1.585   0.654   5.573  0.3861 -0.6612 -0.4283
14968TIP3    H166319   1.500   0.646   5.616 -0.6767 -0.8283 -2.4293
14968TIP3    H266320   1.639   0.706   5.633 -1.0548 -0.7457  0.9761
14969TIP3   OH266321   3.097   1.524  11.915  0.1657  0.1654 -0.1717
14969TIP3    H166322   3.184   1.484  11.909 -0.6851 -1.7820 -0.4272
14969TIP3    H266323   3.109   1.599  11.973  1.5689 -1.4106  1.7015
14970TIP3   OH266324   5.067   1.462   0.675  0.0252  0.3235 -0.4141
14970TIP3    H166325   5.159   1.455   0.699 -0.3422  0.6901  1.2438
14970TIP3    H266326   5.036   1.371   0.672  0.3090  0.2250 -0.4089
14971TIP3   OH266327   3.296   2.961   1.098 -0.0117  0.3824 -0.1798
14971TIP3    H166328   3.345   2.930   1.022  0.9022 -1.5520  1.1391
14971TIP3    H266329   3.318   2.900   1.168 -0.8701  2.0707  1.6575
14972TIP3   OH266330   1.683   1.891  16.539  0.8492  0.3214 -0.2733
14972TIP3    H166331   1.655   1.799  16.536  0.2610  0.4391  0.9828
14972TIP3    H266332   1.632   1.929  16.610 -0.0723  2.0353 -1.7899
14973TIP3   OH266333   0.311   5.337   5.435  0.3656 -0.5771 -0.1450
14973TIP3    H166334   0.345   5.417   5.396  0.2516 -1.4910 -2.3237
14973TIP3    H266335   0.389   5.289   5.464  0.6854 -0.8530 -1.3728
14974TIP3   OH266336   2.547   2.671   6.160  0.1518  0.2348 -0.2621
14974TIP3    H166337   2.572   2.621   6.083  1.0855  2.9096 -1.8274
14974TIP3    H266338   2.618   2.734   6.172 -0.7710  0.9860  1.8017
14975TIP3   OH266339   1.826   3.525   1.558  0.5301 -0.4206  0.0352
14975TIP3    H166340   1.907   3.476   1.574 -0.8758 -2.6202  0.9047
14975TIP3    H266341   1.785   3.534   1.644  0.7845  2.6006 -0.0393
14976TIP3   OH266342   6.009   4.950  14.499  0.4788 -0.2758  0.4020
14976TIP3    H166343   6.066   5.001  14.441  0.3582  0.1659  0.6634
14976TIP3    H266344   5.991   4.869  14.451  0.4725  0.0388 -0.1269
14977TIP3   OH266345   2.381   4.345   5.597 -0.5611  0.1656 -0.3088
14977TIP3    H166346   2.334   4.303   5.669 -0.4104  0.3372 -0.1089
14977TIP3    H266347   2.353   4.297   5.519 -2.0062  1.0336 -0.3629
14978TIP3   OH266348   1.647   2.482   4.886  0.0182 -0.4983 -0.1802
14978TIP3    H166349   1.693   2.472   4.969 -1.1044 -0.5525  0.4522
14978TIP3    H266350   1.595   2.402   4.877  0.0640 -0.4602 -0.9064
14979TIP3   OH266351   1.304   5.397  11.564  0.1217 -0.3370 -0.0917
14979TIP3    H166352   1.330   5.425  11.476  0.2931 -1.0880 -0.2799
14979TIP3    H266353   1.210   5.381  11.556 -0.2148  1.2296  0.2966
14980TIP3   OH266354   5.298   2.311   3.407 -0.8509  0.0127  0.1989
14980TIP3    H166355   5.300   2.390   3.352 -0.6579  0.0915  0.3179
14980TIP3    H266356   5.335   2.339   3.491  0.0174 -0.4106 -0.0310
14981TIP3   OH266357   4.126   5.482   2.293  0.4165 -0.8797 -0.6593
14981TIP3    H166358   4.053   5.458   2.236  0.5324  0.8282 -1.5916
14981TIP3    H266359   4.086   5.496   2.379 -0.2157 -0.7038 -0.9810
14982TIP3   OH266360   1.353   0.275   3.364  0.3327  0.2529  0.0698
14982TIP3    H166361   1.322   0.351   3.412  2.2096  3.1994 -2.9369
14982TIP3    H266362   1.448   0.285   3.361  0.5977 -1.8637 -1.0093
14983TIP3   OH266363   1.181   3.421  11.339 -0.4284  0.5353 -0.0487
14983TIP3    H166364   1.256   3.454  11.389 -0.3853  1.1483 -0.5105
14983TIP3    H266365   1.125   3.497  11.325 -0.6498  0.2841 -0.5662
14984TIP3   OH266366   2.907   2.823  14.401  0.0335 -0.0935  0.6780
14984TIP3    H166367   2.833   2.832  14.340  1.0193 -1.6196 -0.8371
14984TIP3    H266368   2.867   2.828  14.488 -1.6215  0.7801 -0.0751
14985TIP3   OH266369   2.747   3.470   2.318  0.3360  0.2206 -0.5945
14985TIP3    H166370   2.722   3.537   2.381  0.5533 -0.8079  0.6124
14985TIP3    H266371   2.788   3.402   2.370  2.1093  0.1050 -2.0532
14986TIP3   OH266372   5.047   2.009   4.645  0.0710  0.3478 -0.4657
14986TIP3    H166373   5.111   2.069   4.606  1.1465 -0.7866 -0.5301
14986TIP3    H266374   5.070   1.923   4.609 -0.1825 -0.4179  1.1102
14987TIP3   OH266375   5.165   5.515  11.132  0.1848  0.5119  0.5743
14987TIP3    H166376   5.257   5.517  11.160  0.2367  1.3497  0.3776
14987TIP3    H266377   5.126   5.592  11.174  0.1562  1.5736 -1.2818
14988TIP3   OH266378   6.332   4.007  13.744 -0.1449  0.4020 -0.0422
14988TIP3    H166379   6.295   4.095  13.739 -0.8550  0.1768  0.9215
14988TIP3    H266380   6.269   3.952  13.698  0.7923  0.5093 -1.5360
14989TIP3   OH266381   4.848   4.992  14.247 -0.4243  0.0784 -0.0272
14989TIP3    H166382   4.881   5.075  14.282  0.5193  0.7973 -2.3917
14989TIP3    H266383   4.753   5.000  14.250 -0.4005  2.1792 -2.0235
14990TIP3   OH266384   1.593   1.074   2.638 -0.1332  0.0312 -0.2041
14990TIP3    H166385   1.603   1.082   2.733 -2.4390  1.9612 -0.0243
14990TIP3    H266386   1.667   1.122   2.602 -0.4499  1.2451  0.6978
14991TIP3   OH266387   5.144   6.503   1.007  0.4242 -0.0831  0.1613
14991TIP3    H166388   5.215   6.566   0.994  0.9597 -0.3736  1.4603
14991TIP3    H266389   5.187   6.427   1.045 -0.4353 -0.6865 -0.0434
14992TIP3   OH266390   3.489   0.792  10.661  0.9005 -0.3453 -0.3805
14992TIP3    H166391   3.536   0.764  10.739 -0.2240 -0.4224  0.2961
14992TIP3    H266392   3.440   0.715  10.632 -1.2685  0.4928  0.7953
14993TIP3   OH266393   5.079   4.725   3.718 -0.4100 -0.4972  0.3996
14993TIP3    H166394   5.150   4.676   3.761  0.5555 -0.8263 -1.4474
14993TIP3    H266395   5.084   4.813   3.757  2.6490  0.2241 -1.2837
14994TIP3   OH266396   3.063   5.179   0.024  0.0282  0.0783 -0.2322
14994TIP3    H166397   2.987   5.164   0.080  0.0314 -2.6781 -0.8288
14994TIP3    H266398   3.135   5.199   0.085 -1.0222  2.5508  0.3459
14995TIP3   OH266399   5.917   0.121   3.104 -0.4043  0.5369 -0.3488
14995TIP3    H166400   5.858   0.191   3.132 -1.3119  0.3887 -1.7623
14995TIP3    H266401   5.888   0.045   3.154 -1.1662  0.5696 -0.7131
14996TIP3   OH266402   6.748   0.805  12.253  0.1867 -0.0764 -0.1546
14996TIP3    H166403   6.775   0.779  12.165  0.0248 -0.9851  0.0570
14996TIP3    H266404   6.791   0.742  12.311 -2.5405 -1.7887  0.1723
14997TIP3   OH266405   0.907   0.567  14.268  0.2822  0.8322  0.6495
14997TIP3    H166406   0.952   0.563  14.184 -1.9215 -1.5807 -0.5409
14997TIP3    H266407   0.846   0.641  14.259 -1.7625 -0.9090 -1.0008
14998TIP3   OH266408   0.806   5.698   2.863 -0.0780 -0.1998 -0.0572
14998TIP3    H166409   0.860   5.732   2.792  1.2149  0.6731  1.2947
14998TIP3    H266410   0.834   5.607   2.874  0.9563  0.1731  0.4642
14999TIP3   OH266411   5.372   6.313  12.890 -0.6196  0.1960 -0.0437
14999TIP3    H166412   5.285   6.278  12.910  0.0964 -1.5856  0.1944
14999TIP3    H266413   5.432   6.250  12.931  0.7901  0.4878 -1.5849
15000TIP3   OH266414   2.421   2.852   3.961 -0.0584 -0.1582 -0.2368
15000TIP3    H166415   2.390   2.911   4.030  2.5416  0.2330  0.7210
15000TIP3    H266416   2.456   2.909   3.893 -1.5968 -0.5700 -1.4289
15001TIP3   OH266417   4.298   3.267  15.652  0.1167 -0.2277 -0.1756
15001TIP3    H166418   4.227   3.318  15.692  0.2588 -0.6960  0.7058
15001TIP3    H266419   4.254   3.209  15.591 -0.0864  0.6474 -0.8879
15002TIP3   OH266420   1.967   3.222  14.055 -0.3239  0.2980 -0.6546
15002TIP3    H166421   1.908   3.278  14.005 -0.7150 -0.1288 -0.6724
15002TIP3    H266422   2.036   3.282  14.086 -1.3898  1.0422  0.3887
15003TIP3   OH266423   2.122   0.758  13.522 -0.0458 -0.2803 -0.3915
15003TIP3    H166424   2.038   0.797  13.549  1.0400  0.5987  1.9858
15003TIP3    H266425   2.147   0.808  13.444 -0.4919  1.2847  0.4143
15004TIP3   OH266426   4.376   6.603  13.572 -0.7560  0.3496  0.0956
15004TIP3    H166427   4.288   6.578  13.545 -0.6412  0.4345 -0.3633
15004TIP3    H266428   4.420   6.520  13.591 -0.6778  0.2552 -0.4816
15005TIP3   OH266429   1.105   0.614   0.248 -0.0103  0.5451  0.2038
15005TIP3    H166430   1.117   0.663   0.167 -0.5208  0.3693  0.0233
15005TIP3    H266431   1.039   0.663   0.297  1.1524  1.3327  1.0637
15006TIP3   OH266432   5.645   2.833   0.623 -0.0943 -0.4397 -0.5219
15006TIP3    H166433   5.599   2.756   0.657 -0.0012  0.5449  2.0382
15006TIP3    H266434   5.590   2.863   0.550 -1.9311 -1.0028  0.5561
15007TIP3   OH266435   6.300   4.905   2.501  0.7545 -0.2276  0.5799
15007TIP3    H166436   6.393   4.889   2.484  0.9544  1.2715  0.0411
15007TIP3    H266437   6.277   4.975   2.439 -0.4931  0.0817  1.3663
15008TIP3   OH266438   2.944   0.725  15.736 -0.3228 -0.6732 -0.2159
15008TIP3    H166439   2.905   0.726  15.649 -0.1622 -2.0028 -0.3174
15008TIP3    H266440   2.872   0.705  15.795 -0.6082  1.0662  0.0850
15009TIP3   OH266441   4.111   3.301   6.111  0.3420 -0.5362 -0.4535
15009TIP3    H166442   4.195   3.255   6.120  0.6749  0.1976  0.3035
15009TIP3    H266443   4.133   3.381   6.062  0.0963 -0.3244 -0.2214
15010TIP3   OH266444   0.724   0.735  11.548 -0.1759  0.1522 -0.4745
15010TIP3    H166445   0.742   0.826  11.571 -0.7328  0.5635 -1.5874
15010TIP3    H266446   0.806   0.703  11.510  0.1126  0.0892  0.1882
15011TIP3   OH266447   6.362   5.103   1.744 -0.1752  0.1920  0.2852
15011TIP3    H166448   6.297   5.114   1.675 -0.0004  0.7785  0.2049
15011TIP3    H266449   6.362   5.187   1.790  0.4444  0.1615  0.3488
15012TIP3   OH266450   6.199   5.499  12.877  0.7240  0.3777 -0.1185
15012TIP3    H166451   6.198   5.525  12.784  4.1457 -1.0440 -0.6929
15012TIP3    H266452   6.165   5.409  12.876 -0.7569  0.8990  0.3122
15013TIP3   OH266453   2.739   3.795  13.694  0.1226 -0.4188 -0.3043
15013TIP3    H166454   2.759   3.877  13.738 -0.1468 -1.8246  2.7121
15013TIP3    H266455   2.813   3.737  13.716 -0.9350 -1.7353 -0.0475
15014TIP3   OH266456   2.116   4.036   5.952  0.2106  0.7693  0.0981
15014TIP3    H166457   2.034   4.003   5.914  0.4734  1.2768 -0.9524
15014TIP3    H266458   2.121   3.995   6.038 -1.0229  0.5337  0.0696
15015TIP3   OH266459   4.383   0.272  13.057  0.1224  0.2192 -0.5317
15015TIP3    H166460   4.421   0.198  13.011  0.3201  0.8815 -1.4686
15015TIP3    H266461   4.296   0.242  13.085  0.8112 -0.8756  0.5166
15016TIP3   OH266462   6.644   6.322   5.543 -0.2265 -0.3698  0.3721
15016TIP3    H166463   6.554   6.309   5.514 -0.6551  2.3525  0.2143
15016TIP3    H266464   6.666   6.409   5.512  1.7007 -0.0707  2.3680
15017TIP3   OH266465   3.063   3.027  16.805  0.1603  0.9684  0.5408
15017TIP3    H166466   3.088   3.115  16.776 -1.5159  2.3886  3.0158
15017TIP3    H266467   2.974   3.038  16.840 -0.9483 -2.1947 -0.9450
15018TIP3   OH266468   5.074   4.135   3.280 -0.2559  0.2166  0.0079
15018TIP3    H166469   5.141   4.164   3.217  0.9243 -1.4500  0.4213
15018TIP3    H266470   4.999   4.112   3.226  1.5181 -3.4377 -1.1870
15019TIP3   OH266471   1.569   2.365  10.677 -0.0358 -0.3858  0.4050
15019TIP3    H166472   1.593   2.349  10.769 -2.3224 -0.2343  1.0912
15019TIP3    H266473   1.537   2.281  10.646  1.0618 -0.5213 -0.3860
15020TIP3   OH266474   6.337   6.210  16.123  0.2452 -0.2044 -0.1163
15020TIP3    H166475   6.346   6.248  16.210 -0.6541  0.8160 -0.4482
15020TIP3    H266476   6.295   6.125  16.138 -2.0960  0.9477  0.3103
15021TIP3   OH266477   4.421   0.897  16.740  0.4632 -0.6738 -0.0957
15021TIP3    H166478   4.480   0.907  16.665 -0.0043 -1.6493 -0.5995
15021TIP3    H266479   4.469   0.938  16.812 -0.1245  2.6904 -1.3902
15022TIP3   OH266480   0.189   6.251  12.956  0.4888  0.0951 -0.4161
15022TIP3    H166481   0.278   6.283  12.947  0.2839  1.2926  1.3793
15022TIP3    H266482   0.184   6.216  13.045 -0.2750 -1.8970 -1.1763
15023TIP3   OH266483   0.521   5.560  13.047 -0.4485  0.0418 -0.4392
15023TIP3    H166484   0.484   5.471  13.046  0.1118 -0.1897 -0.9856
15023TIP3    H266485   0.445   5.617  13.038 -1.1376 -0.2611  2.4522
15024TIP3   OH266486   5.518   3.671   4.271 -0.3712 -0.0021  1.3178
15024TIP3    H166487   5.605   3.663   4.312 -0.6011 -0.8430  1.6574
15024TIP3    H266488   5.535   3.665   4.177  0.1706  1.9876  1.2246
15025TIP3   OH266489   1.812   1.813  13.133  0.5086 -0.2371 -0.0284
15025TIP3    H166490   1.886   1.779  13.182  0.1233 -0.7057  0.2442
15025TIP3    H266491   1.735   1.787  13.184  0.0117 -1.8443 -1.4965
15026TIP3   OH266492   1.595   2.205   4.923 -0.7570 -0.6074 -0.0608
15026TIP3    H166493   1.543   2.125   4.921 -0.1647 -1.0137  0.2735
15026TIP3    H266494   1.679   2.178   4.961 -0.2251 -0.0168 -0.7800
15027TIP3   OH266495   5.409   3.588  14.072  0.1630  0.1653  0.0456
15027TIP3    H166496   5.403   3.658  14.137 -1.0145  0.9016 -0.8092
15027TIP3    H266497   5.467   3.523  14.112 -1.0958  0.2324  2.1903
15028TIP3   OH266498   2.074   0.785   0.283 -0.2035  0.0828  0.1379
15028TIP3    H166499   2.062   0.874   0.251 -0.9835 -0.1210 -0.1579
15028TIP3    H266500   2.029   0.784   0.368  0.3870  0.1511  0.4573
15029TIP3   OH266501   0.410   6.237   4.050 -0.2356 -0.4463  0.3875
15029TIP3    H166502   0.422   6.252   4.144  1.0106  1.5134 -0.0397
15029TIP3    H266503   0.450   6.151   4.034  1.2914  0.0560  1.3311
15030TIP3   OH266504   2.006   3.573   0.768  0.6266  0.3526  0.1326
15030TIP3    H166505   2.090   3.552   0.726  1.4113  1.4762  1.0748
15030TIP3    H266506   2.027   3.642   0.830 -0.7212 -0.4331  1.5294
15031TIP3   OH266507   2.480   4.738  16.814  0.4225 -0.1024  0.3050
15031TIP3    H166508   2.517   4.679  16.749  0.9181  0.4183  0.1065
15031TIP3    H266509   2.446   4.812  16.764  1.9744  0.9361  0.6828
15032TIP3   OH266510   5.959   6.496  11.683  0.3180 -0.3855  0.0938
15032TIP3    H166511   5.989   6.438  11.753 -0.7924  0.4348  1.3100
15032TIP3    H266512   5.864   6.494  11.690  0.1696 -0.6627 -1.7471
15033TIP3   OH266513   4.903   4.008  13.165  0.2868  0.0124  0.5983
15033TIP3    H166514   4.841   4.079  13.148 -0.8721 -0.9063  0.7989
15033TIP3    H266515   4.875   3.938  13.105  0.1912 -0.9418  1.7112
15034TIP3   OH266516   2.438   5.199  14.696  0.4819 -0.5503 -0.5047
15034TIP3    H166517   2.458   5.229  14.608 -0.4432  0.3275 -0.4367
15034TIP3    H266518   2.428   5.104  14.687 -0.4991 -0.3752 -1.5478
15035TIP3   OH266519   2.759   4.004   5.329  0.3648  0.5347  0.0538
15035TIP3    H166520   2.845   4.016   5.369  0.4714 -0.4756  0.1639
15035TIP3    H266521   2.698   4.002   5.403  0.7335 -2.9883  0.4532
15036TIP3   OH266522   1.999   2.110  13.670  0.5940  0.4348  0.3398
15036TIP3    H166523   1.994   2.065  13.585 -0.1564 -0.2967  0.7600
15036TIP3    H266524   2.089   2.144  13.673  1.1075 -0.8161 -0.1046
15037TIP3   OH266525   2.079   1.338  13.536  0.8043  0.3644 -0.4024
15037TIP3    H166526   2.152   1.287  13.570  0.6177  0.9525  0.9390
15037TIP3    H266527   2.002   1.282  13.552  0.7021  0.6914  0.2784
15038TIP3   OH266528   0.808   1.769   4.096  0.2032  0.3822  0.5745
15038TIP3    H166529   0.817   1.850   4.146 -1.9698 -0.2098  2.0407
15038TIP3    H266530   0.732   1.783   4.041 -1.6582 -1.3808  2.5187
15039TIP3   OH266531   3.625   2.054  13.145 -0.1974  0.5010 -0.4451
15039TIP3    H166532   3.595   2.101  13.223  1.6589 -0.0444  0.6664
15039TIP3    H266533   3.558   2.072  13.079 -1.5355  1.4602  1.0865
15040TIP3   OH266534   1.805   0.797  14.329 -0.2286  0.1593 -0.1443
15040TIP3    H166535   1.860   0.748  14.269 -2.0085 -2.8994  0.5151
15040TIP3    H266536   1.717   0.794  14.290 -0.5101  2.5856  0.1300
15041TIP3   OH266537   3.539   0.814   0.641  0.4176 -0.1247 -0.5396
15041TIP3    H166538   3.622   0.859   0.625  0.6802 -1.0011 -1.8180
15041TIP3    H266539   3.480   0.849   0.574  0.2726 -0.7533 -0.7460
15042TIP3   OH266540   1.425   4.931   2.634 -0.1897 -0.2962 -0.3678
15042TIP3    H166541   1.382   4.917   2.718  0.0612 -0.4170 -0.2587
15042TIP3    H266542   1.443   5.025   2.632  0.0350 -0.3354 -0.1758
15043TIP3   OH266543   1.002   5.962  15.552  0.3524 -0.0001 -0.4048
15043TIP3    H166544   0.983   6.009  15.471  0.4535 -1.5519 -1.3727
15043TIP3    H266545   1.071   6.013  15.595  1.5154 -0.0295 -2.1431
15044TIP3   OH266546   6.276   2.653  14.350 -0.0994  0.3552  0.0997
15044TIP3    H166547   6.235   2.626  14.432 -1.4560 -0.3778 -0.7998
15044TIP3    H266548   6.347   2.590  14.338 -1.5791 -1.2531 -0.6240
15045TIP3   OH266549   5.085   0.830   0.390  0.5509 -0.2604 -0.9436
15045TIP3    H166550   5.067   0.775   0.314 -0.6398  0.7143 -1.4039
15045TIP3    H266551   5.041   0.913   0.370  2.8982  1.1535 -0.6234
15046TIP3   OH266552   3.723   0.307   1.292  0.3093  0.0377  0.5060
15046TIP3    H166553   3.782   0.365   1.245  2.0235 -0.9692  1.3119
15046TIP3    H266554   3.716   0.345   1.380 -0.6177  0.3896  0.2901
15047TIP3   OH266555   5.180   1.902   5.434  0.1849 -0.6751  0.4152
15047TIP3    H166556   5.122   1.886   5.360  0.0475  1.1470  0.0909
15047TIP3    H266557   5.233   1.822   5.440 -0.3794 -1.2013 -1.1031
15048TIP3   OH266558   0.822   5.052  15.676 -0.3367 -0.2600  0.0473
15048TIP3    H166559   0.892   5.045  15.611  0.1399 -0.8558  0.6098
15048TIP3    H266560   0.765   4.977  15.658  1.6450 -2.5268  2.4247
15049TIP3   OH266561   6.259   0.854  16.871  0.1557 -0.3599  0.4817
15049TIP3    H166562   6.209   0.852  16.789 -2.3081  0.0760  1.8866
15049TIP3    H266563   6.251   0.944  16.902  1.5427 -0.3779  0.9328
15050TIP3   OH266564   0.073   1.410   4.049  0.2870 -0.6197 -0.2502
15050TIP3    H166565   0.081   1.500   4.019 -1.2496 -0.9840 -1.9151
15050TIP3    H266566   0.114   1.410   4.135 -1.4448  2.1434  0.7145
15051TIP3   OH266567   4.512   2.203  14.612  0.4808  0.2899 -0.0437
15051TIP3    H166568   4.517   2.111  14.638  0.0044 -0.5183 -2.4874
15051TIP3    H266569   4.456   2.243  14.678 -0.7757 -1.6056  0.1469
15052TIP3   OH266570   0.286   2.191   4.665 -0.6675  0.0628 -0.0618
15052TIP3    H166571   0.299   2.272   4.617 -3.9913  1.1035  0.5472
15052TIP3    H266572   0.248   2.130   4.602  1.3108 -0.9404 -0.3760
15053TIP3   OH266573   5.236   0.809  12.122  0.1481  0.6777 -0.1287
15053TIP3    H166574   5.162   0.754  12.098  0.5029  1.1743 -2.6377
15053TIP3    H266575   5.220   0.832  12.214 -1.9381 -0.5281 -0.1300
15054TIP3   OH266576   0.408   6.296  16.315  0.7511 -0.6308  0.2527
15054TIP3    H166577   0.374   6.229  16.256  1.1586 -0.1244 -0.5652
15054TIP3    H266578   0.364   6.278  16.399 -1.0114 -0.4156 -0.5881
15055TIP3   OH266579   2.327   2.535   3.286 -0.5624  0.0467 -0.7420
15055TIP3    H166580   2.339   2.593   3.211 -0.6361  1.8839  0.6092
15055TIP3    H266581   2.280   2.459   3.250 -2.2977  1.7275 -2.2058
15056TIP3   OH266582   1.489   6.400  14.954 -0.0475  0.1764  0.4072
15056TIP3    H166583   1.556   6.406  14.886  0.4202  1.3490  0.9375
15056TIP3    H266584   1.436   6.478  14.943  0.0282  0.3819  1.3700
15057TIP3   OH266585   2.554   0.859  14.172  0.7132  0.2732  0.1929
15057TIP3    H166586   2.509   0.909  14.241  1.1853  0.2226  0.5410
15057TIP3    H266587   2.560   0.770  14.207 -1.2090 -0.3540 -0.9196
15058TIP3   OH266588   5.149   3.505   4.809  0.0425 -0.2289  0.6742
15058TIP3    H166589   5.143   3.418   4.849 -1.1385 -0.2215  0.5468
15058TIP3    H266590   5.060   3.524   4.779 -0.1848  1.8082  2.3763
15059TIP3   OH266591   4.876   2.955  10.805 -0.3142  0.1200  0.3240
15059TIP3    H166592   4.786   2.975  10.782 -0.6661 -1.2961  0.3677
15059TIP3    H266593   4.895   3.010  10.881 -1.3338  0.0050  0.6705
15060TIP3   OH266594   6.185   5.000  15.097 -0.3238 -0.0725  0.4543
15060TIP3    H166595   6.271   4.963  15.115 -0.2632 -1.1024 -1.6409
15060TIP3    H266596   6.202   5.071  15.035 -0.8472  0.9251  1.4057
15061TIP3   OH266597   6.345   2.197  12.508 -0.1272 -0.8927 -0.3058
15061TIP3    H166598   6.323   2.270  12.451 -0.7980 -1.9893 -1.4829
15061TIP3    H266599   6.292   2.212  12.587  1.0069  0.7701  0.2093
15062TIP3   OH266600   2.842   4.468  13.350  0.6336  0.5032  0.4625
15062TIP3    H166601   2.774   4.402  13.363  0.4543  0.0124 -2.2915
15062TIP3    H266602   2.906   4.426  13.293  0.6372  2.5829 -1.1969
15063TIP3   OH266603   6.671   0.595   4.174 -0.0869  0.9640 -0.0529
15063TIP3    H166604   6.723   0.654   4.229 -0.0901  0.7508  0.1799
15063TIP3    H266605   6.582   0.630   4.179  0.1577  1.7323 -1.0040
15064TIP3   OH266606   6.158   2.878  15.297 -0.1894 -0.2538 -0.3259
15064TIP3    H166607   6.197   2.948  15.350  0.1474 -0.5498 -0.1744
15064TIP3    H266608   6.101   2.831  15.359 -1.1667  0.4641 -0.6619
15065TIP3   OH266609   0.042   0.865  15.467  0.1079  0.4902  0.2987
15065TIP3    H166610  -0.022   0.869  15.396  0.1322  0.6264  0.2840
15065TIP3    H266611  -0.010   0.875  15.546  0.2140  1.5514  0.2445
15066TIP3   OH266612   5.807   6.109  14.579 -0.4222 -0.0636  0.3269
15066TIP3    H166613   5.826   6.019  14.553  1.7475  0.4139  0.1203
15066TIP3    H266614   5.840   6.163  14.508 -1.2981  0.9543  0.6529
15067TIP3   OH266615   4.020   2.235   0.191  0.0872 -0.2073 -0.1302
15067TIP3    H166616   4.047   2.280   0.112 -0.1927 -1.2047 -0.8202
15067TIP3    H266617   4.059   2.148   0.184  0.8435 -0.0174  1.2934
15068TIP3   OH266618   0.066   5.651   6.366  0.7723 -0.3559 -0.3167
15068TIP3    H166619   0.109   5.708   6.303  0.7175 -0.6841 -0.6547
15068TIP3    H266620  -0.022   5.638   6.331  0.5446 -0.0576  0.1365
15069TIP3   OH266621   3.379   6.742   0.992 -0.2336 -0.2967 -0.0228
15069TIP3    H166622   3.445   6.676   0.969  0.6308  0.3824  0.4666
15069TIP3    H266623   3.430   6.819   1.018 -1.1787 -0.2850  1.9798
15070TIP3   OH266624   0.973   4.761   5.024 -0.0578 -0.0750 -0.8028
15070TIP3    H166625   0.907   4.767   5.094  1.8774  1.3605  1.0382
15070TIP3    H266626   1.013   4.848   5.022  1.5811 -0.8100 -2.0367
15071TIP3   OH266627   5.763   5.359  12.990 -0.4613 -0.3162  0.1980
15071TIP3    H166628   5.773   5.296  12.919 -1.4026 -0.6353  0.3445
15071TIP3    H266629   5.683   5.332  13.036  0.1133 -0.1166  1.3698
15072TIP3   OH266630   4.056   4.466  11.831 -0.1962  0.1399  0.2573
15072TIP3    H166631   4.101   4.426  11.906 -2.2687  0.6172  1.8921
15072TIP3    H266632   3.966   4.432  11.837 -0.5015  0.4358 -1.8760
15073TIP3   OH266633   0.417   0.540  14.322  0.4880 -0.5027 -0.3707
15073TIP3    H166634   0.342   0.598  14.305  0.7861  0.0853  0.2527
15073TIP3    H266635   0.415   0.527  14.417  1.6848  0.2309 -0.2259
15074TIP3   OH266636   2.732   3.411  13.237  0.2323  0.2247  0.8496
15074TIP3    H166637   2.702   3.361  13.312 -2.4035 -0.0227 -0.2494
15074TIP3    H266638   2.774   3.347  13.180  2.5111  0.4653  2.1494
15075TIP3   OH266639   5.066   3.546   6.072 -0.0595 -0.4029 -0.3577
15075TIP3    H166640   5.084   3.548   5.978  0.9384 -0.8000 -0.1889
15075TIP3    H266641   5.118   3.617   6.108 -2.0282  1.0967 -0.3291
15076TIP3   OH266642   5.938   6.612  14.956  0.0512  0.5241 -0.5025
15076TIP3    H166643   5.940   6.698  14.999  1.2363  0.3197 -0.0962
15076TIP3    H266644   5.963   6.551  15.025 -1.4094 -0.2482 -0.6234
15077TIP3   OH266645   2.332   5.514   1.685 -0.2190  0.3637 -0.2695
15077TIP3    H166646   2.338   5.450   1.615  2.1658  0.1816 -0.0067
15077TIP3    H266647   2.240   5.515   1.710 -0.9043 -0.4625 -2.5476
15078TIP3   OH266648   6.149   1.488  16.058  0.1081 -0.5911  0.0387
15078TIP3    H166649   6.219   1.428  16.033  0.5034 -0.6720  1.3181
15078TIP3    H266650   6.075   1.461  16.004  0.5664 -1.5942 -0.1062
15079TIP3   OH266651   6.088   1.774   4.781 -0.3096  0.0739 -0.1115
15079TIP3    H166652   6.175   1.734   4.779  0.1663  0.9626  1.4476
15079TIP3    H266653   6.081   1.811   4.869 -2.1744  0.2352 -0.3049
15080TIP3   OH266654   6.758   5.538   2.660  0.8292  0.2212 -0.0982
15080TIP3    H166655   6.778   5.449   2.631  0.6368  0.0763  0.2084
15080TIP3    H266656   6.738   5.585   2.579  0.6869 -0.0794 -0.2426
15081TIP3   OH266657   3.352   5.740  12.580 -0.3008  0.1539 -0.8331
15081TIP3    H166658   3.427   5.697  12.622 -0.1419 -2.1092 -3.1722
15081TIP3    H266659   3.385   5.766  12.494 -2.0003 -0.2890 -1.6588
15082TIP3   OH266660   4.272   6.678  16.213  0.6566  0.2199  0.2333
15082TIP3    H166661   4.236   6.594  16.184 -1.8137  1.8359 -1.7638
15082TIP3    H266662   4.201   6.719  16.262  2.0441  0.9563  1.7295
15083TIP3   OH266663   5.154   3.509   2.226 -0.1155 -0.0283 -0.1011
15083TIP3    H166664   5.200   3.467   2.298 -1.6365  0.2798  1.1070
15083TIP3    H266665   5.142   3.599   2.254 -0.6708  0.1207 -0.7699
15084TIP3   OH266666   4.376   0.929   1.946  0.3822  0.9086 -0.2093
15084TIP3    H166667   4.340   1.017   1.945 -1.1798  0.3085 -0.4326
15084TIP3    H266668   4.335   0.886   2.021 -0.0231 -0.0514 -0.9508
15085TIP3   OH266669   6.440   5.933   4.190  0.3434  0.2195 -0.3242
15085TIP3    H166670   6.508   5.976   4.137  0.7310  1.9699  1.4634
15085TIP3    H266671   6.405   6.003   4.245 -1.9832 -0.9477 -0.2232
15086TIP3   OH266672   4.846   5.412   1.885 -0.3987  0.0465  0.1150
15086TIP3    H166673   4.785   5.479   1.852 -0.8362 -0.5296 -0.2546
15086TIP3    H266674   4.811   5.329   1.852  1.0740 -0.2279 -0.8577
15087TIP3   OH266675   4.318   6.138   4.864 -0.3923  0.5090 -0.4297
15087TIP3    H166676   4.245   6.184   4.903 -0.4428  2.2710 -2.4347
15087TIP3    H266677   4.364   6.204   4.812  2.3838 -0.6174  0.3628
15088TIP3   OH266678   4.456   4.254  14.611  0.1264 -0.1806 -0.0081
15088TIP3    H166679   4.447   4.168  14.652  0.2126  0.3244  1.0890
15088TIP3    H266680   4.545   4.254  14.575  0.0997 -0.5708 -0.0834
15089TIP3   OH266681   1.935   2.593  12.437  0.2944 -0.2308  0.3266
15089TIP3    H166682   1.975   2.544  12.509 -1.0554 -0.6464  0.8320
15089TIP3    H266683   1.895   2.525  12.382 -0.7731  0.2311  0.5094
15090TIP3   OH266684   0.609   6.336  11.415 -0.1020 -0.7227  0.5740
15090TIP3    H166685   0.529   6.357  11.368  0.1682 -0.0208  0.4124
15090TIP3    H266686   0.607   6.394  11.491  0.1315 -0.8848  0.7041
15091TIP3   OH266687   0.685   3.847   5.332 -0.9089  0.4159 -0.0835
15091TIP3    H166688   0.677   3.832   5.238  0.6880  0.2502 -0.2241
15091TIP3    H266689   0.706   3.761   5.368 -2.9121  0.1867  0.6489
15092TIP3   OH266690   1.823   0.869  16.058 -0.1661 -0.1852  0.1255
15092TIP3    H166691   1.730   0.851  16.075 -0.9520  1.8905 -1.4704
15092TIP3    H266692   1.846   0.938  16.120 -0.4214  0.9466 -0.9851
15093TIP3   OH266693   1.001   6.626   3.919 -0.0723  0.5360  0.1415
15093TIP3    H166694   1.071   6.563   3.931  0.2847  0.7337 -0.7737
15093TIP3    H266695   0.954   6.628   4.002  0.2679 -0.4959  0.3602
15094TIP3   OH266696   5.163   3.760  14.652 -0.4530 -0.9434  0.4096
15094TIP3    H166697   5.190   3.824  14.719  1.2166 -0.5905 -0.5288
15094TIP3    H266698   5.151   3.679  14.701 -0.5047 -0.4031  1.3276
15095TIP3   OH266699   1.437   5.765  13.579 -0.5442  1.2824  1.3537
15095TIP3    H166700   1.531   5.772  13.560 -0.4410  1.1251  1.7957
15095TIP3    H266701   1.420   5.835  13.642 -0.4340  0.4431  2.3349
15096TIP3   OH266702   0.655   3.230   5.056  0.4553  0.0317  0.1382
15096TIP3    H166703   0.682   3.307   5.105 -0.5639 -0.3976  1.4184
15096TIP3    H266704   0.675   3.156   5.114 -1.2028 -0.4517  0.1413
15097TIP3   OH266705   0.578   5.541   1.743  0.1622 -0.5482 -0.1862
15097TIP3    H166706   0.556   5.539   1.836  0.2718 -3.1188 -0.1301
15097TIP3    H266707   0.534   5.619   1.709 -1.7513 -0.7701  1.5860
15098TIP3   OH266708   1.244   5.565  15.952  0.4384 -0.1401 -0.0015
15098TIP3    H166709   1.331   5.526  15.956 -0.0321 -1.2050  0.3233
15098TIP3    H266710   1.257   5.650  15.910  1.2921 -1.2295 -2.0583
15099TIP3   OH266711   3.181   5.774   1.293 -0.2185 -0.3444  0.0326
15099TIP3    H166712   3.171   5.686   1.328  1.0661 -0.6644 -0.3254
15099TIP3    H266713   3.092   5.803   1.272 -0.6329 -1.6387 -0.0370
15100TIP3   OH266714   4.276   2.032   3.437 -0.1303  0.4107 -0.0438
15100TIP3    H166715   4.203   2.092   3.453  0.1254  1.0458 -1.1696
15100TIP3    H266716   4.235   1.957   3.392 -0.4405 -0.2654  1.3149
15101TIP3   OH266717   6.268   2.228   5.091 -0.4764  0.2578  0.6471
15101TIP3    H166718   6.290   2.153   5.146  1.3064 -0.8947 -1.4905
15101TIP3    H266719   6.324   2.298   5.123  0.1418 -0.2379  0.6724
15102TIP3   OH266720   2.940   1.435  16.787 -0.5197  0.1917 -0.5055
15102TIP3    H166721   2.981   1.378  16.721 -0.1163  0.5591 -0.5733
15102TIP3    H266722   2.846   1.419  16.775 -0.4115 -0.5799 -0.4152
15103TIP3   OH266723   2.864   1.111  14.887  0.0267 -0.4728 -0.2203
15103TIP3    H166724   2.851   1.161  14.807  1.8873  0.4540  0.0006
15103TIP3    H266725   2.870   1.177  14.956  0.2341 -1.1477  0.4260
15104TIP3   OH266726   3.109   4.405  10.556 -0.1990  0.7247  0.2194
15104TIP3    H166727   3.099   4.330  10.498 -0.2175  0.0452  1.0748
15104TIP3    H266728   3.039   4.395  10.620  0.0396  1.2610  0.5692
15105TIP3   OH266729   6.784   6.291  13.922 -0.0655 -0.4929  0.1745
15105TIP3    H166730   6.766   6.237  13.844  1.9912  1.5516 -1.8712
15105TIP3    H266731   6.729   6.368  13.910 -0.1899 -0.4339  1.1051
15106TIP3   OH266732   1.527   6.617  11.652 -0.8123 -0.5407 -0.7093
15106TIP3    H166733   1.522   6.669  11.572  1.5822 -2.3221 -2.1422
15106TIP3    H266734   1.580   6.670  11.712 -2.0229  0.4905 -0.5112
15107TIP3   OH266735   3.230   6.141  15.134 -0.0795 -0.1260  0.2159
15107TIP3    H166736   3.313   6.097  15.157  0.4366  0.6080 -0.2316
15107TIP3    H266737   3.179   6.138  15.216 -0.0879 -1.5968  0.1933
15108TIP3   OH266738   2.502   3.972  16.327  0.0215  0.6802  0.3065
15108TIP3    H166739   2.530   3.931  16.245  1.8832 -1.0694  1.7042
15108TIP3    H266740   2.408   3.956  16.331  0.2106 -0.8687 -0.6136
15109TIP3   OH266741   4.551   1.628  14.967  0.3527 -0.0196 -0.3603
15109TIP3    H166742   4.502   1.631  14.884  0.2845  1.6668 -0.3015
15109TIP3    H266743   4.534   1.541  15.002 -2.0548  0.2608 -0.6839
15110TIP3   OH266744   5.346   0.941   2.281  0.6367 -0.1561  0.4176
15110TIP3    H166745   5.341   1.028   2.322  1.4982 -0.5434  1.3928
15110TIP3    H266746   5.265   0.933   2.232 -1.6950 -0.5628  3.9556
15111TIP3   OH266747   6.594   2.749   1.170 -0.1282 -0.2714  0.4521
15111TIP3    H166748   6.553   2.808   1.107  0.8736 -0.4745 -0.4094
15111TIP3    H266749   6.558   2.663   1.150  0.6168 -0.4311 -0.2310
15112TIP3   OH266750   0.051   4.682  14.029 -0.2127 -0.5898 -0.1082
15112TIP3    H166751  -0.037   4.708  14.002 -1.0428 -0.8444  2.1307
15112TIP3    H266752   0.108   4.714  13.959 -1.9194  0.8532 -0.9243
15113TIP3   OH266753   1.421   4.518  13.411 -0.3232 -0.3763  0.0994
15113TIP3    H166754   1.490   4.464  13.371 -0.0791 -0.1025  0.1466
15113TIP3    H266755   1.442   4.518  13.504 -1.1459 -1.3814  0.3056
15114TIP3   OH266756   5.156   0.420   3.367 -0.0512  0.1508  0.0376
15114TIP3    H166757   5.153   0.405   3.462  0.4211 -1.3130 -0.1553
15114TIP3    H266758   5.086   0.365   3.332 -1.0913  1.6741 -0.3829
15115TIP3   OH266759   4.350   0.154   1.069  0.1999 -0.2224  0.5072
15115TIP3    H166760   4.324   0.127   1.157  1.0827  0.6653  1.0656
15115TIP3    H266761   4.438   0.119   1.059  0.3138  0.1514  0.1936
15116TIP3   OH266762   0.671   4.695  11.854  0.3266  0.3985  0.3048
15116TIP3    H166763   0.739   4.716  11.918 -0.6764  0.1868  1.5003
15116TIP3    H266764   0.589   4.711  11.901 -0.4484 -0.2563 -0.7768
15117TIP3   OH266765   6.084   2.308  13.469 -0.0792 -0.1025 -0.1594
15117TIP3    H166766   6.066   2.234  13.411  1.6760 -0.1312 -0.7255
15117TIP3    H266767   6.063   2.386  13.416  2.0247 -0.1081 -1.1158
15118TIP3   OH266768   2.187   2.226  13.456  0.3589 -0.5954  0.7436
15118TIP3    H166769   2.112   2.214  13.398  0.7725  2.4190 -0.5801
15118TIP3    H266770   2.181   2.317  13.486  3.3385 -0.3123  0.7783
15119TIP3   OH266771   2.971   4.044   4.423  0.2088 -0.0281 -0.5075
15119TIP3    H166772   2.982   4.048   4.518  0.1327  0.2936 -0.5109
15119TIP3    H266773   2.892   4.096   4.406  0.1950 -0.1238 -0.7417
15120TIP3   OH266774   0.770   1.190  13.509 -0.1332 -0.2309  0.0419
15120TIP3    H166775   0.727   1.275  13.520  1.8674  0.7873  0.3794
15120TIP3    H266776   0.812   1.194  13.424  0.5863 -0.5976  0.3708
15121TIP3   OH266777   0.528   3.786   2.600 -0.4612 -0.2657 -0.0330
15121TIP3    H166778   0.470   3.858   2.576  0.4001  0.8908  1.1997
15121TIP3    H266779   0.606   3.830   2.635  0.6912 -1.7828 -0.5970
15122TIP3   OH266780   1.147   4.911   5.783  0.0938 -0.5594 -0.1664
15122TIP3    H166781   1.133   4.877   5.871 -0.3887 -0.4966 -0.2190
15122TIP3    H266782   1.222   4.862   5.750  2.4263  1.6097  1.4705
15123TIP3   OH266783   1.212   1.675   4.615  0.5129  0.6613  0.1466
15123TIP3    H166784   1.177   1.639   4.696  0.2653 -0.4654 -0.4341
15123TIP3    H266785   1.307   1.677   4.629  0.5684 -0.5449  0.1000
15124TIP3   OH266786   5.647   0.702  13.562 -0.0023 -0.4397  0.3544
15124TIP3    H166787   5.565   0.748  13.582 -0.4599  0.0844 -2.3310
15124TIP3    H266788   5.715   0.755  13.605 -0.6425  2.1533 -1.6004
15125TIP3   OH266789   4.159   1.582   1.322  0.5249  0.0680  0.4564
15125TIP3    H166790   4.087   1.528   1.289  1.6445 -0.4053 -1.3373
15125TIP3    H266791   4.208   1.523   1.380 -0.5863  0.4484  1.8355
15126TIP3   OH266792   3.090   4.308  12.797 -0.5071  0.4173  0.1977
15126TIP3    H166793   3.026   4.303  12.727 -0.6464 -0.9708  0.4003
15126TIP3    H266794   3.091   4.401  12.822 -1.6262  0.6442 -0.5380
15127TIP3   OH266795   5.554   3.872   1.438  0.5061  0.0097 -0.1073
15127TIP3    H166796   5.647   3.857   1.426  0.4160 -1.6601  0.9915
15127TIP3    H266797   5.513   3.787   1.420 -0.8316  0.7647 -0.7871
15128TIP3   OH266798   4.573   4.006   2.952  0.0990 -0.1832  0.0524
15128TIP3    H166799   4.524   4.042   2.878 -0.5000  1.1703  1.0664
15128TIP3    H266800   4.663   4.037   2.938 -0.1528  0.6619  0.2327
15129TIP3   OH266801   6.125   5.880  12.827 -0.4244  0.4413  0.2109
15129TIP3    H166802   6.109   5.809  12.765  1.7614 -1.0502  1.2377
15129TIP3    H266803   6.069   5.860  12.902  0.2996 -0.3325  0.5632
15130TIP3   OH266804   3.156   5.666   5.055  0.1229 -0.1125  0.4572
15130TIP3    H166805   3.212   5.589   5.068 -1.1861 -0.9703  1.2453
15130TIP3    H266806   3.215   5.733   5.019  1.4447 -1.2514  0.4208
15131TIP3   OH266807   1.602   0.461   1.441  0.0737  0.0587  0.3645
15131TIP3    H166808   1.649   0.398   1.386 -0.3391 -1.0046  1.1852
15131TIP3    H266809   1.560   0.521   1.379  1.2927  0.1379 -0.4091
15132TIP3   OH266810   4.172   3.915  14.820  0.1946 -0.2701 -0.3679
15132TIP3    H166811   4.149   3.979  14.753  0.8652 -0.7088 -1.0308
15132TIP3    H266812   4.109   3.930  14.890  0.4459  1.2213 -0.4341
15133TIP3   OH266813   5.081   4.251  11.388  0.3390  0.0357 -0.7643
15133TIP3    H166814   4.993   4.253  11.350 -0.9942  0.3964  2.0695
15133TIP3    H266815   5.133   4.308  11.332 -1.0968 -0.4752 -2.7350
15134TIP3   OH266816   2.151   6.526  15.035 -0.2336  0.2557 -0.3272
15134TIP3    H166817   2.166   6.557  14.946 -2.2127  2.1774 -0.0652
15134TIP3    H266818   2.056   6.530  15.047 -0.0332 -0.0577  1.8300
15135TIP3   OH266819   4.970   5.227  15.806 -0.5435  0.3305 -0.1935
15135TIP3    H166820   4.893   5.170  15.806  0.4543 -1.0854  0.0551
15135TIP3    H266821   5.033   5.182  15.863 -0.3161  2.6001  1.5196
15136TIP3   OH266822   5.607   4.176  12.636 -0.0531  0.1316 -0.3309
15136TIP3    H166823   5.588   4.231  12.560 -1.2033 -1.9698 -1.6641
15136TIP3    H266824   5.542   4.202  12.702 -0.6269  0.3356 -0.9661
15137TIP3   OH266825   4.553   4.334  11.152 -0.3766 -0.2679  0.0756
15137TIP3    H166826   4.536   4.257  11.097 -1.1762  1.0171 -1.5619
15137TIP3    H266827   4.644   4.324  11.179 -0.6282 -2.0733  0.4074
15138TIP3   OH266828   0.623   0.893   2.864 -0.0738 -0.2108 -0.1871
15138TIP3    H166829   0.585   0.933   2.786  1.5704  2.3788  0.2484
15138TIP3    H266830   0.666   0.964   2.910  2.5059 -2.3542  1.0128
15139TIP3   OH266831   1.258   2.422  16.453 -0.2354  0.3616 -0.4011
15139TIP3    H166832   1.231   2.351  16.511 -0.1748  1.2839  0.7868
15139TIP3    H266833   1.181   2.479  16.447  0.0973  0.8178 -0.3825
15140TIP3   OH266834   6.483   5.525  16.725 -0.4727 -0.6429 -0.4479
15140TIP3    H166835   6.555   5.583  16.698 -1.0956  0.0168 -0.7307
15140TIP3    H266836   6.518   5.437  16.715 -0.2043 -0.3808 -2.0712
15141TIP3   OH266837   4.051   1.129   0.507  0.3510 -0.3364  0.0345
15141TIP3    H166838   4.124   1.175   0.466 -0.6350 -0.0495 -1.4739
15141TIP3    H266839   4.092   1.059   0.558  1.7618  0.9423  0.7528
15142TIP3   OH266840   5.946   5.925   5.633  0.6141 -0.2004 -0.4277
15142TIP3    H166841   5.894   5.918   5.552  1.8464 -0.2517 -1.2372
15142TIP3    H266842   6.037   5.922   5.603  1.1224  1.5212  0.8202
15143TIP3   OH266843   5.192   1.942   3.882  0.4031 -0.0269 -0.3917
15143TIP3    H166844   5.102   1.970   3.903  0.8221 -1.1285  3.7057
15143TIP3    H266845   5.186   1.847   3.876  1.1838 -0.0420 -1.0486
15144TIP3   OH266846   0.033   2.328   5.600  0.1688  0.9233 -0.1738
15144TIP3    H166847   0.057   2.416   5.570 -0.1045  1.3761  0.9016
15144TIP3    H266848  -0.025   2.343   5.674  1.8981 -0.1382  1.4732
15145TIP3   OH266849   6.054   1.144   1.067  0.0804 -0.2220 -0.7563
15145TIP3    H166850   6.044   1.237   1.088 -0.5363 -0.4677  0.0813
15145TIP3    H266851   6.148   1.127   1.076 -0.0726 -0.1919  1.4129
15146TIP3   OH266852   0.916   3.875   6.204  0.5328 -0.1780 -0.1381
15146TIP3    H166853   0.914   3.795   6.256  2.1524  0.3425  0.8088
15146TIP3    H266854   0.990   3.864   6.144 -0.6583 -0.3239 -1.6314
15147TIP3   OH266855   4.757   3.422   5.015 -0.0217  0.4704 -0.1113
15147TIP3    H166856   4.726   3.342   5.057 -0.9510  0.6441 -0.4559
15147TIP3    H266857   4.804   3.469   5.084 -1.8744  0.9463  0.8684
15148TIP3   OH266858   6.127   6.751  12.370 -0.4699 -0.3450 -0.0181
15148TIP3    H166859   6.213   6.768  12.410 -0.1665 -0.6305 -0.5450
15148TIP3    H266860   6.078   6.832  12.385  0.1310  0.0900 -0.3292
15149TIP3   OH266861   1.603   6.698  16.497  0.5224 -0.4289  0.2868
15149TIP3    H166862   1.674   6.637  16.479  2.0017  1.5533 -1.0604
15149TIP3    H266863   1.545   6.690  16.420  1.0323  0.2393 -0.1807
15150TIP3   OH266864   2.859   5.155  16.517 -0.1277  0.1016  0.5453
15150TIP3    H166865   2.936   5.167  16.573  0.7813  3.0249 -1.1207
15150TIP3    H266866   2.796   5.219  16.551 -0.1011  0.8870 -0.8414
15151TIP3   OH266867   2.858   3.583   5.421 -0.0390  0.3146 -0.3596
15151TIP3    H166868   2.782   3.585   5.480  2.0234  0.5930  2.4732
15151TIP3    H266869   2.930   3.553   5.476  1.6465 -1.6619 -3.3464
15152TIP3   OH266870   3.531   4.711  11.501 -0.4073 -0.3167  0.6638
15152TIP3    H166871   3.602   4.664  11.459  0.2594  2.5731 -1.7617
15152TIP3    H266872   3.567   4.798  11.520 -3.5699  1.8791 -2.2225
15153TIP3   OH266873   2.777   3.095   3.108 -0.0871  0.5863  0.1194
15153TIP3    H166874   2.739   3.073   3.192 -0.7121  0.1274 -0.2726
15153TIP3    H266875   2.871   3.100   3.124  0.1070 -2.1904  0.2796
15154TIP3   OH266876   0.702   3.029  16.347 -0.2489  0.1933 -0.2112
15154TIP3    H166877   0.732   3.090  16.414  1.6638 -0.6358 -0.2615
15154TIP3    H266878   0.661   2.957  16.396  0.4396 -0.0315  0.0530
15155TIP3   OH266879   2.766   3.666  14.791 -0.3127 -0.2745 -0.3368
15155TIP3    H166880   2.700   3.639  14.855  1.2151  1.3452  2.1074
15155TIP3    H266881   2.736   3.751  14.759 -0.7588 -0.8042 -1.3957
15156TIP3   OH266882   2.809   0.402  16.082 -0.1109 -0.9700 -0.0225
15156TIP3    H166883   2.817   0.491  16.048 -0.5407 -0.2323  1.6922
15156TIP3    H266884   2.899   0.375  16.101 -0.1221 -0.0919  1.3659
15157TIP3   OH266885   0.238   4.843   5.445 -0.1655 -0.5860  0.2548
15157TIP3    H166886   0.170   4.788   5.406  1.8954 -2.0474 -1.5959
15157TIP3    H266887   0.276   4.890   5.370 -0.2484  1.5632  1.4776
15158TIP3   OH266888   2.523   4.505  12.991 -0.0983  0.0240 -0.4168
15158TIP3    H166889   2.488   4.568  12.927 -0.7651 -0.9523 -1.0468
15158TIP3    H266890   2.531   4.424  12.942 -2.3957 -1.2701  1.1664
15159TIP3   OH266891   3.561   1.477   4.031 -0.5668  0.1443  0.1057
15159TIP3    H166892   3.507   1.510   3.959 -0.5015 -1.1860 -0.6048
15159TIP3    H266893   3.498   1.451   4.098 -0.9967 -2.5029 -1.1900
15160TIP3   OH266894   1.540   1.198   6.484 -0.4483 -0.3254  0.2248
15160TIP3    H166895   1.533   1.276   6.429  1.1553 -0.1897  0.1663
15160TIP3    H266896   1.484   1.134   6.441 -2.5004  1.0222  0.7682
15161TIP3   OH266897   0.224   2.396  16.127  0.1530  0.5845 -0.2442
15161TIP3    H166898   0.272   2.478  16.121 -0.2950  0.9846  1.1804
15161TIP3    H266899   0.283   2.337  16.175 -0.0105  0.4791 -0.1697
15162TIP3   OH266900   0.098   0.537   5.117 -0.2977  0.6322 -0.5477
15162TIP3    H166901   0.104   0.449   5.154 -0.1327  0.8313 -0.0963
15162TIP3    H266902   0.044   0.526   5.038 -1.1592  0.2956  0.0679
15163TIP3   OH266903   2.848   3.884  16.603 -0.1550  0.4584  0.2509
15163TIP3    H166904   2.875   3.839  16.524 -0.5238  0.6412  0.0191
15163TIP3    H266905   2.915   3.862  16.668 -1.1113 -1.6845  0.5853
15164TIP3   OH266906   3.296   1.233   0.130 -0.0189  0.2257  0.0210
15164TIP3    H166907   3.275   1.305   0.070 -0.1750  0.6459  0.5667
15164TIP3    H266908   3.229   1.167   0.114  0.3982 -0.0006 -0.8131
15165TIP3   OH266909   5.120   2.313   0.084 -0.3373  0.4841 -0.2492
15165TIP3    H166910   5.146   2.254   0.013  0.6415  0.6128 -0.0086
15165TIP3    H266911   5.167   2.281   0.161 -1.6218  0.1613  0.4263
15166TIP3   OH266912   5.795   4.791  15.476 -0.2302  0.0135  0.5259
15166TIP3    H166913   5.846   4.720  15.437  1.9133  1.8204 -0.1181
15166TIP3    H266914   5.794   4.772  15.570  1.2944 -0.2960  0.4981
15167TIP3   OH266915   5.371   4.351  14.948  0.3644  0.5468 -0.5273
15167TIP3    H166916   5.362   4.293  14.872 -0.4783  0.0732 -0.0862
15167TIP3    H266917   5.283   4.353  14.987  0.6719  1.1662  0.1551
15168TIP3   OH266918   6.011   4.865  13.186 -0.5693  0.2642 -0.1495
15168TIP3    H166919   6.090   4.911  13.158  0.3589  0.2918  2.2537
15168TIP3    H266920   5.978   4.917  13.259 -0.7364 -1.6528  1.2090
15169TIP3   OH266921   1.133   2.932   3.949 -0.3299  0.1381 -0.9047
15169TIP3    H166922   1.065   2.997   3.967  1.8826  2.1310  0.7305
15169TIP3    H266923   1.088   2.848   3.960 -2.9124  1.3195 -1.5787
15170TIP3   OH266924   4.835   0.264  11.931 -0.0787 -0.3944 -0.1027
15170TIP3    H166925   4.807   0.228  12.015 -0.3935 -1.9402 -0.8314
15170TIP3    H266926   4.845   0.188  11.874  1.4473  0.4972 -1.1040
15171TIP3   OH266927   3.818   4.722   4.930  0.2030 -0.2132 -0.0032
15171TIP3    H166928   3.813   4.771   4.848 -2.2331  0.0535  0.2410
15171TIP3    H266929   3.765   4.644   4.916 -0.3045 -0.1443  1.2997
15172TIP3   OH266930   3.616   6.063   0.634 -0.2771 -0.3819 -0.0094
15172TIP3    H166931   3.561   6.138   0.657  1.4565  1.7201 -2.1156
15172TIP3    H266932   3.641   6.025   0.718  0.5169  2.7935  1.3620
15173TIP3   OH266933   1.574   0.677   4.688 -0.5805 -0.2581  0.5560
15173TIP3    H166934   1.530   0.594   4.711  0.1038 -1.1610 -1.1815
15173TIP3    H266935   1.522   0.711   4.615 -0.3664  0.4238  0.7212
15174TIP3   OH266936   4.508   1.415  15.609  0.7911 -0.7734  0.3829
15174TIP3    H166937   4.497   1.328  15.570 -0.1417 -0.8493  0.7845
15174TIP3    H266938   4.536   1.471  15.536 -0.4594 -1.0195 -0.3247
15175TIP3   OH266939   5.266   0.317  15.373 -0.2606 -0.0932 -0.1223
15175TIP3    H166940   5.337   0.253  15.368 -0.1914  0.0232 -0.6655
15175TIP3    H266941   5.205   0.280  15.438  0.1621 -0.3205  0.1510
15176TIP3   OH266942   2.023   3.866  14.511 -0.1008 -0.3856  0.3446
15176TIP3    H166943   1.930   3.873  14.490 -0.6836 -2.7183  1.7319
15176TIP3    H266944   2.026   3.869  14.607  1.1863 -1.0030  0.3416
15177TIP3   OH266945   0.762   2.059   5.750 -0.1227 -0.4673 -0.3987
15177TIP3    H166946   0.793   1.981   5.705 -0.9848  0.9488 -3.7297
15177TIP3    H266947   0.679   2.032   5.790  0.2188 -1.5578 -0.3936
15178TIP3   OH266948   1.463   6.386  11.975  0.1489 -0.0268 -0.0595
15178TIP3    H166949   1.475   6.328  11.901  0.7346 -0.4143  0.3308
15178TIP3    H266950   1.442   6.328  12.048 -1.2769  0.4105 -0.0893
15179TIP3   OH266951   5.501   0.607  16.116 -0.3246 -0.4788  0.2213
15179TIP3    H166952   5.425   0.559  16.082 -0.7583  1.4222 -1.6826
15179TIP3    H266953   5.504   0.687  16.065  0.7904  1.2642  2.8125
15180TIP3   OH266954   2.842   0.950  13.007  0.1476 -0.1639 -0.1203
15180TIP3    H166955   2.837   1.000  13.088 -1.4222 -0.3162 -0.1022
15180TIP3    H266956   2.819   1.012  12.938  0.8546 -0.1961 -0.3937
15181TIP3   OH266957   4.587   5.022   4.436 -0.4923 -0.0893 -0.1840
15181TIP3    H166958   4.581   4.928   4.455  1.1236 -0.3711 -0.9568
15181TIP3    H266959   4.650   5.055   4.500 -1.1364  0.5142  0.1545
15182TIP3   OH266960   2.997   5.564  12.784  0.4479 -0.2214  0.3783
15182TIP3    H166961   2.908   5.592  12.760 -0.0364 -1.6454  0.4044
15182TIP3    H266962   2.998   5.567  12.879  0.3822 -0.3143  0.3828
15183TIP3   OH266963   0.814   5.010   6.217 -0.2126  0.0980  0.0609
15183TIP3    H166964   0.729   4.986   6.255  0.0206 -1.5211 -0.3386
15183TIP3    H266965   0.872   5.021   6.292 -0.3330 -0.7002  0.2854
15184TIP3   OH266966   2.472   2.505   3.514 -0.4921  0.3010 -0.6434
15184TIP3    H166967   2.474   2.417   3.553 -0.1454  0.2039 -0.8725
15184TIP3    H266968   2.436   2.491   3.427 -1.7316  0.5872 -0.1900
15185TIP3   OH266969   2.100   0.878  16.875 -0.3884  0.6272  0.8345
15185TIP3    H166970   2.105   0.794  16.919  0.7342  0.0282 -0.3847
15185TIP3    H266971   2.147   0.939  16.932 -0.2023  0.1833  1.1544
15186TIP3   OH266972   3.884   1.432  12.489 -0.2077  0.0782 -0.3481
15186TIP3    H166973   3.873   1.363  12.555  0.8336 -0.8347 -1.0890
15186TIP3    H266974   3.904   1.385  12.408 -1.0415  1.2013 -1.2361
15187TIP3   OH266975   4.178   5.999   1.445 -0.0554  0.3799 -0.9413
15187TIP3    H166976   4.083   5.993   1.454 -0.1680  0.8411 -1.7172
15187TIP3    H266977   4.198   5.949   1.366  0.6188 -1.5297  0.3505
15188TIP3   OH266978   6.547   0.990  16.850 -0.3526  0.2526  0.3460
15188TIP3    H166979   6.543   0.912  16.794  0.0809 -0.1023  0.8001
15188TIP3    H266980   6.547   0.955  16.939  1.9621  0.6315  0.5586
15189TIP3   OH266981   6.678   6.444   0.587  0.3456 -0.4881 -0.0123
15189TIP3    H166982   6.619   6.511   0.622 -0.0039 -0.6066 -0.3707
15189TIP3    H266983   6.766   6.475   0.611  0.6057  2.3299 -3.6885
15190TIP3   OH266984   0.654   6.442   6.126  0.2321 -1.1286  0.0003
15190TIP3    H166985   0.653   6.507   6.197  1.0762 -1.2250  0.1112
15190TIP3    H266986   0.562   6.426   6.107  0.0045  0.5356 -0.4346
15191TIP3   OH266987   6.644   3.970  11.165 -0.2249  0.3347 -0.1355
15191TIP3    H166988   6.560   3.975  11.211 -0.5688 -0.3526 -0.6710
15191TIP3    H266989   6.623   3.929  11.081  1.0477 -2.4197  0.7808
15192TIP3   OH266990   1.474   2.551  11.186  0.7313 -0.0287 -0.1848
15192TIP3    H166991   1.530   2.622  11.220 -1.0659  0.1124  2.7864
15192TIP3    H266992   1.385   2.586  11.191 -0.1077 -2.1012  0.3704
15193TIP3   OH266993   5.302   3.493  11.534  0.0545  0.1613  0.3275
15193TIP3    H166994   5.377   3.529  11.487  0.6185  0.4568  1.4493
15193TIP3    H266995   5.231   3.555  11.516  0.5468  0.8549  0.7373
15194TIP3   OH266996   5.843   5.900   0.426 -0.5378  0.1601 -0.0589
15194TIP3    H166997   5.920   5.952   0.449  0.1828 -0.2125 -1.4994
15194TIP3    H266998   5.834   5.837   0.498  0.4713  0.2381  0.1492
15195TIP3   OH266999   0.875   4.271   4.558  0.0451 -0.4010  0.4062
15195TIP3    H167000   0.922   4.353   4.544  1.7877 -1.5124 -0.5510
15195TIP3    H267001   0.818   4.263   4.481  0.0941 -0.2461  0.3539
15196TIP3   OH267002   0.969   3.774  16.276 -0.2753  0.0232 -0.4068
15196TIP3    H167003   0.910   3.825  16.332 -0.4096 -0.7650  0.1813
15196TIP3    H267004   0.913   3.710  16.233  0.0643 -0.3697 -0.2700
15197TIP3   OH267005   2.385   0.081  11.828  0.3908 -0.2151  0.5117
15197TIP3    H167006   2.414   0.093  11.738 -0.8084 -0.6268  0.0497
15197TIP3    H267007   2.423   0.154  11.876 -0.4145  1.0169 -0.6786
15198TIP3   OH267008   3.578   3.360   1.474  0.3615  0.7759 -0.0656
15198TIP3    H167009   3.541   3.282   1.431  0.7410  0.2155  0.6089
15198TIP3    H267010   3.673   3.349   1.464  0.4884  0.3369  1.3970
15199TIP3   OH267011   3.504   1.944  11.344 -0.9381  0.5121 -0.1827
15199TIP3    H167012   3.409   1.954  11.339 -0.9027  0.5833 -0.7186
15199TIP3    H267013   3.539   2.031  11.324 -0.7674  0.6077  0.5004
15200TIP3   OH267014   0.158   1.285  14.498 -0.1375 -0.6727 -0.0676
15200TIP3    H167015   0.086   1.259  14.440  0.1078 -2.4977  0.3695
15200TIP3    H267016   0.236   1.251  14.456  0.1926 -0.8405  0.6602
15201TIP3   OH267017   3.510   4.923  15.490 -0.1441 -0.5202 -0.3050
15201TIP3    H167018   3.570   4.898  15.560 -0.4097 -0.8208 -0.1811
15201TIP3    H267019   3.546   5.004  15.455 -1.5011  1.2357  2.0380
15202TIP3   OH267020   5.076   4.223  12.822 -0.3381  0.5609 -0.0777
15202TIP3    H167021   5.051   4.306  12.781 -0.5861  0.2004 -0.6684
15202TIP3    H267022   5.164   4.205  12.788  0.1086  1.0423  0.7810
15203TIP3   OH267023   4.678   0.524  12.334 -0.1392 -0.8154 -0.0337
15203TIP3    H167024   4.717   0.462  12.395  0.1629 -0.8556 -0.2659
15203TIP3    H267025   4.599   0.555  12.378 -0.0756 -1.0608  0.2530
15204TIP3   OH267026   2.380   6.229   2.885  0.1118  0.1578  0.0472
15204TIP3    H167027   2.348   6.310   2.925 -1.2814  0.0264 -0.7309
15204TIP3    H267028   2.424   6.183   2.956  1.2283  1.7243  0.4360
15205TIP3   OH267029   5.659   3.314   5.562  0.1401  0.0852  0.6598
15205TIP3    H167030   5.605   3.315   5.641 -0.3223  1.1554  0.3534
15205TIP3    H267031   5.603   3.353   5.495  0.5513 -0.7318 -0.1864
15206TIP3   OH267032   6.138   5.820  13.855  0.1702  0.0253 -0.2144
15206TIP3    H167033   6.111   5.741  13.809  0.5769 -0.0697 -0.2945
15206TIP3    H267034   6.178   5.874  13.787  0.1451  0.1817 -0.1049
15207TIP3   OH267035   4.709   6.088   3.567  0.1050 -0.1028 -0.1134
15207TIP3    H167036   4.714   6.179   3.538  0.9541 -0.4327 -1.0812
15207TIP3    H267037   4.636   6.050   3.517 -0.8648  0.2753  0.9932
15208TIP3   OH267038   1.538   2.359  11.364 -0.3525  0.0486 -0.3898
15208TIP3    H167039   1.496   2.407  11.293 -0.9116 -1.1548 -0.9012
15208TIP3    H267040   1.471   2.353  11.432  0.0226  0.7783  0.0556
15209TIP3   OH267041   4.716   6.127  14.670  0.6943 -0.2339 -0.3521
15209TIP3    H167042   4.732   6.140  14.764  1.3485  0.5676 -0.5602
15209TIP3    H267043   4.784   6.178  14.627  1.0174 -1.4006 -1.2696
15210TIP3   OH267044   1.550   3.977  11.482 -0.0504  0.4456 -0.1770
15210TIP3    H167045   1.542   4.013  11.571  1.3278  2.1531 -0.6835
15210TIP3    H267046   1.585   4.049  11.430 -2.2815  0.0074 -2.4958
15211TIP3   OH267047   1.742   1.772   4.349 -0.3506  0.2191  0.0396
15211TIP3    H167048   1.746   1.680   4.375 -1.1587  0.3380  0.6380
15211TIP3    H267049   1.826   1.789   4.306 -0.3713 -0.9166 -0.4876
15212TIP3   OH267050   2.825   1.420   1.300 -0.4060  0.2764  0.4001
15212TIP3    H167051   2.819   1.379   1.214  2.5684  0.6963 -0.1378
15212TIP3    H267052   2.807   1.512   1.285 -3.0138 -0.0893  0.8732
15213TIP3   OH267053   5.279   5.787   3.293 -0.5223  0.6547 -0.2676
15213TIP3    H167054   5.256   5.796   3.386  0.0048 -1.1589  0.0843
15213TIP3    H267055   5.292   5.876   3.263 -1.9965  1.3722  1.0623
15214TIP3   OH267056   2.151   3.648   1.005 -0.0982 -0.3022  0.4274
15214TIP3    H167057   2.206   3.570   1.016  1.4876  0.5941 -0.7441
15214TIP3    H267058   2.157   3.694   1.089  2.5994  0.7518 -0.2454
15215TIP3   OH267059   3.081   0.560  15.926  1.1363 -0.2790 -0.5102
15215TIP3    H167060   3.015   0.498  15.896  0.3259  0.0245  0.5818
15215TIP3    H267061   3.031   0.632  15.965  2.0957 -0.2302  0.7134
15216TIP3   OH267062   2.110   6.594   0.457 -0.1810  0.3982 -0.4171
15216TIP3    H167063   2.193   6.550   0.475 -0.5915 -0.2220 -0.0231
15216TIP3    H267064   2.062   6.534   0.400  0.7565  1.9699 -2.9933
15217TIP3   OH267065   1.767   3.476  12.906 -0.1524  0.5425 -0.2172
15217TIP3    H167066   1.730   3.544  12.963  1.8988  0.3268  1.5088
15217TIP3    H267067   1.810   3.525  12.835  0.9478  1.0805  0.7868
15218TIP3   OH267068   6.613   0.510  13.084  0.0038 -0.9210  0.5196
15218TIP3    H167069   6.658   0.542  13.006 -2.0729  0.3504 -0.2297
15218TIP3    H267070   6.664   0.434  13.111  1.9246 -0.2228 -0.8990
15219TIP3   OH267071   0.413   1.636   2.304 -0.4488 -0.0559 -0.1907
15219TIP3    H167072   0.406   1.625   2.399 -0.6735  0.8437 -0.0985
15219TIP3    H267073   0.323   1.641   2.273 -0.3614  0.6098 -0.3350
15220TIP3   OH267074   6.040   3.096  15.471  0.3130 -0.0714 -0.0313
15220TIP3    H167075   5.955   3.102  15.426  1.0863 -0.3184 -1.5571
15220TIP3    H267076   6.076   3.185  15.465  0.0347  0.1267  0.9416
15221TIP3   OH267077   0.984   3.335   0.278 -0.1981  0.0706 -0.0928
15221TIP3    H167078   0.965   3.247   0.311  0.9681  0.1943  1.0090
15221TIP3    H267079   0.989   3.325   0.183 -0.9192 -0.8678 -0.0451
15222TIP3   OH267080   2.379   6.187   0.433  0.2295 -0.0512 -0.1449
15222TIP3    H167081   2.415   6.155   0.516 -0.2780  0.4713  0.2752
15222TIP3    H267082   2.394   6.114   0.372 -0.1780 -0.7914  0.6085
15223TIP3   OH267083   4.610   4.511   5.251  0.2052 -0.3121  0.1015
15223TIP3    H167084   4.618   4.494   5.345  0.3522 -0.1619  0.1185
15223TIP3    H267085   4.572   4.432   5.215  0.7861 -0.6315  0.1862
15224TIP3   OH267086   0.677   3.654   1.608 -0.4730  0.1905  0.2134
15224TIP3    H167087   0.632   3.615   1.683  1.1086 -1.9042  0.1871
15224TIP3    H267088   0.763   3.678   1.642  0.0180 -0.1466 -0.7524
15225TIP3   OH267089   5.019   3.208  12.399 -0.6032  0.0948  0.4655
15225TIP3    H167090   4.951   3.266  12.433 -1.1381  0.5476 -1.2780
15225TIP3    H267091   4.971   3.128  12.375 -0.3466  0.0045  0.2533
15226TIP3   OH267092   4.291   2.533  16.304  0.2928  0.1419  0.3176
15226TIP3    H167093   4.205   2.561  16.334  0.3449  0.5850  0.0630
15226TIP3    H267094   4.314   2.460  16.362  0.0579  0.4782  0.8431
15227TIP3   OH267095   2.044   6.684   1.030  0.2263  0.5097  0.0274
15227TIP3    H167096   2.109   6.673   0.960 -0.2015 -2.1433 -0.0511
15227TIP3    H267097   1.960   6.676   0.986 -0.0695 -0.1593  0.7025
15228TIP3   OH267098   1.837   2.537   5.610 -0.1216 -0.3555  0.0556
15228TIP3    H167099   1.804   2.469   5.552 -0.6629  1.3625 -1.7863
15228TIP3    H267100   1.923   2.560   5.574 -0.6025  0.9506 -0.3187
15229TIP3   OH267101   2.688   6.105  11.837 -0.0738 -0.6099  0.2844
15229TIP3    H167102   2.761   6.050  11.865  0.7466  0.1135 -0.3583
15229TIP3    H267103   2.679   6.171  11.905 -0.6869 -1.1894  0.7751
15230TIP3   OH267104   4.420   5.750  17.010 -0.0674 -0.8546  0.2474
15230TIP3    H167105   4.371   5.706  17.080  1.5114 -2.2515  0.5390
15230TIP3    H267106   4.489   5.798  17.056 -0.9968  0.9656 -0.1686
15231TIP3   OH267107   2.572   2.491  14.260 -0.2570 -0.1373 -0.1578
15231TIP3    H167108   2.608   2.563  14.207 -0.8260 -0.4708 -1.0178
15231TIP3    H267109   2.499   2.531  14.308  0.3541  0.2015  0.5065
15232TIP3   OH267110   5.392   3.130  11.834 -0.2427 -0.5332 -0.0840
15232TIP3    H167111   5.485   3.108  11.824  0.3079  0.1722  2.7014
15232TIP3    H267112   5.347   3.062  11.784  1.7314  0.0590 -2.9580
15233TIP3   OH267113   2.025   4.456   5.493 -0.2472  0.3131 -0.5928
15233TIP3    H167114   2.050   4.368   5.467  2.6767  0.8656  0.0176
15233TIP3    H267115   1.939   4.445   5.534  0.3970 -2.4054  0.2591
15234TIP3   OH267116   5.529   6.081   3.103  0.4612  0.6004 -0.0804
15234TIP3    H167117   5.544   6.153   3.043  0.0491 -0.2886 -1.2935
15234TIP3    H267118   5.616   6.055   3.133  0.5842  1.8829  0.7564
15235TIP3   OH267119   3.519   1.862   3.119  0.3007  0.1342  0.4198
15235TIP3    H167120   3.481   1.807   3.188  1.6239 -0.2053  0.9106
15235TIP3    H267121   3.537   1.802   3.047 -1.1962  0.5110 -0.2907
15236TIP3   OH267122   1.315   1.902  12.249  0.7155 -0.1860  0.0562
15236TIP3    H167123   1.323   1.992  12.281  0.1947 -0.4313  0.9207
15236TIP3    H267124   1.240   1.903  12.190  0.0085 -0.2698  0.9306
15237TIP3   OH267125   4.537   5.501  14.278  0.1065 -0.1155 -0.5968
15237TIP3    H167126   4.538   5.423  14.223  1.9405  0.3957 -1.4001
15237TIP3    H267127   4.471   5.558  14.239 -1.2987 -1.2524  0.0437
15238TIP3   OH267128   3.576   0.649  11.440  0.4667 -0.6647 -0.4731
15238TIP3    H167129   3.578   0.714  11.370  2.3914 -0.0218  0.1103
15238TIP3    H267130   3.589   0.565  11.395 -1.5393 -0.6375 -1.1780
15239TIP3   OH267131   2.610   5.660  12.451  0.3549  0.0839 -0.0516
15239TIP3    H167132   2.547   5.648  12.379 -0.4844  1.7173  0.3617
15239TIP3    H267133   2.665   5.582  12.448 -1.7227 -1.4498 -0.4028
15240TIP3   OH267134   6.289   4.988  13.201 -0.1232 -0.2260  0.0856
15240TIP3    H167135   6.290   5.075  13.162  0.3479  0.0332  0.6592
15240TIP3    H267136   6.381   4.964  13.208 -0.1829 -0.1909  1.1867
15241TIP3   OH267137   5.353   5.653  12.389  0.5027 -0.4615  0.1205
15241TIP3    H167138   5.325   5.655  12.480  0.0364  0.0982 -0.0229
15241TIP3    H267139   5.389   5.566  12.376  1.8447 -0.1068  1.2055
15242TIP3   OH267140   1.857   6.461  14.213 -0.1866 -0.2357  0.3371
15242TIP3    H167141   1.878   6.403  14.140 -1.0566 -0.4521  0.2465
15242TIP3    H267142   1.816   6.403  14.278 -4.1296  0.7166 -1.0509
15243TIP3   OH267143   5.961   3.187  13.790  0.1580  0.2994 -0.1714
15243TIP3    H167144   6.001   3.201  13.876  0.7600 -0.2045 -0.3605
15243TIP3    H267145   5.983   3.266  13.740 -0.4732  0.7403  0.2330
15244TIP3   OH267146   6.363   3.414   4.828  0.2565  0.0586 -0.3278
15244TIP3    H167147   6.408   3.387   4.748  1.4033  0.2695  0.2288
15244TIP3    H267148   6.284   3.360   4.830  1.2042 -1.4011 -0.5817
15245TIP3   OH267149   5.313   5.114  15.791 -0.1933  0.2789  0.5037
15245TIP3    H167150   5.367   5.123  15.712 -0.7336  1.3383  0.2285
15245TIP3    H267151   5.256   5.040  15.773 -0.5874  0.7588 -0.2863
15246TIP3   OH267152   5.219   4.999   5.248  0.3911  0.3481 -0.4008
15246TIP3    H167153   5.219   4.911   5.209 -1.1136  0.0327  0.2612
15246TIP3    H267154   5.195   5.057   5.176 -0.6872 -0.0412 -0.3769
15247TIP3   OH267155   1.636   3.228   6.751  0.1782  0.6220 -0.1028
15247TIP3    H167156   1.694   3.172   6.803 -0.0376 -0.9391 -1.4390
15247TIP3    H267157   1.694   3.292   6.711  0.8593 -0.2619 -0.5815
15248TIP3   OH267158   1.846   0.484  12.826  0.0068  0.2509 -0.0018
15248TIP3    H167159   1.778   0.488  12.894 -1.0924 -2.7864 -0.7571
15248TIP3    H267160   1.827   0.559  12.769 -2.8918 -0.5436 -0.2684
15249TIP3   OH267161   0.253   5.204  13.204 -0.2260  0.1581 -0.2192
15249TIP3    H167162   0.310   5.247  13.140  0.0959 -0.3527 -0.2869
15249TIP3    H267163   0.232   5.119  13.164 -1.1431  0.3842 -0.2506
15250TIP3   OH267164   5.147   2.475  16.569 -0.8058 -0.3093 -0.4445
15250TIP3    H167165   5.055   2.480  16.594 -0.5678  0.7166  0.2964
15250TIP3    H267166   5.153   2.526  16.488 -0.8924 -0.3716 -0.4901
15251TIP3   OH267167   5.927   6.727   4.377  0.1368  0.0886  0.5091
15251TIP3    H167168   5.966   6.746   4.292 -2.6140 -0.1318 -0.9163
15251TIP3    H267169   5.910   6.633   4.375  1.1176 -0.1453  1.8354
15252TIP3   OH267170   2.970   5.833   1.934  1.1994 -0.1307  0.2685
15252TIP3    H167171   3.043   5.863   1.880  1.0566 -0.8990 -0.3562
15252TIP3    H267172   2.984   5.739   1.943  1.8789  0.1217  2.5585
15253TIP3   OH267173   1.433   5.924   0.823 -0.0719  0.3344  0.4817
15253TIP3    H167174   1.498   5.918   0.752  0.8902  0.8368  1.2913
15253TIP3    H267175   1.349   5.922   0.778  0.4958 -0.3626 -0.6021
15254TIP3   OH267176   4.163   5.311   3.205 -0.3514 -0.4827  0.4733
15254TIP3    H167177   4.217   5.241   3.167  0.1045  0.2757 -0.3238
15254TIP3    H267178   4.160   5.291   3.299  0.7665 -0.9244  0.4354
15255TIP3   OH267179   3.941   0.569   3.983 -0.6503  0.3092 -0.6101
15255TIP3    H167180   3.995   0.493   4.008 -0.4620  0.9117  0.9688
15255TIP3    H267181   3.881   0.536   3.917  1.0117 -0.6266 -1.7429
15256TIP3   OH267182   2.613   2.427   6.008 -0.0302  0.2535 -0.1701
15256TIP3    H167183   2.534   2.388   6.046 -1.7347  1.7087 -1.9582
15256TIP3    H267184   2.630   2.374   5.930 -0.0642  0.7508 -0.5218
15257TIP3   OH267185   6.026   0.529  15.748  0.1105  0.1244  0.1446
15257TIP3    H167186   6.056   0.609  15.703  0.3496 -0.8992 -1.6256
15257TIP3    H267187   6.089   0.516  15.819  0.3230  1.2589  0.1853
15258TIP3   OH267188   3.806   1.453  11.067  0.2415 -0.7569  0.3870
15258TIP3    H167189   3.791   1.545  11.089 -0.4615 -0.9886  0.9303
15258TIP3    H267190   3.898   1.438  11.086  0.4340 -0.0842 -0.0057
15259TIP3   OH267191   4.220   4.150  13.862 -0.5592  0.0867 -0.4015
15259TIP3    H167192   4.144   4.150  13.920 -0.5940  0.3468 -0.4472
15259TIP3    H267193   4.280   4.085  13.901 -1.7072 -1.7419 -1.5452
15260TIP3   OH267194   2.115   2.574   3.784 -0.9338 -0.1478 -0.4331
15260TIP3    H167195   2.021   2.582   3.795 -0.8132  1.7259 -0.4792
15260TIP3    H267196   2.126   2.524   3.703 -1.8807  0.1739 -0.7665
15261TIP3   OH267197   6.487   1.411  13.174  0.0161  0.0512 -0.2003
15261TIP3    H167198   6.434   1.490  13.162  2.4042  1.7244 -0.2888
15261TIP3    H267199   6.422   1.341  13.183 -2.1976  1.9052 -0.6188
15262TIP3   OH267200   2.292   4.073   4.749 -0.0475  0.6662 -0.7593
15262TIP3    H167201   2.246   4.113   4.823 -0.2139 -0.6569 -0.1020
15262TIP3    H267202   2.239   3.996   4.727  1.1274 -0.1485 -0.8537
15263TIP3   OH267203   1.609   4.042  15.480 -0.3350  0.0319 -0.8975
15263TIP3    H167204   1.568   3.960  15.510 -0.8393  0.8810  0.8923
15263TIP3    H267205   1.696   4.041  15.521  0.1758 -0.1976 -1.9530
15264TIP3   OH267206   4.980   5.842   5.176 -0.1984  0.1997 -0.3060
15264TIP3    H167207   4.989   5.898   5.253 -0.9682 -0.6625  0.4351
15264TIP3    H267208   5.018   5.758   5.203 -2.5857 -0.8796  0.0299
15265TIP3   OH267209   0.667   0.432  11.448  0.4379 -0.3318  0.4258
15265TIP3    H167210   0.629   0.441  11.535  2.5460  0.1152  1.3698
15265TIP3    H267211   0.638   0.509  11.400  0.6059  0.2851  1.2996
15266TIP3   OH267212   2.053   1.694  13.210 -0.1912 -0.2072 -0.8023
15266TIP3    H167213   2.093   1.635  13.274  0.7999  0.8023 -0.4653
15266TIP3    H267214   2.108   1.772  13.211 -0.4469  0.0366 -2.5343
15267TIP3   OH267215   2.486   4.928   4.275 -0.5307  0.1488 -0.5720
15267TIP3    H167216   2.512   4.920   4.183 -2.0318 -0.2765 -0.9970
15267TIP3    H267217   2.468   5.021   4.286  0.7126  0.3823 -0.3816
15268TIP3   OH267218   6.508   5.333   1.290 -0.4471 -0.0516  0.5436
15268TIP3    H167219   6.600   5.352   1.272 -1.1029  1.9951 -1.0721
15268TIP3    H267220   6.497   5.242   1.264  1.1949 -0.4444  1.1308
15269TIP3   OH267221   4.634   1.443   6.103 -0.0830 -0.7577 -0.4507
15269TIP3    H167222   4.649   1.443   6.198  0.3599 -0.4842 -0.5209
15269TIP3    H267223   4.687   1.516   6.070 -0.7120 -0.4684 -0.8352
15270TIP3   OH267224   1.335   3.573  13.432  0.0855 -0.1101 -0.0808
15270TIP3    H167225   1.361   3.550  13.343 -0.6310  2.0281 -0.9165
15270TIP3    H267226   1.240   3.566  13.433  0.1200 -0.6231  0.6831
15271TIP3   OH267227   0.622   0.082  11.385  0.3749 -0.1889 -0.4043
15271TIP3    H167228   0.657   0.043  11.465  0.8330  1.9531  0.4852
15271TIP3    H267229   0.559   0.147  11.415 -1.5011 -1.2020 -1.8919
15272TIP3   OH267230   3.133   1.206  11.885 -0.2687 -0.6461 -0.3650
15272TIP3    H167231   3.194   1.275  11.859 -0.4904 -1.8315 -4.6927
15272TIP3    H267232   3.046   1.245  11.875 -0.3815 -0.4481  1.0888
15273TIP3   OH267233   4.686   0.319  16.843  0.2571  0.1092 -0.1834
15273TIP3    H167234   4.754   0.283  16.786  1.6367  1.6216  0.4383
15273TIP3    H267235   4.628   0.245  16.859  0.0085 -0.5038 -3.1816
15274TIP3   OH267236   4.608   4.382  15.146  0.1353  0.2210  0.5647
15274TIP3    H167237   4.526   4.429  15.155  1.1099  2.0885  0.2948
15274TIP3    H267238   4.623   4.377  15.051  0.3292 -0.0834  0.6097
15275TIP3   OH267239   4.365   1.454  10.373 -0.4349  0.0196 -0.4073
15275TIP3    H167240   4.370   1.549  10.377 -2.2411  0.2057 -1.6494
15275TIP3    H267241   4.451   1.424  10.403  0.2300  2.0348 -0.1947
15276TIP3   OH267242   1.044   2.361  11.647 -0.5500  0.0989  0.4742
15276TIP3    H167243   0.971   2.410  11.609  0.2442  0.3930 -0.7040
15276TIP3    H267244   1.120   2.417  11.634  0.4481 -1.5663 -1.2503
15277TIP3   OH267245   5.233   4.744  13.549  0.4637  0.1784 -0.0226
15277TIP3    H167246   5.295   4.745  13.623 -0.1158 -2.4472  0.6133
15277TIP3    H267247   5.281   4.786  13.477  3.0589 -1.7078  0.4444
15278TIP3   OH267248   4.099   3.108   1.187 -0.4174  0.5279 -0.1847
15278TIP3    H167249   4.083   3.175   1.121 -2.7896  0.5629  0.3404
15278TIP3    H267250   4.172   3.143   1.239 -0.1844  1.6653 -1.2305
15279TIP3   OH267251   4.204   3.091  15.217  0.1927  0.8886 -0.5250
15279TIP3    H167252   4.137   3.055  15.158 -0.5269 -0.5987  1.1114
15279TIP3    H267253   4.287   3.075  15.171 -0.3908  0.5505 -1.4986
15280TIP3   OH267254   4.329   5.252   2.608  0.2102 -0.2307  0.1953
15280TIP3    H167255   4.269   5.192   2.653 -0.4635 -1.7580 -2.5480
15280TIP3    H267256   4.287   5.338   2.616 -1.6512 -1.0367 -0.4691
15281TIP3   OH267257   2.522   4.644   4.782  0.4392  0.2705 -0.3249
15281TIP3    H167258   2.562   4.654   4.869 -0.3727  0.6612  0.0145
15281TIP3    H267259   2.436   4.684   4.791 -0.9039 -2.4395 -0.4279
15282TIP3   OH267260   2.903   2.885   2.135  0.1604 -0.1174  0.3637
15282TIP3    H167261   2.955   2.869   2.056 -0.1028 -0.7587  0.3114
15282TIP3    H267262   2.812   2.890   2.103 -0.0866 -1.6309  0.7627
15283TIP3   OH267263   3.749   2.380   0.811  0.5967 -0.2483  0.6370
15283TIP3    H167264   3.808   2.446   0.848 -1.2071  1.3419  0.8418
15283TIP3    H267265   3.740   2.404   0.719 -0.6119  0.2739  0.8680
15284TIP3   OH267266   1.510   2.309   4.453 -0.1970 -0.3415  0.5304
15284TIP3    H167267   1.543   2.304   4.363  0.3758 -0.3204  0.7327
15284TIP3    H267268   1.577   2.264   4.505 -0.1120  0.3712  1.0524
15285TIP3   OH267269   0.587   0.219   1.944 -0.2623 -0.6999 -0.1433
15285TIP3    H167270   0.614   0.302   1.982 -1.0393 -0.0686 -0.9060
15285TIP3    H267271   0.548   0.170   2.016 -1.6162  0.4287 -0.0590
15286TIP3   OH267272   5.036   6.072  11.216  0.3161  0.2566  1.2381
15286TIP3    H167273   5.065   6.162  11.228 -0.5279  0.8024 -0.4709
15286TIP3    H267274   5.110   6.019  11.245  1.6234  1.5274  0.3839
15287TIP3   OH267275   4.647   5.883  13.305 -0.4124 -0.1626 -0.1347
15287TIP3    H167276   4.658   5.788  13.299 -0.3058 -0.1345 -0.4192
15287TIP3    H267277   4.615   5.909  13.218  1.2332  0.2802 -0.6358
15288TIP3   OH267278   2.473   2.615   4.646  0.1766  0.7303  0.3190
15288TIP3    H167279   2.548   2.581   4.599  0.5815 -0.3137  1.6500
15288TIP3    H267280   2.425   2.537   4.675 -0.4920  1.3429  0.9206
15289TIP3   OH267281   6.138   0.146   4.354 -0.7144  0.2320  0.0098
15289TIP3    H167282   6.194   0.081   4.310 -0.0219  0.1617  0.9682
15289TIP3    H267283   6.188   0.227   4.349 -1.3728  0.5967 -0.7746
15290TIP3   OH267284   3.349   6.497  14.839  0.0774 -0.0233 -0.0113
15290TIP3    H167285   3.284   6.429  14.820  1.8406 -2.5160  2.0897
15290TIP3    H267286   3.318   6.574  14.792 -3.8155 -1.3321  0.0496
15291TIP3   OH267287   2.148   1.481   4.610  0.5960  0.2666 -0.2602
15291TIP3    H167288   2.187   1.395   4.628  0.0883 -0.2669 -1.5838
15291TIP3    H267289   2.215   1.527   4.559  0.2112  0.0244 -0.9883
15292TIP3   OH267290   6.538   1.461  12.136  0.1586  0.4141  0.7132
15292TIP3    H167291   6.588   1.388  12.170  0.2387  0.1398  0.0248
15292TIP3    H267292   6.534   1.446  12.041  0.3791  1.4233  0.5311
15293TIP3   OH267293   4.738   6.322  15.430  0.1225  0.3044  0.1774
15293TIP3    H167294   4.655   6.346  15.390 -0.0143 -2.0883 -1.1659
15293TIP3    H267295   4.716   6.301  15.520 -0.4873  0.9155  0.1770
15294TIP3   OH267296   0.680   6.129   1.497  0.4725  0.3974  0.0118
15294TIP3    H167297   0.628   6.084   1.563 -2.0112  3.1878  0.1718
15294TIP3    H267298   0.770   6.123   1.529 -0.1317 -1.7528  1.5019
15295TIP3   OH267299   2.770   1.385  13.107 -0.2947 -0.1005 -0.0535
15295TIP3    H167300   2.796   1.347  13.023  0.5447  1.0883 -0.3643
15295TIP3    H267301   2.825   1.463  13.116  0.3800 -0.7364  2.0851
15296TIP3   OH267302   3.699   0.569   5.655 -0.2650 -0.0969 -0.1371
15296TIP3    H167303   3.786   0.543   5.625 -0.9305 -1.7268 -0.7597
15296TIP3    H267304   3.638   0.523   5.597 -1.5602  0.6947  0.5285
15297TIP3   OH267305   1.052   3.466  13.658  0.3264 -0.0511  0.2385
15297TIP3    H167306   1.113   3.392  13.658 -1.1949 -1.3427  0.3045
15297TIP3    H267307   1.034   3.482  13.565  1.0968  0.6368  0.1973
15298TIP3   OH267308   6.527   2.547   3.050 -0.0824  0.0553  0.3980
15298TIP3    H167309   6.563   2.626   3.011 -0.0488  0.7735  1.8311
15298TIP3    H267310   6.601   2.487   3.056 -0.3404 -0.5687 -1.7487
15299TIP3   OH267311   0.353   6.569  16.040  0.0637  0.4365 -0.1474
15299TIP3    H167312   0.257   6.564  16.040  0.0765  0.2027  0.0596
15299TIP3    H267313   0.382   6.479  16.029  0.2634  0.3571  0.8928
15300TIP3   OH267314   1.585   0.004   1.246  0.4060  0.2878  0.0116
15300TIP3    H167315   1.677   0.021   1.224  1.2165 -0.8759  2.1203
15300TIP3    H267316   1.545  -0.024   1.164  2.4838 -1.1344 -0.6128
15301TIP3   OH267317   3.313   5.222   1.790  0.1217  0.3698  0.4327
15301TIP3    H167318   3.320   5.159   1.718 -3.7260 -0.3365  0.4665
15301TIP3    H267319   3.277   5.172   1.862 -2.5247  2.3948  0.6518
15302TIP3   OH267320   1.147   4.449   6.305 -0.2067  0.6618 -0.6707
15302TIP3    H167321   1.146   4.531   6.256  0.2781  0.0023 -1.8267
15302TIP3    H267322   1.126   4.474   6.395  0.8567  2.1732 -0.8146
15303TIP3   OH267323   6.135   0.529  15.326 -0.2651 -0.5674 -0.0204
15303TIP3    H167324   6.169   0.514  15.414 -1.5532 -2.2818  0.2291
15303TIP3    H267325   6.054   0.578  15.340 -1.8342 -2.9981  0.0323
15304TIP3   OH267326   0.981   2.892  12.268 -0.2541 -0.1961  0.2981
15304TIP3    H167327   1.015   2.960  12.210 -2.6782  0.4555 -0.4737
15304TIP3    H267328   0.941   2.827  12.210  1.3554 -1.9767  1.0611
15305TIP3   OH267329   3.866   6.637  16.581  0.4081  0.1308 -0.7007
15305TIP3    H167330   3.789   6.690  16.558  0.4495 -1.1715 -4.5968
15305TIP3    H267331   3.932   6.701  16.609 -1.4315  1.4480  0.9186
15306TIP3   OH267332   4.543   6.116  15.912  0.0918  0.2848  0.3821
15306TIP3    H167333   4.612   6.089  15.851 -0.2431 -0.8698  0.4877
15306TIP3    H267334   4.573   6.084  15.998  0.4950  1.7755  0.8312
15307TIP3   OH267335   5.024   1.089  13.780 -0.5724 -0.2396  0.2307
15307TIP3    H167336   4.962   1.034  13.734 -1.7282  1.3355 -0.1809
15307TIP3    H267337   5.098   1.032  13.799 -0.7986 -1.3805 -2.0312
15308TIP3   OH267338   5.726   2.181  12.812  0.6133 -0.3251 -0.2507
15308TIP3    H167339   5.701   2.207  12.724  1.1304  0.6202 -0.1316
15308TIP3    H267340   5.698   2.090  12.819 -0.4714 -0.0674 -0.9889
15309TIP3   OH267341   3.732   5.904   0.455  0.2735 -0.5220  0.1084
15309TIP3    H167342   3.701   5.973   0.513  0.9499  1.8232 -2.1156
15309TIP3    H267343   3.827   5.908   0.462  0.4056  0.4020 -1.7147
15310TIP3   OH267344   3.235   0.828   5.033  0.3684 -0.6629 -0.1478
15310TIP3    H167345   3.285   0.910   5.035 -0.6167 -0.0566  0.7973
15310TIP3    H267346   3.143   0.856   5.041  0.0652 -1.8863  1.0320
15311TIP3   OH267347   4.520   3.668   0.358  0.8386  0.6428 -0.2509
15311TIP3    H167348   4.550   3.663   0.267  0.5822  0.0296 -0.3079
15311TIP3    H267349   4.472   3.586   0.372  1.0994  0.6119  0.5164
15312TIP3   OH267350   2.894   4.132   0.976 -0.0028  0.0462  0.8816
15312TIP3    H167351   2.968   4.110   0.920 -1.4098 -0.4752 -0.8386
15312TIP3    H267352   2.879   4.053   1.028 -1.4965 -1.1825 -1.2719
15313TIP3   OH267353   1.393   4.055  12.146 -0.5879  0.2757 -0.1222
15313TIP3    H167354   1.371   4.058  12.053 -1.8765  0.2870  0.1581
15313TIP3    H267355   1.399   3.962  12.167 -1.4040  0.2355 -0.0007
15314TIP3   OH267356   0.792   1.824   5.634 -0.3907 -0.4734  0.0444
15314TIP3    H167357   0.826   1.808   5.546 -0.2306  0.0122  0.0176
15314TIP3    H267358   0.764   1.738   5.665 -0.3375 -0.6633 -0.4359
15315TIP3   OH267359   5.960   5.109   2.470 -0.2684  0.1095 -0.5351
15315TIP3    H167360   5.888   5.063   2.425  1.8006 -0.7939 -3.2147
15315TIP3    H267361   6.009   5.150   2.399  0.2786  3.2051  1.4524
15316TIP3   OH267362   1.328   1.485   3.602  0.5030 -0.0788 -0.1627
15316TIP3    H167363   1.336   1.567   3.555  1.1533 -0.8562 -1.4432
15316TIP3    H267364   1.394   1.428   3.563  0.2436 -1.1311  0.8819
15317TIP3   OH267365   6.311   1.347  15.537 -0.3392  0.2176 -0.2607
15317TIP3    H167366   6.306   1.277  15.602 -0.7331 -0.8848 -1.4363
15317TIP3    H267367   6.220   1.360  15.508 -0.1161  0.3312 -0.9425
15318TIP3   OH267368   3.814   3.584   1.436 -0.3006 -0.1761 -0.6247
15318TIP3    H167369   3.869   3.647   1.390  1.3017 -1.0462  0.0282
15318TIP3    H267370   3.865   3.559   1.513 -2.5188  0.5501  1.1899
15319TIP3   OH267371   1.742   1.852   4.635 -0.1450  0.0942 -0.3228
15319TIP3    H167372   1.718   1.831   4.545 -0.7407 -1.3095  0.1355
15319TIP3    H267373   1.817   1.911   4.627  1.4494 -2.0195 -1.7244
15320TIP3   OH267374   1.158   5.198  15.285 -0.0723 -1.1859  0.2312
15320TIP3    H167375   1.174   5.104  15.281  1.1637 -1.0723  1.5358
15320TIP3    H267376   1.245   5.237  15.287 -0.5490 -0.1008  1.1079
15321TIP3   OH267377   6.342   6.594  14.950 -0.0672 -0.0278  0.0533
15321TIP3    H167378   6.250   6.611  14.973 -0.2118  1.5305 -1.4162
15321TIP3    H267379   6.389   6.601  15.033 -1.2954 -1.1860  0.8880
15322TIP3   OH267380   2.661   4.273   0.478 -0.2259  0.2396  0.4149
15322TIP3    H167381   2.635   4.180   0.478  0.1010  0.1486 -0.3991
15322TIP3    H267382   2.718   4.281   0.555  0.5905 -0.4742 -0.1006
15323TIP3   OH267383   4.607   4.777   2.846 -0.3624 -0.3716 -1.2543
15323TIP3    H167384   4.702   4.768   2.839 -0.2506  0.1021 -0.4751
15323TIP3    H267385   4.578   4.803   2.759  0.0257 -2.0560 -1.9315
15324TIP3   OH267386   6.287   4.419  15.455  0.6841 -0.0830 -0.4937
15324TIP3    H167387   6.274   4.336  15.409 -0.0514 -1.1356  1.4772
15324TIP3    H267388   6.209   4.428  15.510  2.2531  0.1540  1.8614
15325TIP3   OH267389   5.884   1.665   1.495 -0.5405 -0.1112 -0.6660
15325TIP3    H167390   5.878   1.731   1.564 -0.1972 -0.7342 -0.0253
15325TIP3    H267391   5.842   1.706   1.419 -0.0102  0.9856 -0.3969
15326TIP3   OH267392   2.787   5.456  16.801 -0.0402  0.5758  0.5957
15326TIP3    H167393   2.835   5.416  16.874  0.3838 -0.2506 -0.1176
15326TIP3    H267394   2.854   5.494  16.746 -0.3073  0.5801  0.2689
15327TIP3   OH267395   6.624   5.563  16.989 -0.4254 -0.4430 -0.2429
15327TIP3    H167396   6.546   5.547  17.042 -1.8881  2.3184 -1.3443
15327TIP3    H267397   6.598   5.536  16.901  0.5360 -1.1818 -0.3181
15328TIP3   OH267398   2.763   2.246   1.120  0.1717 -0.0024 -0.2966
15328TIP3    H167399   2.829   2.178   1.107 -0.9241 -1.0604 -0.5923
15328TIP3    H267400   2.745   2.279   1.032  0.9187  0.9059 -0.1206
15329TIP3   OH267401   2.114   3.671  15.540 -0.1949 -0.2303  0.3876
15329TIP3    H167402   2.056   3.608  15.497  0.1700 -0.2021 -0.1442
15329TIP3    H267403   2.066   3.754  15.536 -1.2063 -0.6770  2.1317
15330TIP3   OH267404   1.437   5.710   0.393  0.6103 -0.0492  0.0084
15330TIP3    H167405   1.504   5.655   0.433  0.8180  0.6745  0.6738
15330TIP3    H267406   1.473   5.798   0.394 -0.3162  0.3478  0.3264
15331TIP3   OH267407   5.574   0.845  15.466  0.5574  0.3400 -0.3189
15331TIP3    H167408   5.576   0.890  15.550 -0.8299 -0.3047  0.0962
15331TIP3    H267409   5.524   0.765  15.483 -0.7669  0.7355 -1.9985
15332TIP3   OH267410   1.627   6.223   2.803 -0.2061 -0.4290  0.3882
15332TIP3    H167411   1.702   6.282   2.804 -0.4404 -0.1273  1.9338
15332TIP3    H267412   1.611   6.207   2.710 -0.6229  2.5947 -0.1830
15333TIP3   OH267413   4.322   3.141   6.042  0.0253 -0.6727  0.3472
15333TIP3    H167414   4.391   3.186   6.091 -1.6736  1.6371  0.8110
15333TIP3    H267415   4.346   3.153   5.950 -0.3260  1.2094  0.4617
15334TIP3   OH267416   0.404   5.748   3.043 -0.2936 -0.1586  0.2041
15334TIP3    H167417   0.435   5.810   2.977 -1.0353  0.3841  0.3495
15334TIP3    H267418   0.384   5.668   2.994 -0.8471  0.2434 -0.2432
15335TIP3   OH267419   5.932   1.250   3.541  0.0630 -0.5772 -0.0483
15335TIP3    H167420   5.971   1.311   3.479  0.0839 -0.7173 -0.1751
15335TIP3    H267421   5.997   1.240   3.610  0.4649 -1.1883 -0.5050
15336TIP3   OH267422   4.291   1.612   6.182 -0.1283 -0.0190 -0.7493
15336TIP3    H167423   4.315   1.628   6.273  0.0110 -1.0468 -0.5914
15336TIP3    H267424   4.306   1.518   6.169  0.4202  0.2095 -1.9929
15337TIP3   OH267425   2.254   0.195  12.805  0.3834 -0.0892 -0.0795
15337TIP3    H167426   2.280   0.270  12.752  1.9803 -0.1505  0.5465
15337TIP3    H267427   2.163   0.211  12.827 -0.8235 -0.7286 -3.9206
15338TIP3   OH267428   3.703   6.616   1.311 -0.2484 -0.3409  0.1260
15338TIP3    H167429   3.647   6.694   1.311  1.3618  0.8530  0.5401
15338TIP3    H267430   3.727   6.605   1.403 -1.9217 -2.4756  0.3966
15339TIP3   OH267431   4.930   4.716  15.367 -0.1604  0.2221  0.2453
15339TIP3    H167432   4.911   4.637  15.316  0.0500  0.9688 -1.0289
15339TIP3    H267433   4.991   4.765  15.313  0.4944  0.8088  1.4760
15340TIP3   OH267434   6.526   5.078  16.284 -0.1979  0.6625 -0.1661
15340TIP3    H167435   6.482   5.074  16.368 -0.8748 -0.2106 -0.5434
15340TIP3    H267436   6.507   5.166  16.250  0.9713  1.4143  1.0328
15341TIP3   OH267437   4.805   0.651  15.821  0.5115  0.2614  0.3492
15341TIP3    H167438   4.789   0.735  15.778  0.9228  0.6571  0.9623
15341TIP3    H267439   4.718   0.611  15.828  0.5084 -0.1419 -1.4868
15342TIP3   OH267440   2.294   1.806   5.019 -0.0994  0.4319 -0.2311
15342TIP3    H167441   2.361   1.738   5.022 -1.0148 -0.5204 -0.8148
15342TIP3    H267442   2.239   1.783   4.944 -1.3016  0.9709  0.4545
15343TIP3   OH267443   5.232   6.647   3.913  0.1773  0.5141 -0.1770
15343TIP3    H167444   5.303   6.583   3.907 -0.2552  0.0125 -0.0448
15343TIP3    H267445   5.153   6.596   3.895  0.0043  1.4447 -2.3446
15344TIP3   OH267446   1.296   1.397  12.981  0.5842 -0.5593 -0.0200
15344TIP3    H167447   1.327   1.360  13.065 -0.3125  0.3943  0.7473
15344TIP3    H267448   1.307   1.325  12.919 -1.9732 -2.5399  1.5969
15345TIP3   OH267449   4.410   5.371  16.505 -0.2806  0.3978  0.1088
15345TIP3    H167450   4.424   5.279  16.481  1.4888  0.2175  1.5703
15345TIP3    H267451   4.337   5.369  16.567 -0.2843 -0.0163  0.0976
15346TIP3   OH267452   6.118   1.490   5.364  0.3682 -0.9544 -0.1929
15346TIP3    H167453   6.130   1.449   5.278  0.1099 -0.8439 -0.2830
15346TIP3    H267454   6.207   1.509   5.394  0.4348 -0.2634 -0.7948
15347TIP3   OH267455   5.080   0.396   0.938 -0.1679  0.2390 -0.6105
15347TIP3    H167456   5.083   0.492   0.936  0.2945  0.2189 -1.4029
15347TIP3    H267457   5.167   0.369   0.965 -0.3530  0.0400 -0.2069
15348TIP3   OH267458   6.374   1.840   4.954 -0.1726  0.1556 -0.6585
15348TIP3    H167459   6.390   1.878   5.041  2.4663  0.6663 -1.3029
15348TIP3    H267460   6.382   1.913   4.893  0.2936 -0.5889 -1.5191
15349TIP3   OH267461   0.503   2.872   6.496  0.6936 -0.1421 -0.0828
15349TIP3    H167462   0.568   2.804   6.516 -0.0554 -1.2128 -1.0827
15349TIP3    H267463   0.545   2.928   6.431  0.4334 -1.2275 -1.2347
15350TIP3   OH267464   6.623   1.042   1.109  1.0143  0.0313 -0.2634
15350TIP3    H167465   6.616   1.092   1.190  0.7263  1.4007 -1.1183
15350TIP3    H267466   6.614   1.106   1.039 -0.9580 -1.3870 -1.4240
15351TIP3   OH267467   2.836   1.849  16.571  0.0690  0.2670  0.3441
15351TIP3    H167468   2.921   1.877  16.539  0.6450 -3.0055 -1.4157
15351TIP3    H267469   2.774   1.875  16.503  0.2431 -0.5312 -0.1307
15352TIP3   OH267470   4.735   5.663   4.779 -0.4875 -0.4562 -0.2970
15352TIP3    H167471   4.770   5.617   4.855  0.7388  0.0576 -0.5282
15352TIP3    H267472   4.729   5.754   4.807 -1.4980 -0.5011 -0.3260
15353TIP3   OH267473   3.692   5.009   2.359 -0.2471  0.3006 -0.0939
15353TIP3    H167474   3.727   5.086   2.404 -2.3679  0.2289  1.8417
15353TIP3    H267475   3.606   5.038   2.326 -0.6760 -0.9667 -0.1447
15354TIP3   OH267476   2.747   6.789   6.192  0.8876  0.4886 -0.1276
15354TIP3    H167477   2.662   6.754   6.164  0.6078  1.9767 -1.2865
15354TIP3    H267478   2.727   6.876   6.227  1.9647  0.9949 -0.7293
15355TIP3   OH267479   5.781   1.517  15.338 -0.8278 -0.2096  0.9788
15355TIP3    H167480   5.836   1.515  15.416 -1.7277 -0.3699  1.6159
15355TIP3    H267481   5.816   1.590  15.286  1.6417 -1.8750  0.1191
15356TIP3   OH267482   3.291   5.444   1.954 -0.2237  0.2435 -0.8994
15356TIP3    H167483   3.296   5.356   1.916 -2.4747 -0.4697  0.2709
15356TIP3    H267484   3.275   5.429   2.047 -1.2036  1.8795 -0.7636
15357TIP3   OH267485   2.620   3.084   1.678 -0.6232 -0.4226 -0.7606
15357TIP3    H167486   2.607   3.159   1.620  0.2122 -0.0954 -0.5359
15357TIP3    H267487   2.702   3.045   1.649 -1.3832 -1.6617 -1.3088
15358TIP3   OH267488   5.489   0.545  12.911 -0.6456  0.7149 -0.0771
15358TIP3    H167489   5.494   0.465  12.860  0.6059  0.2851  0.6864
15358TIP3    H267490   5.444   0.519  12.992  0.8532  0.4693  0.7035
15359TIP3   OH267491   2.892   3.206  15.759 -0.6829  0.5843  0.0277
15359TIP3    H167492   2.957   3.247  15.701 -1.4255  0.6974 -0.7376
15359TIP3    H267493   2.869   3.275  15.821  0.5642  0.2848  0.8746
15360TIP3   OH267494   5.500   5.421  15.355 -0.2353 -0.4618  0.7762
15360TIP3    H167495   5.530   5.448  15.442  0.0626 -1.0331  0.8559
15360TIP3    H267496   5.571   5.365  15.321 -0.1630  0.0827 -0.0024
15361TIP3   OH267497   3.649   4.320  12.261 -0.1750 -0.2915 -0.1141
15361TIP3    H167498   3.683   4.409  12.268 -0.8470 -0.0664  0.4005
15361TIP3    H267499   3.627   4.296  12.351 -1.2122 -0.4884 -0.4144
15362TIP3   OH267500   5.883   0.760  13.329  0.1965  0.0739  0.1621
15362TIP3    H167501   5.897   0.710  13.248 -0.5577  1.2753 -0.7420
15362TIP3    H267502   5.797   0.732  13.360 -0.0567  0.5068 -0.1356
15363TIP3   OH267503   1.818   5.408  15.287  0.2386 -0.1886  0.2747
15363TIP3    H167504   1.727   5.427  15.311  0.3374 -0.4449  0.8623
15363TIP3    H267505   1.823   5.312  15.287  0.8861 -0.1837  1.7575
15364TIP3   OH267506   4.245   3.500   1.076  0.5347 -0.2046 -0.1652
15364TIP3    H167507   4.264   3.540   0.991  0.0838 -1.2237 -0.7611
15364TIP3    H267508   4.311   3.432   1.086  0.9459  0.2969  0.5779
15365TIP3   OH267509   5.990   3.931   0.655 -0.3583 -0.7073 -0.3377
15365TIP3    H167510   5.999   3.851   0.706  0.9422 -0.7229 -0.5597
15365TIP3    H267511   5.994   3.902   0.564 -1.9326 -0.5969 -0.4674
15366TIP3   OH267512   5.479   4.257  14.499 -0.4039 -0.1673  0.0266
15366TIP3    H167513   5.467   4.211  14.416  1.1108 -2.6807  1.1091
15366TIP3    H267514   5.520   4.340  14.475  2.4912 -1.9115 -1.6400
15367TIP3   OH267515   1.529   5.103  15.225 -0.4019 -0.0202  0.1411
15367TIP3    H167516   1.616   5.101  15.264  0.3143  1.1211 -1.3108
15367TIP3    H267517   1.471   5.075  15.295  0.9820  0.5377  1.5623
15368TIP3   OH267518   3.680   4.599  14.061 -0.1125 -0.0999  0.3478
15368TIP3    H167519   3.760   4.547  14.068 -0.8359 -1.1347  1.3022
15368TIP3    H267520   3.673   4.620  13.968  1.2768  0.0458  0.2565
15369TIP3   OH267521   5.769   4.195   4.194  0.4089 -0.2339  0.1702
15369TIP3    H167522   5.732   4.282   4.179  1.2518  0.0787 -0.1364
15369TIP3    H267523   5.802   4.198   4.284 -0.0662 -0.4248  0.3529
15370TIP3   OH267524   3.425   4.673   1.349 -0.6584  0.5827  0.0028
15370TIP3    H167525   3.453   4.745   1.293 -1.1060  1.0319  0.3411
15370TIP3    H267526   3.444   4.594   1.298 -1.1936  0.9827 -0.8555
15371TIP3   OH267527   0.848   5.603   1.493  0.3706  0.5644  0.3516
15371TIP3    H167528   0.931   5.558   1.510  0.6701  0.3951 -1.3856
15371TIP3    H267529   0.794   5.584   1.570  0.7114 -2.2563 -0.0095
15372TIP3   OH267530   6.607   3.788   0.991 -0.0740 -0.3797  0.1692
15372TIP3    H167531   6.632   3.824   0.906  0.8699 -0.9671  0.1827
15372TIP3    H267532   6.596   3.864   1.048 -0.6356  0.0132 -0.4467
15373TIP3   OH267533   4.034   3.257   0.959  0.1674 -0.1901  0.3704
15373TIP3    H167534   4.077   3.328   0.912 -0.9218 -0.1201 -0.5617
15373TIP3    H267535   3.946   3.290   0.977 -0.6184 -1.5530 -0.7614
15374TIP3   OH267536   2.944   0.262   0.424 -0.0307  0.9827  0.0769
15374TIP3    H167537   2.959   0.293   0.513 -0.1190 -1.2699  0.9434
15374TIP3    H267538   2.853   0.284   0.405 -0.4080  0.3081  1.0645
15375TIP3   OH267539   2.932   5.392   6.381 -0.2639  0.0343  0.0271
15375TIP3    H167540   2.996   5.336   6.425  1.1680  1.0856 -0.6366
15375TIP3    H267541   2.981   5.473   6.362 -1.5449  0.5251 -1.3022
15376TIP3   OH267542   1.570   0.770  15.714  0.3422  0.0310 -0.1620
15376TIP3    H167543   1.654   0.799  15.676 -0.5174  1.1113 -1.3609
15376TIP3    H267544   1.524   0.729  15.641 -0.5345  0.2723  0.2397
15377TIP3   OH267545   5.194   3.544   5.421  0.7934 -0.1606  0.4217
15377TIP3    H167546   5.211   3.456   5.387 -0.3627  0.7599 -2.8404
15377TIP3    H267547   5.269   3.595   5.395  0.3536  0.3551  0.1519
15378TIP3   OH267548   3.850   0.628   3.219 -0.0459 -0.3475 -0.0394
15378TIP3    H167549   3.864   0.668   3.133 -0.6858 -2.0061 -0.9581
15378TIP3    H267550   3.935   0.634   3.262  0.3326  0.3795 -0.8459
15379TIP3   OH267551   1.870   3.978  15.886  0.0873 -0.5081  0.3139
15379TIP3    H167552   1.866   4.065  15.925  0.5435  0.0071 -0.7587
15379TIP3    H267553   1.954   3.943  15.917  1.1590  0.4767 -1.3140
15380TIP3   OH267554   5.149   2.422  14.303 -0.5844 -0.6508 -0.2788
15380TIP3    H167555   5.099   2.341  14.297  1.3610 -1.8174 -2.4214
15380TIP3    H267556   5.229   2.398  14.350 -0.3870  0.2688 -0.1207
15381TIP3   OH267557   6.138   6.456   4.434  0.3014  0.0299 -0.6481
15381TIP3    H167558   6.159   6.546   4.459  0.2346  0.4468 -2.0220
15381TIP3    H267559   6.141   6.456   4.339  0.2785 -1.4310 -0.6694
15382TIP3   OH267560   5.237   2.548  12.975  0.3624  0.3600  0.8354
15382TIP3    H167561   5.152   2.504  12.975  0.5924 -0.1277 -0.5569
15382TIP3    H267562   5.217   2.639  12.999 -0.5922  0.3105  0.2725
15383TIP3   OH267563   4.507   0.856   3.722 -0.1508  0.0861  0.1346
15383TIP3    H167564   4.442   0.885   3.786  1.2573  2.8907  0.4083
15383TIP3    H267565   4.587   0.844   3.773  0.9106  2.0645 -0.9879
15384TIP3   OH267566   5.997   4.632  11.291 -0.0516  0.6744 -0.5042
15384TIP3    H167567   6.058   4.560  11.280  0.5218  0.8970  0.9919
15384TIP3    H267568   5.916   4.602  11.249  0.2646 -0.7131 -0.1578
15385TIP3   OH267569   0.946   2.796  11.298  0.2208 -0.1504 -0.0845
15385TIP3    H167570   1.036   2.829  11.304 -0.6804  2.2422  1.4278
15385TIP3    H267571   0.956   2.701  11.301  2.5855  0.0531  2.3950
15386TIP3   OH267572   1.957   4.606  16.538 -0.1535 -0.3623  0.3301
15386TIP3    H167573   1.961   4.641  16.627 -1.0637  0.3550  0.1010
15386TIP3    H267574   2.036   4.553  16.530  1.1992  1.4824  0.7587
15387TIP3   OH267575   4.183   4.500  11.566 -0.2276  0.3756  0.0395
15387TIP3    H167576   4.275   4.501  11.540 -0.0689  0.6725  0.6045
15387TIP3    H267577   4.183   4.465  11.655 -0.6041  0.9048  0.2560
15388TIP3   OH267578   6.737   5.024   5.611  0.1691  0.2075 -0.6295
15388TIP3    H167579   6.701   4.935   5.612  1.7604 -0.4966 -1.7156
15388TIP3    H267580   6.663   5.081   5.631 -1.0933 -1.3033 -0.8798
15389TIP3   OH267581   5.987   3.201   2.510 -0.4029  0.1657  0.7476
15389TIP3    H167582   5.961   3.135   2.574 -1.3051  0.3978  0.6283
15389TIP3    H267583   5.996   3.154   2.428  3.3356 -0.6884  1.4342
15390TIP3   OH267584   2.897   5.401  13.669  1.1177  0.1865  0.1963
15390TIP3    H167585   2.904   5.331  13.734  0.6363  0.3709  0.4510
15390TIP3    H267586   2.830   5.371  13.608  3.0566 -0.9658 -1.4651
15391TIP3   OH267587   2.189   3.239   5.558  0.2683 -0.2080 -0.1924
15391TIP3    H167588   2.112   3.219   5.504 -0.4814  0.6513  0.5413
15391TIP3    H267589   2.229   3.314   5.515  0.5632 -0.4890 -0.4197
15392TIP3   OH267590   5.738   6.731   6.238  0.3984  0.3821  0.1675
15392TIP3    H167591   5.770   6.803   6.292  1.1117  1.1993 -1.2982
15392TIP3    H267592   5.766   6.652   6.285 -0.4859  1.0070  1.8560
15393TIP3   OH267593   0.296   0.363  16.375 -0.7722 -0.1650 -0.2532
15393TIP3    H167594   0.231   0.433  16.376  0.7285  1.2918  0.2283
15393TIP3    H267595   0.330   0.361  16.464 -0.1289 -0.8655 -0.5021
15394TIP3   OH267596   3.696   1.183  12.945  0.2259  0.2856 -0.3827
15394TIP3    H167597   3.786   1.155  12.932  0.2466  0.0739  0.1932
15394TIP3    H267598   3.643   1.114  12.907  0.3034  0.4179 -0.7362
15395TIP3   OH267599   5.400   0.967  11.637 -0.2451  0.3712  0.8810
15395TIP3    H167600   5.323   0.916  11.614  0.5284  0.0581 -1.2347
15395TIP3    H267601   5.428   1.007  11.554  3.1570 -1.3650  1.0209
15396TIP3   OH267602   5.067   5.482  14.269 -0.1834  0.0989 -0.2588
15396TIP3    H167603   5.025   5.563  14.298  0.5348  0.1308  0.7817
15396TIP3    H267604   5.129   5.461  14.339  0.2320 -0.9111 -0.8980
15397TIP3   OH267605   5.628   0.007  14.375 -0.2479  0.3542 -0.2475
15397TIP3    H167606   5.586  -0.072  14.409 -1.1695  1.6415  1.7523
15397TIP3    H267607   5.571   0.036  14.304 -1.4453  0.7122  0.8250
15398TIP3   OH267608   5.451   1.767  15.636  0.0094  0.6305 -0.0866
15398TIP3    H167609   5.399   1.719  15.570  0.1472  1.2805 -0.6829
15398TIP3    H267610   5.441   1.716  15.716 -1.0896  0.4262 -0.3343
15399TIP3   OH267611   0.987   3.932  15.664  0.4986 -0.1153 -0.1686
15399TIP3    H167612   0.926   3.900  15.597 -0.0392  0.4401  0.0379
15399TIP3    H267613   0.930   3.977  15.727  1.1537  0.6566 -0.1164
15400TIP3   OH267614   5.659   6.493  13.564 -0.3792 -0.2688  0.2225
15400TIP3    H167615   5.607   6.554  13.511  0.0510  0.7078  0.8985
15400TIP3    H267616   5.595   6.451  13.621 -0.5226  0.4767  0.6227
15401TIP3   OH267617   0.027   5.195  15.392  0.2343  0.0427  0.4355
15401TIP3    H167618   0.046   5.149  15.310  0.3221  1.6048 -0.4564
15401TIP3    H267619   0.094   5.163  15.453 -0.7326 -2.2572  0.3858
15402TIP3   OH267620   0.066   5.606  15.062  0.0257 -0.2295  0.0222
15402TIP3    H167621   0.111   5.572  15.139  0.5420 -1.8610 -0.9369
15402TIP3    H267622   0.131   5.598  14.991  0.1766  2.8273 -0.3090
15403TIP3   OH267623   2.615   1.443  14.004  0.2130  0.4938 -0.5792
15403TIP3    H167624   2.531   1.462  13.962  0.1126 -1.4479 -1.3326
15403TIP3    H267625   2.654   1.374  13.951  1.3619 -0.0725  0.9200
15404TIP3   OH267626   6.524   2.450  14.326  0.0343  0.2220 -0.4197
15404TIP3    H167627   6.609   2.430  14.366  0.4139 -0.5019 -1.5522
15404TIP3    H267628   6.531   2.417  14.237 -1.0307  1.2071 -0.8924
15405TIP3   OH267629   0.925   3.408  10.978 -0.9320  0.0409 -0.0423
15405TIP3    H167630   0.989   3.480  10.979  0.0588 -0.7643 -1.3424
15405TIP3    H267631   0.848   3.446  10.935 -0.5074  0.4122 -0.4980
15406TIP3   OH267632   2.162   3.047   1.279  0.0558 -0.2401 -0.3620
15406TIP3    H167633   2.142   2.953   1.283 -1.6886  0.0108 -2.0252
15406TIP3    H267634   2.206   3.059   1.195  1.1176  0.3278  0.2459
15407TIP3   OH267635   0.505   1.873   3.566 -0.0308 -0.1096  0.6887
15407TIP3    H167636   0.528   1.962   3.538  4.0573 -0.8328  1.0464
15407TIP3    H267637   0.464   1.885   3.652  0.0557  1.4427  0.5461
15408TIP3   OH267638   5.406   6.106  14.627  0.3302  0.4062  0.2006
15408TIP3    H167639   5.373   6.122  14.716  2.1183 -0.7584  1.1467
15408TIP3    H267640   5.493   6.146  14.627  0.1497  0.8371 -1.2268
15409TIP3   OH267641   2.508   0.409   3.534  0.2211  0.4008 -0.1901
15409TIP3    H167642   2.450   0.424   3.460 -2.2771  0.2335  1.5977
15409TIP3    H267643   2.555   0.328   3.513 -0.4308  0.3632 -1.5536
15410TIP3   OH267644   2.942   3.199  15.099  0.4868  0.1691 -0.2643
15410TIP3    H167645   3.032   3.197  15.066  0.5956  0.1789  0.0258
15410TIP3    H267646   2.926   3.109  15.129  0.4424  0.1968 -0.2058
15411TIP3   OH267647   6.539   3.175   5.599 -0.3230  0.5874 -0.3789
15411TIP3    H167648   6.500   3.087   5.601 -0.6010  0.7137  0.0999
15411TIP3    H267649   6.591   3.176   5.519  0.1044 -0.1935 -0.1263
15412TIP3   OH267650   3.667   4.018  15.572 -0.1815  0.1391  0.3326
15412TIP3    H167651   3.579   4.017  15.535 -0.2804  2.2913  0.3801
15412TIP3    H267652   3.725   4.028  15.497 -0.2716  2.6724  0.5240
15413TIP3   OH267653   5.024   1.656   1.171  0.2985 -0.0074 -0.9798
15413TIP3    H167654   4.967   1.603   1.115 -1.3385  1.2562 -0.5688
15413TIP3    H267655   4.973   1.671   1.250  1.0129  1.5384 -0.7738
15414TIP3   OH267656   6.093   0.128   5.860  0.6795  0.4945 -0.4429
15414TIP3    H167657   6.113   0.051   5.913  0.4023  0.3083 -0.6082
15414TIP3    H267658   6.056   0.192   5.922  0.9509  0.5113 -0.2987
15415TIP3   OH267659   3.365   1.139  11.344 -0.0698 -0.0262  0.2782
15415TIP3    H167660   3.364   1.192  11.263  1.1055 -1.1601 -0.5156
15415TIP3    H267661   3.397   1.054  11.316 -3.3082 -1.7089  1.2435
15416TIP3   OH267662   3.724   2.602  15.229 -0.1112 -0.4693 -0.6211
15416TIP3    H167663   3.699   2.648  15.309  2.2055  0.7663 -0.5132
15416TIP3    H267664   3.676   2.647  15.160  0.7629  1.0152 -0.3126
15417TIP3   OH267665   6.531   3.139  12.881  0.1720  1.0456 -0.2104
15417TIP3    H167666   6.435   3.138  12.877  0.2022  0.4849 -0.9693
15417TIP3    H267667   6.555   3.053  12.916  0.3807  1.4029  0.5351
15418TIP3   OH267668   5.100   4.202  16.104 -0.1621 -0.6322  0.5881
15418TIP3    H167669   5.168   4.270  16.110 -0.7918  0.1746 -0.7846
15418TIP3    H267670   5.147   4.120  16.117  0.7706  0.0081  1.4161
15419TIP3   OH267671   6.629   5.741  15.072 -0.5996 -0.3194  0.1375
15419TIP3    H167672   6.604   5.750  15.164 -0.8510  0.2046  0.0169
15419TIP3    H267673   6.725   5.732  15.074 -0.5120  0.5793  0.3889
15420TIP3   OH267674   0.561   1.675  16.725  0.1984  0.4474 -0.0799
15420TIP3    H167675   0.491   1.679  16.660 -0.0442 -1.0317  0.0515
15420TIP3    H267676   0.624   1.742  16.697 -1.6609  2.4794  0.3144
15421TIP3   OH267677   5.498   6.711  11.785  0.4458  0.2084 -0.7204
15421TIP3    H167678   5.575   6.695  11.840  1.0955 -0.6185 -1.8353
15421TIP3    H267679   5.509   6.801  11.755  1.2539 -0.0728 -1.2855
15422TIP3   OH267680   3.321   0.490   3.832  0.7744 -0.0886  0.5436
15422TIP3    H167681   3.262   0.442   3.890  2.2833 -1.1916  1.2432
15422TIP3    H267682   3.395   0.513   3.887 -0.3180  4.1314  0.5390
15423TIP3   OH267683   0.599   3.589  12.958  0.8216  0.6651 -0.1073
15423TIP3    H167684   0.561   3.677  12.961  0.5876  0.6153 -1.2058
15423TIP3    H267685   0.664   3.589  13.028 -1.3197  0.6921  2.0259
15424TIP3   OH267686   5.269   3.250   2.039  0.2637  0.0599  0.0689
15424TIP3    H167687   5.272   3.323   1.977 -0.7174  1.3490  1.4562
15424TIP3    H267688   5.312   3.284   2.118  0.2502 -1.0466  0.5700
15425TIP3   OH267689   5.526   4.036  13.573 -0.5542  0.2188 -0.3087
15425TIP3    H167690   5.482   4.017  13.656 -0.8121  0.4705 -0.3851
15425TIP3    H267691   5.454   4.046  13.510 -0.3159 -2.0279 -1.0166
15426TIP3   OH267692   0.224   0.668   6.465 -0.4076  0.3580  0.1927
15426TIP3    H167693   0.141   0.679   6.418  0.0433 -0.0695 -0.7469
15426TIP3    H267694   0.290   0.704   6.405  0.5127 -2.6781 -0.8055
15427TIP3   OH267695   4.782   4.518   0.992  0.9379 -0.1172  0.2282
15427TIP3    H167696   4.773   4.466   0.912 -0.3303 -2.0391  1.5372
15427TIP3    H267697   4.871   4.501   1.022 -0.2151 -4.0722  2.1229
15428TIP3   OH267698   6.043   3.998   4.979 -0.5912 -0.0967 -0.6006
15428TIP3    H167699   6.062   3.957   4.895 -2.3192  0.5725 -1.3650
15428TIP3    H267700   5.991   3.932   5.026 -0.8834  0.0855 -0.6637
15429TIP3   OH267701   3.319   6.666  14.499  0.1726  0.1363  0.1522
15429TIP3    H167702   3.410   6.696  14.490  0.4861 -0.7842  0.2083
15429TIP3    H267703   3.299   6.677  14.592 -0.1079  1.2551 -0.0259
15430TIP3   OH267704   3.997   6.118  12.829 -0.1971  0.0057 -0.3841
15430TIP3    H167705   3.904   6.101  12.844 -0.5520 -0.2297 -2.4422
15430TIP3    H267706   4.010   6.093  12.737  2.0793 -0.7261  0.0805
15431TIP3   OH267707   4.213   6.348   4.257  0.4862  0.4854 -0.1432
15431TIP3    H167708   4.302   6.358   4.290  0.3698  1.2405 -0.0326
15431TIP3    H267709   4.166   6.305   4.329  0.6904  0.3577 -0.0852
15432TIP3   OH267710   5.940   3.034   1.773 -0.4174  0.3619 -0.3524
15432TIP3    H167711   6.018   3.075   1.735 -0.3573 -0.3151 -1.0010
15432TIP3    H267712   5.959   2.940   1.768 -1.4742  0.1683 -0.9724
15433TIP3   OH267713   0.034   6.196   4.750 -0.3734 -0.2943 -0.3373
15433TIP3    H167714   0.022   6.177   4.657 -0.7647 -1.3451 -0.0800
15433TIP3    H267715  -0.045   6.244   4.775 -0.5192 -0.4866 -0.4245
15434TIP3   OH267716   3.165   6.082  14.847  0.0977  0.1998  0.0330
15434TIP3    H167717   3.183   6.092  14.941 -0.1416 -1.1528  0.2393
15434TIP3    H267718   3.142   5.990  14.837  0.3091  0.2857 -1.3947
15435TIP3   OH267719   1.166   0.203   2.786  0.2395  0.3095 -0.0820
15435TIP3    H167720   1.124   0.283   2.818 -1.6333 -0.9445  0.8206
15435TIP3    H267721   1.098   0.160   2.733  1.9813  0.4020 -2.5629
15436TIP3   OH267722   2.015   2.705  13.451 -0.3294  0.3513  0.5278
15436TIP3    H167723   1.940   2.709  13.391 -0.1157  0.9706  0.2996
15436TIP3    H267724   2.005   2.782  13.506  0.6046  0.9077 -0.0597
15437TIP3   OH267725   1.911   0.716  15.515 -0.2716 -0.4396  0.7362
15437TIP3    H167726   1.884   0.746  15.601 -0.7337 -0.9146  0.7603
15437TIP3    H267727   1.875   0.627  15.508  0.2186 -0.6090  0.2731
15438TIP3   OH267728   5.383   1.376  15.829 -0.4198  0.3778  0.1853
15438TIP3    H167729   5.312   1.393  15.768 -1.3273  1.7907  1.5486
15438TIP3    H267730   5.379   1.282  15.844 -3.3557  0.6111  1.7042
15439TIP3   OH267731   5.087   5.141  14.862  0.2103 -0.4423  0.4845
15439TIP3    H167732   5.013   5.084  14.883  1.2151 -1.6472  0.9009
15439TIP3    H267733   5.096   5.199  14.938 -0.9791  0.4963 -0.0544
15440TIP3   OH267734   1.099   6.764   4.475  0.1322  0.6284  0.5848
15440TIP3    H167735   1.156   6.835   4.443 -1.6677  2.2165  0.7028
15440TIP3    H267736   1.048   6.737   4.398 -1.7575  2.0637  1.2404
15441TIP3   OH267737   6.168   1.125   0.694  0.2379 -0.5093  0.6661
15441TIP3    H167738   6.084   1.164   0.717  0.0710  1.2020 -2.3175
15441TIP3    H267739   6.147   1.036   0.666 -0.5071 -0.3009  0.5390
15442TIP3   OH267740   3.424   1.057  14.228 -0.3610  0.5458  0.0113
15442TIP3    H167741   3.495   0.994  14.217 -1.3506 -0.6116  0.0827
15442TIP3    H267742   3.468   1.142  14.234  0.8257  0.2452 -3.0401
15443TIP3   OH267743   0.593   4.536  14.995  0.5380 -1.1165  0.2340
15443TIP3    H167744   0.603   4.565  14.904 -1.1220  0.3698  0.4648
15443TIP3    H267745   0.668   4.574  15.040 -0.2483  0.8384  0.0176
15444TIP3   OH267746   2.788   6.156   1.658  0.3567  0.5385 -0.2861
15444TIP3    H167747   2.765   6.064   1.643 -0.7643  1.0159 -1.7441
15444TIP3    H267748   2.743   6.203   1.588  1.6596  2.1126 -0.1132
15445TIP3   OH267749   2.602   4.346  12.640  0.3927 -0.4675 -0.1796
15445TIP3    H167750   2.550   4.291  12.582  1.4748 -2.8247  0.9721
15445TIP3    H267751   2.651   4.285  12.695  3.0111  1.6151  0.0301
15446TIP3   OH267752   4.692   6.578   4.452  0.2540  0.0801 -0.5598
15446TIP3    H167753   4.716   6.580   4.545  0.1315  1.5514 -0.5401
15446TIP3    H267754   4.776   6.576   4.406  0.3135 -0.8086 -0.4296
15447TIP3   OH267755   6.031   5.545  14.654  0.2746  0.2711  0.4019
15447TIP3    H167756   5.962   5.577  14.595 -0.2037  0.3976  1.0181
15447TIP3    H267757   6.112   5.578  14.616  0.0606 -0.3769 -0.6662
15448TIP3   OH267758   5.462   1.795  11.148  0.3748  0.4318 -0.1070
15448TIP3    H167759   5.447   1.726  11.212  1.7036  1.1737  1.0385
15448TIP3    H267760   5.510   1.751  11.077  1.5614  0.2303  0.7895
15449TIP3   OH267761   0.445   2.318  13.452 -0.2301  0.3979  0.1326
15449TIP3    H167762   0.457   2.224  13.457 -0.4350  0.3654  0.0339
15449TIP3    H267763   0.373   2.337  13.512  0.6736  0.6676  1.1603
15450TIP3   OH267764   4.422   6.381  15.515 -0.2128  0.2195  0.3224
15450TIP3    H167765   4.456   6.470  15.527  0.1272  0.0688  0.5052
15450TIP3    H267766   4.445   6.336  15.596 -3.6086  0.9333  1.8665
15451TIP3   OH267767   0.108   2.042   4.091  0.5382 -0.1199 -0.0909
15451TIP3    H167768   0.109   1.974   4.024  0.7044 -0.8628  0.6480
15451TIP3    H267769   0.058   2.003   4.163  4.1647 -1.2037  2.1024
15452TIP3   OH267770   4.439   5.007  12.553 -0.5634  0.0125  0.0387
15452TIP3    H167771   4.457   4.976  12.641  0.7229 -0.9846 -0.5328
15452TIP3    H267772   4.428   4.927  12.502 -0.3706  0.5497 -0.8739
15453TIP3   OH267773   6.081   6.433  13.437 -0.3753 -0.0273 -0.3310
15453TIP3    H167774   6.023   6.444  13.362  0.3091 -0.6623 -0.9792
15453TIP3    H267775   6.061   6.506  13.495 -0.4564  0.8603 -1.4527
15454TIP3   OH267776   5.354   5.994  11.216 -0.1194  0.1242  0.3286
15454TIP3    H167777   5.398   5.916  11.249  1.9327  1.1461  0.2008
15454TIP3    H267778   5.368   5.992  11.122  1.0831  1.2203  0.4397
15455TIP3   OH267779   2.802   4.885   5.488 -0.3621 -0.5148 -0.2702
15455TIP3    H167780   2.795   4.790   5.496  0.1154 -0.5195  0.1532
15455TIP3    H267781   2.712   4.916   5.496 -0.3524 -0.8184  1.2586
15456TIP3   OH267782   4.792   5.202   3.661  0.4134  0.1230 -0.4445
15456TIP3    H167783   4.885   5.182   3.655 -0.0635 -1.8549 -2.4707
15456TIP3    H267784   4.778   5.228   3.753  2.6857 -0.8717  0.2372
15457TIP3   OH267785   2.290   6.531   3.922 -0.7393  0.2672  0.3222
15457TIP3    H167786   2.203   6.540   3.959  0.2403  1.6862  2.5033
15457TIP3    H267787   2.349   6.534   3.998  1.1978 -1.4929 -0.9649
15458TIP3   OH267788   2.393   0.391   4.957 -0.6487  0.7141  0.4217
15458TIP3    H167789   2.412   0.411   5.048  2.2583  1.2977 -0.2124
15458TIP3    H267790   2.421   0.300   4.946  0.8908  1.2606 -0.3210
15459TIP3   OH267791   1.933   1.594   1.125  0.0116  0.9731  0.1524
15459TIP3    H167792   2.008   1.652   1.136  0.1418  0.5522  1.6550
15459TIP3    H267793   1.964   1.526   1.066  1.0668  0.4144  1.3116
15460TIP3   OH267794   1.385   1.679  10.927  0.2511  0.2451 -0.2570
15460TIP3    H167795   1.389   1.661  10.833  0.3576 -0.8545 -0.0642
15460TIP3    H267796   1.316   1.745  10.937 -1.1435 -1.0331 -0.9427
15461TIP3   OH267797   1.290   6.416   3.372  0.5700 -0.2045 -0.3454
15461TIP3    H167798   1.248   6.461   3.298  1.2793  0.3272 -0.4397
15461TIP3    H267799   1.359   6.477   3.401  0.3168 -0.4177  0.7432
15462TIP3   OH267800   6.259   1.127  12.566  0.5933 -0.7266  1.0530
15462TIP3    H167801   6.166   1.107  12.557  0.6000 -0.0247 -1.1331
15462TIP3    H267802   6.261   1.208  12.618 -0.0422 -0.4652  0.6843
15463TIP3   OH267803   1.844   4.763   4.909  0.2823 -0.1319 -0.0195
15463TIP3    H167804   1.904   4.837   4.909  0.2891 -0.1311  0.5104
15463TIP3    H267805   1.900   4.686   4.897  0.2585 -0.0409 -0.7244
15464TIP3   OH267806   6.046   2.334   1.346 -0.0404  0.2428  0.1828
15464TIP3    H167807   6.105   2.264   1.318  0.7563  1.7204 -2.1561
15464TIP3    H267808   6.105   2.403   1.378 -0.5195  1.1871 -0.8744
15465TIP3   OH267809   3.228   6.419   3.756  0.6819  0.5877 -0.7187
15465TIP3    H167810   3.261   6.505   3.782  1.3657 -0.6159  3.0449
15465TIP3    H267811   3.303   6.376   3.716  0.9518  1.0364 -0.7015
15466TIP3   OH267812   4.752   5.964   1.160 -0.5771 -0.2186  0.1166
15466TIP3    H167813   4.815   6.030   1.189 -1.8363  0.5718  1.1577
15466TIP3    H267814   4.697   6.010   1.097 -0.6117 -0.6975 -0.2126
15467TIP3   OH267815   2.796   5.531   3.602  0.3431  0.6482 -0.8440
15467TIP3    H167816   2.746   5.451   3.622  0.6118  0.7223  0.1939
15467TIP3    H267817   2.737   5.603   3.625  0.5615  0.7431 -0.5819
15468TIP3   OH267818   4.282   6.478  13.879  0.2610 -0.0021 -0.3165
15468TIP3    H167819   4.227   6.554  13.862 -0.2382 -0.4990 -1.0306
15468TIP3    H267820   4.307   6.447  13.792 -0.0080 -0.9706 -0.0694
15469TIP3   OH267821   5.174   5.589   5.865 -0.0273 -0.6462  0.1649
15469TIP3    H167822   5.109   5.647   5.906  0.0081 -0.7192  0.3269
15469TIP3    H267823   5.151   5.588   5.772  0.2442 -0.0151  0.0872
15470TIP3   OH267824   5.191   2.819  13.006  0.1423 -0.4372  0.2255
15470TIP3    H167825   5.111   2.871  13.020 -0.2625 -0.6362 -1.1703
15470TIP3    H267826   5.262   2.882  13.018 -0.3578  1.0346 -3.1380
15471TIP3   OH267827   3.552   5.299   0.936  0.8560 -0.8298 -0.1794
15471TIP3    H167828   3.586   5.250   1.011 -0.1388 -1.5307 -0.1594
15471TIP3    H267829   3.628   5.346   0.901  1.7073 -1.8684  0.2165
15472TIP3   OH267830   2.446   5.437   4.536  0.0155  0.0166 -0.3319
15472TIP3    H167831   2.498   5.490   4.597  0.6461 -0.1976 -0.6712
15472TIP3    H267832   2.453   5.484   4.453 -0.5669  0.1285 -0.3222
15473TIP3   OH267833   5.003   5.823   4.905 -0.1924  0.4453 -0.2980
15473TIP3    H167834   5.000   5.918   4.892  0.7150  0.6131  0.5777
15473TIP3    H267835   4.990   5.812   5.000 -0.3901 -0.3123 -0.4062
15474TIP3   OH267836   3.478   6.197   4.923 -0.0785  0.3432 -0.5927
15474TIP3    H167837   3.418   6.122   4.922  1.1384 -0.6678 -1.5743
15474TIP3    H267838   3.494   6.213   5.016  1.2405 -1.9989 -0.3313
15475TIP3   OH267839   3.363   5.980  15.734 -0.5690  0.5431  0.0274
15475TIP3    H167840   3.273   6.007  15.715 -1.1506 -0.9399  0.5760
15475TIP3    H267841   3.416   6.033  15.675 -1.8195  1.2147 -0.5352
15476TIP3   OH267842   2.348   4.413  13.194 -0.6543  0.1157 -0.0935
15476TIP3    H167843   2.283   4.346  13.171 -2.7053  2.1703 -0.6039
15476TIP3    H267844   2.403   4.421  13.116  0.9414 -2.3026  0.6683
15477TIP3   OH267845   2.404   5.448   5.625 -0.5914  0.0655  0.3397
15477TIP3    H167846   2.347   5.422   5.697  0.1004  0.6543  1.1155
15477TIP3    H267847   2.477   5.386   5.629  0.5944  1.4714  1.6049
15478TIP3   OH267848   1.392   1.703   6.131 -0.4498 -0.3312 -0.1005
15478TIP3    H167849   1.325   1.639   6.107 -0.2337 -0.8157  0.5671
15478TIP3    H267850   1.474   1.666   6.099 -0.5018  0.3392 -1.0671
15479TIP3   OH267851   3.872   2.912  11.611 -0.4688  0.0407 -0.0758
15479TIP3    H167852   3.942   2.934  11.672  1.3778 -0.4872 -1.8818
15479TIP3    H267853   3.847   2.822  11.634 -1.7940  0.7971  1.6363
15480TIP3   OH267854   0.497   0.728  16.195  0.0596 -0.2487  0.2965
15480TIP3    H167855   0.420   0.777  16.164  0.0155  0.6984  1.7801
15480TIP3    H267856   0.543   0.702  16.115  0.1946  2.4385 -0.6198
15481TIP3   OH267857   1.218   3.606   0.049  0.2375 -0.4315  0.0363
15481TIP3    H167858   1.175   3.586   0.132 -0.9775 -0.9740 -0.6915
15481TIP3    H267859   1.291   3.663   0.072 -2.1285  2.3941  1.1632
15482TIP3   OH267860   5.924   3.832  16.408 -0.1321 -0.2759  0.3211
15482TIP3    H167861   5.831   3.809  16.412 -0.0747 -0.8654 -1.2299
15482TIP3    H267862   5.968   3.750  16.387  0.5202  0.3881 -0.9923
15483TIP3   OH267863   0.001   1.785   1.450 -0.0369 -0.4485 -0.0374
15483TIP3    H167864  -0.065   1.831   1.398  0.8937 -0.0502 -0.9010
15483TIP3    H267865   0.066   1.852   1.472 -0.2392 -0.6833  1.3915
15484TIP3   OH267866   5.591   2.958  13.687 -0.8926 -0.0685 -0.5312
15484TIP3    H167867   5.604   3.043  13.730  0.0833 -0.9643  1.0613
15484TIP3    H267868   5.669   2.948  13.632 -0.2386 -0.5675  0.4541
15485TIP3   OH267869   2.458   3.136   0.496  0.5429  0.3609 -0.5833
15485TIP3    H167870   2.463   3.153   0.402 -0.8345  1.2357 -0.5133
15485TIP3    H267871   2.376   3.088   0.508  0.4795  0.6535  0.2274
15486TIP3   OH267872   6.032   5.038  15.351 -0.6753  0.2004  0.5653
15486TIP3    H167873   6.090   5.027  15.275 -0.0093 -1.5661  1.2760
15486TIP3    H267874   6.016   5.132  15.355  0.1449  0.4616 -1.1180
15487TIP3   OH267875   2.057   6.486  16.524 -0.1765 -0.1486  0.2077
15487TIP3    H167876   2.002   6.452  16.595  2.8286 -1.7819  1.9369
15487TIP3    H267877   2.122   6.418  16.509  0.7745  1.2116 -2.4781
15488TIP3   OH267878   2.364   0.585   2.346 -0.5792  0.2095  0.7353
15488TIP3    H167879   2.281   0.632   2.334 -0.2764  0.3390 -1.1297
15488TIP3    H267880   2.399   0.575   2.257  0.8951 -0.7822  1.3918
15489TIP3   OH267881   5.311   3.346  14.561 -0.2550  0.2085  0.3738
15489TIP3    H167882   5.378   3.402  14.600 -0.2045 -1.0266  2.1783
15489TIP3    H267883   5.353   3.307  14.484  0.8086  0.1433  0.9725
15490TIP3   OH267884   1.454   1.181  12.736  0.7735  0.1597 -0.1627
15490TIP3    H167885   1.461   1.105  12.678  1.3373  1.2686 -1.6070
15490TIP3    H267886   1.360   1.189  12.754  0.5051  0.2039 -1.5049
15491TIP3   OH267887   4.319   5.564  15.749 -0.3885  0.7429 -0.2031
15491TIP3    H167888   4.371   5.560  15.829 -1.7572  1.1262  0.7538
15491TIP3    H267889   4.355   5.496  15.693 -1.4078 -1.8275  2.0260
15492TIP3   OH267890   1.198   6.131   3.068 -0.0343  0.1158  0.2408
15492TIP3    H167891   1.136   6.105   3.136  1.1406 -1.7742  0.6453
15492TIP3    H267892   1.186   6.068   2.998 -0.1693  1.1349 -0.6743
15493TIP3   OH267893   3.300   4.360   5.898 -0.6780  0.1666  0.2113
15493TIP3    H167894   3.309   4.362   5.993 -0.5375  4.4051  0.2890
15493TIP3    H267895   3.207   4.377   5.882 -0.5967  0.0458 -0.4319
15494TIP3   OH267896   6.658   3.964  16.569  0.0057 -0.3090  0.3017
15494TIP3    H167897   6.637   3.939  16.479 -0.2891  0.4982  0.1289
15494TIP3    H267898   6.613   3.899  16.623 -1.3718  0.2492 -0.1121
15495TIP3   OH267899   0.654   2.541   4.126  0.2148  0.2639 -0.2345
15495TIP3    H167900   0.599   2.493   4.187  1.4745  1.3572  1.8722
15495TIP3    H267901   0.732   2.486   4.116  0.5625  0.6738  0.1786
15496TIP3   OH267902   6.223   5.534   1.943 -0.4770  0.2360 -0.3358
15496TIP3    H167903   6.130   5.524   1.927 -0.2425 -0.0952 -1.6164
15496TIP3    H267904   6.231   5.543   2.038 -1.8394  0.7350 -0.2527
15497TIP3   OH267905   1.343   3.331   5.010  0.2038 -0.2205 -0.1791
15497TIP3    H167906   1.414   3.386   5.041 -0.2367 -0.6610  1.7826
15497TIP3    H267907   1.340   3.258   5.072 -1.3445 -0.6940 -0.7472
15498TIP3   OH267908   4.791   5.314  15.027 -0.7545  0.4943  0.0720
15498TIP3    H167909   4.743   5.313  14.944  2.2931 -2.1515 -1.9358
15498TIP3    H267910   4.756   5.241  15.077  0.1410 -0.5729 -0.8010
15499TIP3   OH267911   2.247   4.491   1.612  0.1354  0.1983 -0.6124
15499TIP3    H167912   2.301   4.570   1.621 -0.4073  0.3630  1.5219
15499TIP3    H267913   2.225   4.489   1.518  1.4583  1.6938 -1.0095
15500TIP3   OH267914   1.115   6.090   1.234  0.2268 -0.0342 -0.0428
15500TIP3    H167915   1.094   6.118   1.145 -0.5539  0.7145  0.3620
15500TIP3    H267916   1.107   6.170   1.286  1.2871 -0.3323  0.6051
15501TIP3   OH267917   1.086   3.230   2.301  0.1005 -0.2747 -0.4259
15501TIP3    H167918   1.136   3.161   2.345  1.3895  0.6672 -0.3537
15501TIP3    H267919   1.059   3.288   2.372 -0.0079 -0.1032 -0.6068
15502TIP3   OH267920   0.195   4.570   3.129  0.1332  0.1650 -0.1178
15502TIP3    H167921   0.261   4.620   3.081  0.4518  0.2768  0.4329
15502TIP3    H267922   0.111   4.606   3.100  0.3529  0.8449  0.0968
15503TIP3   OH267923   0.045   0.010   3.358  0.2651 -0.3335  0.1549
15503TIP3    H167924   0.073   0.077   3.420  2.7166 -1.1943  0.1103
15503TIP3    H267925   0.037  -0.069   3.410  2.0497 -0.9979 -0.5103
15504TIP3   OH267926   4.867   2.795   5.613 -0.0715  0.3707 -0.0194
15504TIP3    H167927   4.893   2.876   5.656  0.2989 -0.8880  2.2701
15504TIP3    H267928   4.944   2.739   5.618  0.7619  0.7983 -4.3181
15505TIP3   OH267929   1.344   5.780  12.871  0.0862 -0.2125 -0.1657
15505TIP3    H167930   1.387   5.764  12.955  0.2278 -0.4221 -0.2786
15505TIP3    H267931   1.252   5.758  12.888 -0.5722  2.8309  0.8518
15506TIP3   OH267932   2.022   3.895   2.511 -0.0271  0.3239  0.6413
15506TIP3    H167933   1.960   3.886   2.583 -1.2807 -0.3070 -0.4644
15506TIP3    H267934   2.030   3.807   2.475  2.4719  0.1513  1.4733
15507TIP3   OH267935   0.683   2.175  15.249 -0.0007 -0.2931 -0.3900
15507TIP3    H167936   0.744   2.169  15.176  0.3195  1.9527 -0.3744
15507TIP3    H267937   0.628   2.097  15.241  0.7441 -0.6740 -2.3290
15508TIP3   OH267938   0.238   0.460  13.488 -0.1536 -0.2039  0.4205
15508TIP3    H167939   0.313   0.405  13.512 -0.2922 -0.2685  0.7034
15508TIP3    H267940   0.161   0.410  13.513 -0.2759  0.2375  0.9450
15509TIP3   OH267941   1.862   4.271  16.758  0.3264 -0.2647 -0.2332
15509TIP3    H167942   1.831   4.286  16.669 -1.7853  1.3597  0.6902
15509TIP3    H267943   1.791   4.223  16.801  1.6054 -1.6415  0.4254
15510TIP3   OH267944   6.309   6.097  17.067  0.1920  0.3225  0.1448
15510TIP3    H167945   6.355   6.027  17.020 -0.3787 -0.4955  0.7776
15510TIP3    H267946   6.303   6.169  17.003  1.3911  0.0594 -0.2869
15511TIP3   OH267947   4.423   5.877  14.769  0.2593  0.2037  0.2873
15511TIP3    H167948   4.402   5.950  14.827  3.3688  0.0835  1.7817
15511TIP3    H267949   4.474   5.916  14.698  1.7879 -0.4013  1.0027
15512TIP3   OH267950   2.462   1.931  12.427 -0.4371 -0.5688  0.2980
15512TIP3    H167951   2.371   1.921  12.396 -0.0784 -1.8419 -0.3995
15512TIP3    H267952   2.469   1.872  12.502 -0.0146 -0.9366 -0.0276
15513TIP3   OH267953   1.677   0.700  15.238 -0.7057  0.6835 -0.7279
15513TIP3    H167954   1.684   0.790  15.205  1.3177  0.2919 -1.4636
15513TIP3    H267955   1.638   0.651  15.166 -1.3601  0.8551 -0.5011
15514TIP3   OH267956   5.506   0.637  15.745  0.1233  0.6230 -0.1614
15514TIP3    H167957   5.458   0.619  15.664 -0.8292 -2.2801  0.9225
15514TIP3    H267958   5.438   0.649  15.811  0.8684 -0.4250  0.8259
15515TIP3   OH267959   2.556   0.291  17.050 -0.5898  0.3094  0.6330
15515TIP3    H167960   2.647   0.317  17.037 -1.0654  3.3242  2.4781
15515TIP3    H267961   2.562   0.201  17.084  1.5163 -0.3396 -1.2307
15516TIP3   OH267962   6.577   2.401  13.197  0.5213  0.5931  0.0748
15516TIP3    H167963   6.599   2.309  13.185  0.1229  0.5364 -0.2614
15516TIP3    H267964   6.496   2.401  13.247  0.0261  0.7281 -0.7019
15517TIP3   OH267965   2.466   0.695   0.486  0.1572  0.1054 -0.4813
15517TIP3    H167966   2.547   0.647   0.500  0.5690  0.4999 -1.4674
15517TIP3    H267967   2.442   0.727   0.574  0.5974 -0.7351 -0.0487
15518TIP3   OH267968   1.882   5.543  13.409 -0.5912 -0.3596 -0.0654
15518TIP3    H167969   1.955   5.523  13.468 -1.0928 -2.6192 -0.1010
15518TIP3    H267970   1.896   5.484  13.334 -1.1855  0.8628 -1.1685
15519TIP3   OH267971   1.131   5.958   4.024  0.3269  0.1232  0.3421
15519TIP3    H167972   1.221   5.946   3.995 -0.6315 -1.6864 -2.2266
15519TIP3    H267973   1.113   5.884   4.082  0.3373  0.2265  0.4790
15520TIP3   OH267974   5.360   1.206   2.310  0.0451 -0.0122 -0.1378
15520TIP3    H167975   5.443   1.254   2.314 -0.7124  1.6588 -2.4568
15520TIP3    H267976   5.314   1.232   2.390  1.3411 -0.2305  0.7128
15521TIP3   OH267977   5.230   5.026  11.874  0.0719  0.0366  0.5357
15521TIP3    H167978   5.168   5.098  11.863  0.8426  0.9586  1.9913
15521TIP3    H267979   5.198   4.958  11.815  0.4485  2.2423 -2.4305
15522TIP3   OH267980   1.252   6.059   0.587  0.4387 -0.2366 -0.6386
15522TIP3    H167981   1.208   6.139   0.559 -1.5697 -1.5427 -1.4948
15522TIP3    H267982   1.341   6.086   0.609 -0.6209  2.5129  0.7690
15523TIP3   OH267983   1.375   1.469  16.855 -0.3564 -0.1273 -0.0386
15523TIP3    H167984   1.289   1.509  16.838  0.1018  1.2546  0.7136
15523TIP3    H267985   1.420   1.470  16.771 -1.4004 -1.7548 -0.6628
15524TIP3   OH267986   3.912   4.028   1.788  0.2298  0.2902 -0.1120
15524TIP3    H167987   3.864   3.953   1.752  0.8306 -0.5283  0.7623
15524TIP3    H267988   3.987   3.990   1.833 -0.1125  1.3117  1.4133
15525TIP3   OH267989   2.533   1.646  16.815 -0.6102  0.1818 -0.1545
15525TIP3    H167990   2.439   1.647  16.794 -0.7261 -0.2510  0.3301
15525TIP3    H267991   2.545   1.718  16.877 -0.8661 -0.5818  0.7947
15526TIP3   OH267992   4.577   2.793   3.409 -0.6465 -0.5349 -0.4811
15526TIP3    H167993   4.531   2.750   3.481  0.9185  0.1973  1.0358
15526TIP3    H267994   4.643   2.729   3.381 -0.1092 -0.1732 -0.0646
15527TIP3   OH267995   2.854   2.481   3.227 -0.8725 -0.2140  0.6720
15527TIP3    H167996   2.871   2.388   3.240 -0.0829  0.0451  1.5515
15527TIP3    H267997   2.897   2.502   3.143  0.4930 -0.2659  1.3363
15528TIP3   OH267998   5.349   5.452  16.062  0.6642  0.5669 -0.4010
15528TIP3    H167999   5.369   5.543  16.088 -2.6267  1.2251  0.3867
15528TIP3    H268000   5.299   5.461  15.981  0.5340 -0.5696 -0.4564
15529TIP3   OH268001   2.678   4.459  15.082  0.1314 -0.7739 -0.1950
15529TIP3    H168002   2.684   4.370  15.049  1.8412 -0.4426 -0.8684
15529TIP3    H268003   2.767   4.481  15.111 -0.4776  0.3417  0.9800
15530TIP3   OH268004   1.278   4.145  11.889 -0.4930 -0.1218  0.5678
15530TIP3    H168005   1.186   4.166  11.872 -0.1935  0.3752 -0.5699
15530TIP3    H268006   1.313   4.225  11.928 -0.4345 -0.1282  0.5292
15531TIP3   OH268007   3.449   0.075  13.363  0.1069  0.1651 -0.1295
15531TIP3    H168008   3.460  -0.009  13.408  1.1174 -0.1810 -0.9864
15531TIP3    H268009   3.533   0.119  13.375 -0.3658  0.9993  0.1814
15532TIP3   OH268010   3.366   2.766  12.800 -0.3122  0.2807 -0.4710
15532TIP3    H168011   3.284   2.729  12.835 -0.4058 -1.0753 -2.0186
15532TIP3    H268012   3.337   2.834  12.739 -0.2046  0.9090  0.1534
15533TIP3   OH268013   2.535   5.773   0.005  0.3778 -0.6871  0.6999
15533TIP3    H168014   2.579   5.758  -0.079 -0.3359 -1.2189  0.4082
15533TIP3    H268015   2.456   5.821  -0.018  0.3346 -0.5606  1.1067
15534TIP3   OH268016   6.030   4.157   2.626 -0.4192 -0.0751 -0.6108
15534TIP3    H168017   5.953   4.174   2.681  0.4065 -0.6375  0.7856
15534TIP3    H268018   6.083   4.096   2.678  0.0877 -1.1836 -2.3496
15535TIP3   OH268019   6.614   3.159  15.629 -0.4264 -0.4890 -0.5967
15535TIP3    H168020   6.684   3.138  15.690 -0.6788 -0.0657 -0.1533
15535TIP3    H268021   6.537   3.169  15.684 -0.3988  1.1818 -0.8222
15536TIP3   OH268022   4.361   0.721   3.243 -0.1384  0.2892  0.2401
15536TIP3    H168023   4.439   0.715   3.297  0.2894  2.5948 -0.0288
15536TIP3    H268024   4.392   0.709   3.153 -0.1629  0.7380  0.1706
15537TIP3   OH268025   4.249   3.398   2.270 -0.2810  0.8397  0.1071
15537TIP3    H168026   4.294   3.461   2.326 -0.5099  1.0124  0.0940
15537TIP3    H268027   4.228   3.325   2.327  1.1828  0.1773 -0.1559
15538TIP3   OH268028   4.356   6.692   2.055 -0.0766 -0.2749  0.5454
15538TIP3    H168029   4.348   6.597   2.052 -0.7945 -0.2099 -1.7953
15538TIP3    H268030   4.366   6.718   1.963  0.8416  1.8618  1.1928
15539TIP3   OH268031   1.001   1.410   1.857  0.3455  0.3008 -0.2662
15539TIP3    H168032   0.927   1.471   1.859  0.5503  0.5275  0.4052
15539TIP3    H268033   1.078   1.466   1.850  0.4631  0.0623 -0.9836
15540TIP3   OH268034   1.322   2.716   2.593  0.4798 -0.2236 -0.5299
15540TIP3    H168035   1.247   2.762   2.555  0.3760  2.0763  2.1169
15540TIP3    H268036   1.285   2.638   2.634  0.1544 -1.0561 -2.3295
15541TIP3   OH268037   1.779   6.521   3.036 -0.3424 -0.3546 -0.1360
15541TIP3    H168038   1.688   6.538   3.060 -0.2085 -0.8255  0.7381
15541TIP3    H268039   1.809   6.604   2.999 -1.4221 -0.5092 -1.4161
15542TIP3   OH268040   3.085   2.807  14.933 -0.2730  0.1894 -0.1026
15542TIP3    H168041   3.061   2.862  14.858 -0.9975 -0.4060 -0.3255
15542TIP3    H268042   3.022   2.735  14.930 -1.0227  0.7240  1.7351
15543TIP3   OH268043   3.034   0.965  12.359  0.9626  0.0019 -0.1560
15543TIP3    H168044   3.112   1.021  12.358  0.7778  0.2542 -0.6510
15543TIP3    H268045   3.034   0.927  12.447  0.4113  1.7460  0.6656
15544TIP3   OH268046   4.099   0.324  13.931  0.4779  0.4198 -0.1532
15544TIP3    H168047   4.143   0.278  14.002  0.4241 -2.6176 -1.9257
15544TIP3    H268048   4.099   0.416  13.958  1.3819 -0.4423  3.2197
15545TIP3   OH268049   5.026   2.527  12.045  0.1405  0.0218 -0.6886
15545TIP3    H168050   4.983   2.557  11.964 -0.6284  2.9384  0.6795
15545TIP3    H268051   4.957   2.480  12.092 -0.2755  0.8192 -0.4832
15546TIP3   OH268052   5.402   5.157   4.781 -0.2222  0.8169 -0.4850
15546TIP3    H168053   5.353   5.219   4.834  3.3869  1.6023  2.3717
15546TIP3    H268054   5.365   5.071   4.803 -1.7738  1.5067 -0.3294
15547TIP3   OH268055   4.966   6.166  12.035 -0.5346  0.1308 -0.3476
15547TIP3    H168056   4.883   6.195  11.997 -0.3662  1.4486  0.2250
15547TIP3    H268057   5.027   6.168  11.961 -0.7341  0.4018 -0.5090
15548TIP3   OH268058   4.952   4.039  15.112 -0.4897  0.0824  0.4372
15548TIP3    H168059   4.959   3.953  15.154 -0.9532  0.1665  0.6929
15548TIP3    H268060   4.874   4.032  15.056  1.0253 -0.5842 -1.7319
15549TIP3   OH268061   4.905   3.321   2.613  0.4382 -0.1984  0.5261
15549TIP3    H168062   4.810   3.310   2.614  0.3029  0.3680 -1.5802
15549TIP3    H268063   4.923   3.381   2.685 -0.6589 -1.0461  1.5628
15550TIP3   OH268064   5.693   1.646  10.929  0.0014 -0.0668  0.0659
15550TIP3    H168065   5.642   1.566  10.918  0.1540 -0.0917 -0.4740
15550TIP3    H268066   5.737   1.659  10.845  0.8681 -0.0309  0.5043
15551TIP3   OH268067   5.469   2.284  14.905  0.1309  0.0778  0.9040
15551TIP3    H168068   5.534   2.253  14.842 -1.1560  0.0436 -0.4703
15551TIP3    H268069   5.402   2.215  14.905  0.3167 -0.1358  2.6810
15552TIP3   OH268070   4.973   3.710   5.077 -0.4545  0.7574 -0.8349
15552TIP3    H168071   4.936   3.626   5.106  0.9333  0.4421  0.1159
15552TIP3    H268072   5.067   3.694   5.074  0.0551  2.7994  1.2721
15553TIP3   OH268073   1.391   5.250  13.531 -0.5340  0.4101  0.3217
15553TIP3    H168074   1.333   5.326  13.540 -0.9342  0.1100  0.3183
15553TIP3    H268075   1.376   5.199  13.611  0.1087  0.5828  0.5629
15554TIP3   OH268076   2.430   2.869  10.832 -0.0662 -0.4952  0.1813
15554TIP3    H168077   2.479   2.951  10.831  0.3261 -0.7254  0.2752
15554TIP3    H268078   2.427   2.841  10.741  2.8682 -2.1679  0.4902
15555TIP3   OH268079   1.502   5.018   2.221  0.3145  0.1708 -0.0038
15555TIP3    H168080   1.488   5.101   2.266 -0.2172  0.2571 -0.3172
15555TIP3    H268081   1.484   5.037   2.129 -1.5179 -0.6647  0.1389
15556TIP3   OH268082   4.632   2.703   2.234  0.0180 -0.0303 -0.1493
15556TIP3    H168083   4.587   2.703   2.318 -0.1222 -1.4599 -0.1935
15556TIP3    H268084   4.694   2.775   2.239 -0.6683  0.5048  0.8035
15557TIP3   OH268085   0.926   3.532   6.116 -0.0728  0.1849 -0.0258
15557TIP3    H168086   0.890   3.613   6.080 -0.1582 -0.1182 -0.6403
15557TIP3    H268087   1.020   3.549   6.124 -0.1256  0.4290  0.0756
15558TIP3   OH268088   6.314   0.273  12.212 -0.5058 -0.2760 -0.0783
15558TIP3    H168089   6.222   0.249  12.214 -0.3224 -1.0669 -0.6901
15558TIP3    H268090   6.317   0.359  12.254 -1.9800  1.2931 -2.8473
15559TIP3   OH268091   5.036   0.874  12.350 -0.5279  0.2030 -0.5570
15559TIP3    H168092   5.055   0.811  12.420 -3.8129 -0.3503  0.0033
15559TIP3    H268093   5.034   0.959  12.394 -2.2322 -0.1033  0.0379
15560TIP3   OH268094   5.360   1.803  11.681 -0.4343  0.4797 -0.0608
15560TIP3    H168095   5.315   1.743  11.621  0.4865  0.3175 -0.6024
15560TIP3    H268096   5.424   1.749  11.726 -0.2017  0.8768  0.0909
15561TIP3   OH268097   0.763   2.423   3.769  0.4869 -0.0866  0.3922
15561TIP3    H168098   0.813   2.374   3.834  1.2115  0.2931  0.1326
15561TIP3    H268099   0.788   2.384   3.685  0.4614  0.2017  0.2487
15562TIP3   OH268100   0.993   1.784  12.175 -0.7483  0.5167 -0.2721
15562TIP3    H168101   0.957   1.731  12.104  0.3220  1.4029 -1.5595
15562TIP3    H268102   1.045   1.851  12.129 -0.1160  1.1887  1.3649
15563TIP3   OH268103   6.226   6.186  16.772 -0.1024  0.0389  0.1393
15563TIP3    H168104   6.316   6.198  16.741  0.2407 -0.5786  0.8546
15563TIP3    H268105   6.193   6.112  16.721 -0.1867  0.2225 -0.0752
15564TIP3   OH268106   6.248   3.899   1.439 -0.1572  0.0747  0.9608
15564TIP3    H168107   6.247   3.959   1.364  3.2050  1.8840  2.1135
15564TIP3    H268108   6.237   3.956   1.515  1.9955 -0.8482  2.0496
15565TIP3   OH268109   2.650   2.878   5.242  0.0736  0.6024  0.5615
15565TIP3    H168110   2.669   2.843   5.155 -1.1281  0.3799  0.3765
15565TIP3    H268111   2.732   2.921   5.269  0.8443 -0.3901 -0.1482
15566TIP3   OH268112   0.581   6.020  13.955  0.1223  0.2227  0.0759
15566TIP3    H168113   0.498   6.032  14.000 -0.0752 -0.5865 -0.0576
15566TIP3    H268114   0.592   5.925  13.949  0.3022  0.3091 -1.2709
15567TIP3   OH268115   1.064   5.108  14.122  0.6167 -0.0148  0.2724
15567TIP3    H168116   1.063   5.076  14.212 -0.0458  0.2146  0.3513
15567TIP3    H268117   0.986   5.070  14.082  1.8424 -1.6249 -0.7603
15568TIP3   OH268118   5.864   6.715  14.643 -0.1742 -0.2481 -0.5220
15568TIP3    H168119   5.882   6.621  14.642  0.9975 -0.0850 -2.7632
15568TIP3    H268120   5.861   6.738  14.736  0.4102 -2.3410  0.0764
15569TIP3   OH268121   3.565   2.150  16.398 -0.2859  0.6448 -0.0852
15569TIP3    H168122   3.618   2.089  16.345  0.5262  0.9727  0.3359
15569TIP3    H268123   3.614   2.231  16.398 -1.2734  1.2612 -0.4750
15570TIP3   OH268124   0.548   0.175  16.304  0.0583  0.0721 -0.1458
15570TIP3    H168125   0.514   0.257  16.338 -0.0587 -0.5605  1.3267
15570TIP3    H268126   0.488   0.108  16.338  0.5991 -0.6952 -0.6626
15571TIP3   OH268127   1.348   6.141  16.889  0.0616 -0.1947 -0.0595
15571TIP3    H168128   1.269   6.193  16.875 -0.0350 -0.2260  0.3666
15571TIP3    H268129   1.322   6.075  16.953 -0.2296 -1.6946 -1.6760
15572TIP3   OH268130   6.452   0.131  15.506 -0.0021  0.4917  0.1330
15572TIP3    H168131   6.383   0.112  15.570 -0.5376 -1.3319 -0.9261
15572TIP3    H268132   6.528   0.083  15.537  0.6488  1.9607  0.9306
15573TIP3   OH268133   0.609   5.635  15.581  0.6021  0.1766 -0.0317
15573TIP3    H168134   0.524   5.677  15.592  0.6808  0.2206  0.4024
15573TIP3    H268135   0.671   5.708  15.573  0.4356  0.1690 -1.7584
15574TIP3   OH268136   1.854   0.224  13.688  0.2916 -0.4979  0.4149
15574TIP3    H168137   1.845   0.309  13.731 -0.5319 -1.2878  1.8867
15574TIP3    H268138   1.917   0.177  13.743 -0.4719 -1.3942  0.5371
15575TIP3   OH268139   2.565   0.246  11.966 -0.1623  0.2034  0.1938
15575TIP3    H168140   2.648   0.199  11.976  0.1166  0.2565 -1.5833
15575TIP3    H268141   2.573   0.320  12.026  0.6190 -0.3584  0.8261
15576TIP3   OH268142   3.406   0.438  13.334  0.7673  0.0257 -0.1694
15576TIP3    H168143   3.362   0.362  13.296 -2.5970  1.4656  0.4549
15576TIP3    H268144   3.431   0.492  13.259 -2.2310  0.9678 -0.6427
15577TIP3   OH268145   2.149   1.510   5.935  0.4873  0.0403 -0.7859
15577TIP3    H168146   2.242   1.491   5.927  0.6456  0.7519 -0.7241
15577TIP3    H268147   2.137   1.534   6.027  0.5880  1.6643 -1.1694
15578TIP3   OH268148   1.546   2.325  10.960  0.3016 -0.4554 -0.4221
15578TIP3    H168149   1.529   2.419  10.958  0.4823 -0.4015  0.2533
15578TIP3    H268150   1.595   2.312  11.041  1.5895 -0.9089 -1.2452
15579TIP3   OH268151   6.742   1.791  14.616 -0.4226 -0.2880 -0.0471
15579TIP3    H168152   6.669   1.734  14.591  0.2796 -1.7282  1.0017
15579TIP3    H268153   6.814   1.731  14.634  0.2908  0.9095  1.3665
15580TIP3   OH268154   5.538   5.021   0.046  0.2360  0.3666  0.4005
15580TIP3    H168155   5.456   5.051   0.007  0.8222  1.0591 -0.3408
15580TIP3    H268156   5.597   5.009  -0.029  0.8084 -0.1417  0.9193
15581TIP3   OH268157   0.183   0.727  16.231  0.1019 -0.5173  0.4749
15581TIP3    H168158   0.219   0.723  16.319 -0.7227 -3.3123  0.7674
15581TIP3    H268159   0.120   0.654  16.227 -0.5229  0.0626 -2.1442
15582TIP3   OH268160   2.702   4.553  11.557 -0.9200  0.0471  0.2446
15582TIP3    H168161   2.680   4.522  11.644 -1.2648 -0.8909 -0.1617
15582TIP3    H268162   2.792   4.585  11.564 -0.3902 -1.4404  0.5953
15583TIP3   OH268163   5.368   5.298  16.951  0.6068  0.0179  0.8457
15583TIP3    H168164   5.448   5.262  16.913  0.8475 -0.9296  2.1711
15583TIP3    H268165   5.397   5.341  17.032 -0.1042  0.4362  0.8861
15584TIP3   OH268166   0.701   1.147  12.229 -0.5513 -0.2895  0.3874
15584TIP3    H168167   0.699   1.242  12.242 -1.1844 -0.0153 -1.4618
15584TIP3    H268168   0.610   1.119  12.241 -1.0569 -0.1105 -2.3554
15585TIP3   OH268169   6.192   3.828  11.856  0.2078 -0.5815  0.5510
15585TIP3    H168170   6.100   3.829  11.828  0.0563 -0.1165  1.0625
15585TIP3    H268171   6.212   3.919  11.877  1.4123 -0.2906 -1.5646
15586TIP3   OH268172   2.978   0.936  15.224 -0.0373  0.2931  0.3979
15586TIP3    H168173   2.984   1.022  15.267 -2.1448 -0.1366  1.6866
15586TIP3    H268174   2.887   0.929  15.196  0.7019 -0.4640 -2.1529
15587TIP3   OH268175   5.192   6.572   4.354  0.5681 -0.2223 -0.4378
15587TIP3    H168176   5.271   6.612   4.390  0.7840 -0.0896 -1.0326
15587TIP3    H268177   5.123   6.593   4.416  0.9715 -0.2029  0.0074
15588TIP3   OH268178   4.115   2.445   3.910 -0.2812 -0.4931  0.6348
15588TIP3    H168179   4.059   2.461   3.986 -0.5348 -1.9575  0.7803
15588TIP3    H268180   4.181   2.384   3.941  0.2583 -0.2624 -0.0422
15589TIP3   OH268181   2.888   1.345   3.329 -0.3037  0.0490 -0.1099
15589TIP3    H168182   2.976   1.381   3.321  0.3406 -1.5706 -0.6115
15589TIP3    H268183   2.897   1.272   3.390 -0.7819 -1.6507 -1.9792
15590TIP3   OH268184   0.143   0.025   0.264  0.5660 -0.2156 -0.4637
15590TIP3    H168185   0.068   0.047   0.209 -0.5948 -0.5504  0.9398
15590TIP3    H268186   0.125   0.068   0.347  0.9863 -1.8514  0.5142
15591TIP3   OH268187   2.107   1.213   2.754 -1.0505  0.4722 -0.3703
15591TIP3    H168188   2.112   1.273   2.828 -1.6223  0.8028 -0.5961
15591TIP3    H268189   2.017   1.180   2.756 -0.3828 -1.4843  0.6078
15592TIP3   OH268190   0.285   3.492  12.205  0.2791  0.3692 -0.5184
15592TIP3    H168191   0.264   3.573  12.159  0.2885 -0.0256 -1.2325
15592TIP3    H268192   0.204   3.467  12.248  0.4836  1.1697  0.3679
15593TIP3   OH268193   3.798   1.395   2.426 -0.4711 -0.2532  0.5597
15593TIP3    H168194   3.741   1.323   2.452  1.5338 -2.6244 -1.1953
15593TIP3    H268195   3.785   1.403   2.331  1.3777 -0.2306  0.2679
15594TIP3   OH268196   0.590   6.462  16.621  0.2086  0.7789  0.4323
15594TIP3    H168197   0.579   6.368  16.638  1.5359  0.8460  1.8120
15594TIP3    H268198   0.508   6.501  16.652  0.1909  0.2134  1.1395
15595TIP3   OH268199   1.476   3.050  11.366  0.0260  0.3442  0.4776
15595TIP3    H168200   1.424   3.067  11.444  0.6685  1.8542  0.5903
15595TIP3    H268201   1.545   3.115  11.367  0.7328 -0.3388 -0.7530
15596TIP3   OH268202   3.841   1.106  15.422  0.5420  0.0935 -0.4876
15596TIP3    H168203   3.842   1.075  15.512  0.3823 -1.5791 -1.0095
15596TIP3    H268204   3.751   1.135  15.407 -0.7563 -3.7389 -1.2960
15597TIP3   OH268205   1.729   1.736  11.917  0.4387  0.2787 -0.1051
15597TIP3    H168206   1.655   1.681  11.890  1.1607 -1.8426  1.8988
15597TIP3    H268207   1.691   1.823  11.929 -1.5741 -0.5751  0.1459
15598TIP3   OH268208   0.432   4.985  15.506 -0.5129 -0.0016 -0.1310
15598TIP3    H168209   0.445   5.054  15.441  0.9331 -0.5075 -0.4381
15598TIP3    H268210   0.337   4.975  15.513 -0.7221  1.3366 -0.7930
15599TIP3   OH268211   0.883   4.640  16.686  0.2978  0.0640  0.5919
15599TIP3    H168212   0.812   4.687  16.644  2.3674  1.2058 -1.9330
15599TIP3    H268213   0.934   4.708  16.730  2.1756  0.0029 -1.3367
15600TIP3   OH268214   2.535   0.009  14.072 -0.1696 -0.2234 -0.0399
15600TIP3    H168215   2.532   0.104  14.075 -0.3543 -0.1820  4.2950
15600TIP3    H268216   2.627  -0.011  14.052 -0.1458  0.7831 -1.0926
15601TIP3   OH268217   4.163   6.292  12.300  0.1360  0.2915  0.0248
15601TIP3    H168218   4.128   6.365  12.350  0.3093 -0.2195  0.9177
15601TIP3    H268219   4.223   6.332  12.237 -1.5408  1.1108 -1.0876
15602TIP3   OH268220   3.594   0.626  16.522  0.0391 -0.1139  0.3657
15602TIP3    H168221   3.599   0.684  16.598  1.3025 -0.0405  0.2384
15602TIP3    H268222   3.587   0.538  16.559  0.3544 -0.0541  0.5681
15603TIP3   OH268223   5.899   3.502  16.062 -0.0961  0.3622  0.2162
15603TIP3    H168224   5.827   3.545  16.107 -1.6981 -0.0408 -1.8176
15603TIP3    H268225   5.858   3.433  16.011  1.6733  0.3553 -1.3253
15604TIP3   OH268226   1.180   3.057  15.967  0.5020  0.1765  0.0328
15604TIP3    H168227   1.263   3.103  15.958  0.1419  0.5279 -2.0433
15604TIP3    H268228   1.115   3.120  15.935 -0.4672 -0.4273  0.7598
15605TIP3   OH268229   6.066   3.725   6.037  0.0151  0.0951 -0.5668
15605TIP3    H168230   6.048   3.633   6.019  1.0466 -0.0848 -0.7733
15605TIP3    H268231   5.981   3.762   6.061 -0.4867 -0.8108 -0.8848
15606TIP3   OH268232   1.106   1.053   3.124 -0.2381 -0.2561  0.2073
15606TIP3    H168233   1.054   1.072   3.203 -0.2541  2.4305 -0.3678
15606TIP3    H268234   1.186   1.013   3.158 -1.0297 -0.9064  1.4132
15607TIP3   OH268235   2.414   3.819  14.095  0.3151 -0.0436  0.5786
15607TIP3    H168236   2.474   3.884  14.131 -0.1222  0.6711  0.0556
15607TIP3    H268237   2.454   3.794  14.011 -0.6033  1.2135 -0.2758
15608TIP3   OH268238   5.405   2.077   3.786 -1.0040 -0.2190  0.0824
15608TIP3    H168239   5.347   2.034   3.849 -1.9631 -0.1340 -0.7174
15608TIP3    H268240   5.346   2.107   3.716 -0.0794  0.5127 -0.3993
15609TIP3   OH268241   0.276   1.901  12.193 -0.1326  0.1389 -0.2649
15609TIP3    H168242   0.181   1.901  12.202 -0.3634 -2.0663 -1.7733
15609TIP3    H268243   0.306   1.840  12.261  0.2254  0.8303  0.2080
15610TIP3   OH268244   3.551   1.266  15.967  0.2424 -0.3398 -0.0107
15610TIP3    H168245   3.578   1.335  15.906 -0.1581 -0.6004 -0.4865
15610TIP3    H268246   3.615   1.271  16.038  1.0162 -0.3599 -0.6855
15611TIP3   OH268247   4.343   1.723  14.806  0.2931 -0.5821  0.2736
15611TIP3    H168248   4.314   1.791  14.745  1.2842  0.3629  0.8206
15611TIP3    H268249   4.266   1.701  14.857  0.1287  0.6715  0.5829
15612TIP3   OH268250   2.094   2.582  16.628 -0.3096  0.0121  0.0810
15612TIP3    H168251   2.145   2.651  16.669  1.3619 -0.0309 -1.7709
15612TIP3    H268252   2.088   2.608  16.536 -2.9151 -0.4478  0.0470
15613TIP3   OH268253   1.599   5.179   2.548 -0.3116 -0.1002 -0.2987
15613TIP3    H168254   1.531   5.217   2.492 -0.7663  0.5067  0.6363
15613TIP3    H268255   1.658   5.252   2.567 -0.7432 -0.0209  0.8521
15614TIP3   OH268256   1.197   6.332  13.004 -0.1152 -0.3072 -0.0968
15614TIP3    H168257   1.216   6.242  13.031 -0.4851 -0.1319  0.7569
15614TIP3    H268258   1.105   6.346  13.029  1.1182  1.7973  3.9990
15615TIP3   OH268259   0.257   2.874   5.133  0.2543 -0.4009  0.1620
15615TIP3    H168260   0.346   2.860   5.103  0.5503 -1.2699  1.3815
15615TIP3    H268261   0.210   2.794   5.110 -0.5412  0.4781 -1.4866
15616TIP3   OH268262   1.701   6.565  16.734 -0.1373  0.0184 -0.1249
15616TIP3    H168263   1.654   6.604  16.661 -0.7067  1.4032  0.9262
15616TIP3    H268264   1.733   6.641  16.784  0.0023 -0.8842  1.1911
15617TIP3   OH268265   1.030   0.884  10.489  0.3112  0.6209  0.1303
15617TIP3    H168266   1.082   0.821  10.539  0.5316  0.1411 -0.6701
15617TIP3    H268267   1.016   0.840  10.404  1.3795  2.0747 -0.8417
15618TIP3   OH268268   0.816   1.038   0.785 -0.2644  0.2627 -0.3285
15618TIP3    H168269   0.776   0.994   0.710 -0.5809 -0.5615  0.3076
15618TIP3    H268270   0.809   0.975   0.856 -1.7884  1.7322  0.9387
15619TIP3   OH268271   4.110   0.369   4.148  0.4372 -0.0175  0.0279
15619TIP3    H168272   4.161   0.413   4.216 -1.1519  0.3856  1.0169
15619TIP3    H268273   4.162   0.292   4.125  0.0516 -1.4645  3.3784
15620TIP3   OH268274   4.382   4.848   5.020 -0.5526  0.2994 -0.2180
15620TIP3    H168275   4.408   4.863   5.111  3.4948  1.6302 -1.4155
15620TIP3    H268276   4.375   4.753   5.012 -0.0427  0.1211  1.2472
15621TIP3   OH268277   4.789   5.099  11.678  0.0684 -0.5594  0.5462
15621TIP3    H168278   4.783   5.078  11.585 -0.3278 -0.5679  0.5703
15621TIP3    H268279   4.843   5.029  11.715  0.7775 -0.1927  0.2128
15622TIP3   OH268280   4.660   6.158  12.166  0.4561 -0.1257  0.1957
15622TIP3    H168281   4.666   6.088  12.232  0.4088  0.4687  0.8391
15622TIP3    H268282   4.724   6.223  12.194  2.3373 -0.9729 -1.7616
15623TIP3   OH268283   0.411   3.437  13.060 -0.3770  0.0173 -0.7330
15623TIP3    H168284   0.456   3.489  12.993 -1.2808  1.8903  0.0443
15623TIP3    H268285   0.479   3.382  13.098  1.1254  2.1284 -0.1825
15624TIP3   OH268286   0.137   6.536  11.730 -0.0562  0.3699  0.0920
15624TIP3    H168287   0.069   6.601  11.747  1.1074  1.6271  0.1904
15624TIP3    H268288   0.168   6.556  11.641  0.9074  0.5485  0.4465
15625TIP3   OH268289   4.877   0.886   1.149  0.3974  0.2771 -0.0614
15625TIP3    H168290   4.821   0.955   1.114  0.0869 -0.4676 -1.0788
15625TIP3    H268291   4.879   0.903   1.244 -1.6138  0.3029  0.0196
15626TIP3   OH268292   5.417   5.471  17.184 -0.0009 -0.1815 -0.4242
15626TIP3    H168293   5.387   5.562  17.190  0.6843  0.1322 -1.4937
15626TIP3    H268294   5.512   5.478  17.175  0.2706 -1.0932  1.3528
15627TIP3   OH268295   2.566   5.299   1.549 -0.4016  0.0684 -0.0803
15627TIP3    H168296   2.482   5.324   1.511 -0.3018 -0.4100 -0.6179
15627TIP3    H268297   2.631   5.329   1.486 -0.2443 -0.8421 -0.3633
15628TIP3   OH268298   0.182   1.301   0.008 -0.5135 -0.1237  0.7319
15628TIP3    H168299   0.264   1.270  -0.030 -0.7160  1.0502 -0.7771
15628TIP3    H268300   0.125   1.224   0.009 -0.7900 -0.0752 -2.2694
15629TIP3   OH268301   3.970   3.711   2.856  0.0004  0.2488  0.0132
15629TIP3    H168302   3.919   3.635   2.827  1.4315 -0.6126 -0.3516
15629TIP3    H268303   4.012   3.743   2.776 -0.7193  1.5749  0.1282
15630TIP3   OH268304   4.579   6.490   0.027  0.1285  0.3298 -0.4467
15630TIP3    H168305   4.484   6.489   0.012  0.2677  0.6178 -1.3959
15630TIP3    H268306   4.617   6.472  -0.058  0.9875  3.7098 -0.9084
15631TIP3   OH268307   4.777   3.195   5.915  0.5750  0.3101 -0.0396
15631TIP3    H168308   4.836   3.241   5.974 -0.6544  1.2759  0.4862
15631TIP3    H268309   4.713   3.261   5.889  0.7468 -0.2410 -2.0172
15632TIP3   OH268310   2.974   3.168   2.206 -0.3542  0.5147 -0.3265
15632TIP3    H168311   2.924   3.190   2.285 -0.6583 -1.6241  0.1564
15632TIP3    H268312   2.971   3.072   2.203  0.1072  0.5318 -2.6578
15633TIP3   OH268313   2.010   5.091  12.606 -0.6343 -0.0254 -0.2875
15633TIP3    H168314   1.938   5.146  12.637  0.8657  1.2977  1.0480
15633TIP3    H268315   2.088   5.147  12.615  1.0045 -2.3741  1.2007
15634TIP3   OH268316   4.025   0.982   2.097  0.1588 -0.5988  0.5072
15634TIP3    H168317   3.954   1.046   2.105 -1.5999 -2.6175  2.6228
15634TIP3    H268318   4.099   1.024   2.141  0.1484  1.2740 -1.1290
15635TIP3   OH268319   4.212   0.239   2.365  0.4106 -0.4163  0.7558
15635TIP3    H168320   4.262   0.166   2.401  1.0721  0.4290  1.6281
15635TIP3    H268321   4.222   0.231   2.270  2.6239 -0.0350  0.8917
15636TIP3   OH268322   1.982   4.917  11.627  0.7792 -0.2897  0.4138
15636TIP3    H168323   1.926   4.900  11.552  0.3008  0.6008  0.5620
15636TIP3    H268324   2.071   4.917  11.591  0.5486  0.2356 -0.1719
15637TIP3   OH268325   5.879   1.760   4.600  0.6813  0.2091  0.1722
15637TIP3    H168326   5.878   1.681   4.547  1.1507 -0.5056  1.1962
15637TIP3    H268327   5.960   1.754   4.651 -0.1699  0.4154  1.6176
15638TIP3   OH268328   3.882   0.514  16.360  0.0370  0.2713  0.4870
15638TIP3    H168329   3.960   0.475  16.401 -0.2047 -0.1105  0.5889
15638TIP3    H268330   3.809   0.487  16.416 -0.0819  1.2954  0.8379
15639TIP3   OH268331   0.235   6.679   4.266 -0.5026  0.1852  0.4245
15639TIP3    H168332   0.237   6.591   4.304 -0.8549  0.3622  0.8669
15639TIP3    H268333   0.291   6.731   4.324 -2.0337  0.7414  1.4574
15640TIP3   OH268334   4.893   0.140   2.984 -0.4549  0.5356  0.1366
15640TIP3    H168335   4.946   0.064   3.009 -0.5799  0.7110  0.9408
15640TIP3    H268336   4.952   0.193   2.930 -0.6332 -0.5558 -1.2151
15641TIP3   OH268337   3.483   0.316   0.280 -0.4060  0.1539 -0.4772
15641TIP3    H168338   3.512   0.385   0.340  1.2325 -0.1483 -0.8802
15641TIP3    H268339   3.400   0.348   0.245 -0.8282  0.8617  1.0587
15642TIP3   OH268340   4.110   5.604  17.012  0.3288 -0.2585  0.0469
15642TIP3    H168341   4.131   5.568  17.098  2.4590  1.1912  0.2053
15642TIP3    H268342   4.178   5.570  16.955 -1.1842 -1.3763 -1.1798
15643TIP3   OH268343   3.474   6.469  16.006  0.7217  0.0982 -0.0282
15643TIP3    H168344   3.543   6.407  15.985  0.4496 -0.4058  0.5061
15643TIP3    H268345   3.395   6.431  15.968  0.6178  0.3184 -0.0361
15644TIP3   OH268346   5.106   6.056   1.019  0.1222 -0.0753 -0.2592
15644TIP3    H168347   5.100   5.983   1.080 -0.7763  0.2922  0.1153
15644TIP3    H268348   5.018   6.061   0.980 -0.7966  2.5842  1.8350
15645TIP3   OH268349   5.938   1.062   3.917 -0.0285 -0.1107  0.3924
15645TIP3    H168350   5.884   1.041   3.840  2.1621 -1.0575 -0.9743
15645TIP3    H268351   5.914   0.994   3.981  0.9137 -1.8063 -0.9461
15646TIP3   OH268352   5.058   0.928   0.687  0.5273  0.6342  1.0563
15646TIP3    H168353   5.084   0.849   0.639  1.7763  2.8011 -2.1942
15646TIP3    H268354   5.096   0.916   0.774  0.5161 -2.3705  0.7619
15647TIP3   OH268355   5.719   2.938  14.705  0.2488  0.2926  0.2128
15647TIP3    H168356   5.805   2.900  14.721  0.7336  0.7204 -1.2152
15647TIP3    H268357   5.698   2.985  14.785  1.2972  0.0804  0.6228
15648TIP3   OH268358   4.347   3.366  12.199  0.1975 -0.4618 -0.7642
15648TIP3    H168359   4.438   3.336  12.203  0.7205  1.1465  1.4345
15648TIP3    H268360   4.352   3.453  12.159 -0.2218  0.0525  0.2730
15649TIP3   OH268361   2.787   6.694   5.524 -0.1131 -0.0572 -0.0782
15649TIP3    H168362   2.692   6.683   5.516 -0.1259  0.3243 -0.5114
15649TIP3    H268363   2.824   6.622   5.473 -0.1737  0.1261 -0.3808
15650TIP3   OH268364   6.582   5.419   4.344  0.3014 -0.0900  0.3486
15650TIP3    H168365   6.561   5.486   4.409  1.5036 -0.6387  1.3380
15650TIP3    H268366   6.549   5.455   4.262  1.4042  2.0152  0.7514
15651TIP3   OH268367   3.489   4.136  15.892 -0.5204 -0.1919  0.7984
15651TIP3    H168368   3.452   4.067  15.947 -0.7887 -0.2842  0.5067
15651TIP3    H268369   3.584   4.131  15.908 -0.5758 -0.3683  1.0748
15652TIP3   OH268370   5.637   3.486   3.164 -0.3338 -0.3276 -0.5115
15652TIP3    H168371   5.551   3.450   3.143 -0.4892  0.5458 -1.4544
15652TIP3    H268372   5.622   3.543   3.239 -0.1564 -1.8351  0.7297
15653TIP3   OH268373   2.805   0.417  12.961  0.4862 -0.8221  0.3780
15653TIP3    H168374   2.873   0.424  12.894 -0.4076 -1.0819 -0.5912
15653TIP3    H268375   2.724   0.411  12.911 -0.1480 -1.7318  1.4760
15654TIP3   OH268376   2.359   6.002  14.343  0.1321  0.0663  0.2996
15654TIP3    H168377   2.385   6.088  14.310  1.2523 -0.5463 -0.4565
15654TIP3    H268378   2.296   5.970  14.279 -1.5013  0.9446  1.3896
15655TIP3   OH268379   2.225   2.199   3.904  0.1962 -0.0801  0.1755
15655TIP3    H168380   2.223   2.190   3.809 -0.0565 -1.2010  0.2810
15655TIP3    H268381   2.136   2.223   3.928 -0.2896 -1.9521  0.3217
15656TIP3   OH268382   5.659   3.268   2.500  0.3119 -0.2601 -0.1071
15656TIP3    H168383   5.732   3.241   2.444  2.3926  0.4919  2.0287
15656TIP3    H268384   5.658   3.203   2.570  0.4176  0.9283  1.0510
15657TIP3   OH268385   2.510   5.960   1.343  0.8062 -0.8096  0.1155
15657TIP3    H168386   2.539   6.000   1.425 -1.6220 -1.1617  1.2053
15657TIP3    H268387   2.477   5.874   1.368 -0.7465 -0.6039 -1.0874
15658TIP3   OH268388   0.091   3.474   1.670  0.7378  0.0043  0.2590
15658TIP3    H168389   0.092   3.570   1.674 -2.9349  0.1676  0.5439
15658TIP3    H268390   0.056   3.454   1.583 -0.6111 -0.9676  0.9895
15659TIP3   OH268391   4.207   1.755   3.683 -0.1619  0.3408  0.2095
15659TIP3    H168392   4.265   1.794   3.748  0.1583  0.6513 -0.2525
15659TIP3    H268393   4.252   1.770   3.599 -0.2531 -0.6074 -0.0226
15660TIP3   OH268394   2.009   1.820  15.547 -0.1746 -0.6775  0.3172
15660TIP3    H168395   1.999   1.914  15.557  0.2552 -0.4226 -1.3474
15660TIP3    H268396   2.004   1.785  15.636 -0.8604  0.8554  0.8985
15661TIP3   OH268397   1.877   6.083   2.470 -0.1393  0.3565  0.2760
15661TIP3    H168398   1.888   5.999   2.513  3.6161 -0.3609 -1.6606
15661TIP3    H268399   1.833   6.062   2.387 -0.2211  0.4890  0.2852
15662TIP3   OH268400   5.367   5.262   1.496 -0.1389  0.0691  0.5498
15662TIP3    H168401   5.297   5.198   1.493  0.2708 -0.3418 -1.4298
15662TIP3    H268402   5.324   5.343   1.525 -0.7238 -0.9345  2.7200
15663TIP3   OH268403   3.362   5.865  16.943 -0.0866 -0.2764  0.2393
15663TIP3    H168404   3.408   5.879  17.026  0.2667  0.2316 -0.0313
15663TIP3    H268405   3.271   5.887  16.961  0.5279  3.5403 -0.3462
15664TIP3   OH268406   5.284   3.348   5.156  0.2327 -0.7145 -0.2401
15664TIP3    H168407   5.265   3.266   5.203 -0.1777  0.5218  1.8737
15664TIP3    H268408   5.229   3.344   5.078  0.4083 -2.5548 -0.3178
15665TIP3   OH268409   3.005   6.788  12.692  0.2577 -0.9553 -0.4277
15665TIP3    H168410   2.979   6.878  12.711  0.5098 -1.0521  0.4174
15665TIP3    H268411   3.099   6.787  12.708  0.4381 -1.1088 -1.4755
15666TIP3   OH268412   1.724   3.587   4.991 -0.7381 -0.0592  0.6597
15666TIP3    H168413   1.638   3.605   4.954 -0.5822  1.1334  0.8390
15666TIP3    H268414   1.752   3.506   4.949 -1.8191 -0.2999  0.3832
15667TIP3   OH268415   5.799   6.125  11.941  0.1442 -0.2787  0.1167
15667TIP3    H168416   5.778   6.054  11.879 -0.3400  1.0223 -1.2804
15667TIP3    H268417   5.878   6.165  11.905  0.2356  0.0888  0.7233
15668TIP3   OH268418   3.732   5.699   0.260 -0.2164 -0.2759  0.4728
15668TIP3    H168419   3.747   5.755   0.336  0.6731  0.4911 -0.2470
15668TIP3    H268420   3.785   5.621   0.277  0.4479  0.1441  0.4012
15669TIP3   OH268421   3.160   0.703   6.650 -0.4316 -0.1182  0.0165
15669TIP3    H168422   3.091   0.666   6.705 -1.2150  0.7107 -0.3878
15669TIP3    H268423   3.160   0.648   6.572  1.2072 -1.7853  1.1036
15670TIP3   OH268424   0.737   3.441  14.475 -0.7679  0.5374  0.6427
15670TIP3    H168425   0.803   3.409  14.537  1.1587  2.4848 -0.2593
15670TIP3    H268426   0.759   3.397  14.392  1.6363  3.5381 -0.4987
15671TIP3   OH268427   0.805   0.249  11.597 -0.3793  0.1199  0.0801
15671TIP3    H168428   0.791   0.334  11.555 -0.0897  0.0321 -0.1995
15671TIP3    H268429   0.868   0.205  11.540 -0.8818 -0.4647 -0.0380
15672TIP3   OH268430   0.596   5.039   0.347 -0.8251  0.0693  0.3582
15672TIP3    H168431   0.516   5.079   0.313  0.0053  2.2208  0.8087
15672TIP3    H268432   0.626   5.099   0.415  0.2761 -1.5760  1.3981
15673TIP3   OH268433   4.493   1.973  11.742  0.3243  0.2009 -0.4173
15673TIP3    H168434   4.416   1.920  11.721  2.0025 -2.2519 -0.7426
15673TIP3    H268435   4.566   1.912  11.738  2.2586  2.3266  0.4230
15674TIP3   OH268436   2.609   2.221  15.233  0.3518  0.1715 -0.2425
15674TIP3    H168437   2.581   2.309  15.207  0.7548  0.0020 -1.2913
15674TIP3    H268438   2.608   2.223  15.329  0.3981  1.3326 -0.2528
15675TIP3   OH268439   0.152   6.635   4.625 -0.1139 -0.3601 -0.1664
15675TIP3    H168440   0.228   6.577   4.620 -1.2738 -1.9347 -0.0425
15675TIP3    H268441   0.082   6.587   4.581 -0.8576  1.4133 -1.0220
15676TIP3   OH268442   4.134   0.921   2.581  0.0621  0.5033 -0.0728
15676TIP3    H168443   4.178   0.924   2.496 -0.0668  0.1694 -0.1548
15676TIP3    H268444   4.065   0.987   2.576  0.9581  1.4834  0.2881
15677TIP3   OH268445   6.015   5.505   4.071 -0.8264  0.0604 -0.0199
15677TIP3    H168446   6.091   5.522   4.127 -1.3681  0.1266  0.7242
15677TIP3    H268447   5.963   5.442   4.121  0.6463 -3.2163 -2.2666
15678TIP3   OH268448   4.592   5.892   0.036 -0.3458  0.0690  0.4455
15678TIP3    H168449   4.623   5.981   0.055 -0.6392  0.1500  0.5547
15678TIP3    H268450   4.552   5.863   0.117 -1.6308  0.4277 -0.0232
15679TIP3   OH268451   0.670   4.100   1.831 -0.0353  0.2891  0.2669
15679TIP3    H168452   0.733   4.061   1.770 -0.0431 -0.1037  0.5022
15679TIP3    H268453   0.672   4.193   1.811  1.0314  0.3623  0.6306
15680TIP3   OH268454   3.934   2.602  14.023  0.1039  0.0648  0.0308
15680TIP3    H168455   3.863   2.647  13.977 -0.6898 -1.0978  0.0914
15680TIP3    H268456   3.970   2.669  14.082 -0.3351  0.9201 -0.6472
15681TIP3   OH268457   3.977   4.295  15.933 -0.5587  0.2997  0.0187
15681TIP3    H168458   4.031   4.310  15.855 -0.9812 -0.0070 -0.3382
15681TIP3    H268459   3.931   4.378  15.946  0.4812  0.7931  0.7195
15682TIP3   OH268460   6.771   3.558  15.391  0.0337  0.2743 -0.4638
15682TIP3    H168461   6.691   3.526  15.435 -0.2745  1.1426 -0.3732
15682TIP3    H268462   6.835   3.488  15.405 -0.6778 -0.3855 -0.4354
15683TIP3   OH268463   4.462   4.998   3.847  0.2074  0.8319 -0.2881
15683TIP3    H168464   4.533   4.982   3.784  2.6550  3.0819  1.6810
15683TIP3    H268465   4.425   5.082   3.821  2.0041  2.3566  1.7772
15684TIP3   OH268466   3.041   1.834   4.932  0.3470 -0.3798  0.2167
15684TIP3    H168467   2.953   1.799   4.938  0.6369 -1.4401 -1.3579
15684TIP3    H268468   3.050   1.863   4.841  0.2811  3.4849  1.2485
15685TIP3   OH268469   3.655   4.787   5.126 -0.0042 -0.2893 -0.0665
15685TIP3    H168470   3.704   4.749   5.053  1.5654  0.5306  0.5186
15685TIP3    H268471   3.646   4.715   5.189 -1.9299 -1.1942 -1.2524
15686TIP3   OH268472   1.929   5.332   4.244  0.4460  0.3629  0.0318
15686TIP3    H168473   1.949   5.367   4.331 -0.2910  2.1114 -0.4447
15686TIP3    H268474   1.833   5.333   4.240  0.2728 -3.0269  0.4225
15687TIP3   OH268475   1.121   5.758  13.102  0.4369 -0.2007  1.1614
15687TIP3    H168476   1.063   5.681  13.103 -2.2465  1.6349  3.5134
15687TIP3    H268477   1.172   5.750  13.182  2.3862 -0.9403 -0.0798
15688TIP3   OH268478   6.533   0.551   6.889  0.4226  0.0207  0.0417
15688TIP3    H168479   6.541   0.635   6.933  2.3778 -0.4912  0.7823
15688TIP3    H268480   6.495   0.493   6.956 -0.8993  0.2669 -0.4600
15689TIP3   OH268481   5.172   3.518   1.951 -0.3068 -0.3449  0.6700
15689TIP3    H168482   5.185   3.487   2.041 -1.6669 -0.2320  0.9327
15689TIP3    H268483   5.178   3.613   1.957  1.1521 -0.4000  0.3475
15690TIP3   OH268484   6.596   3.928   5.890  0.2937  0.1122  1.1873
15690TIP3    H168485   6.535   3.900   5.959 -1.5858  0.7185 -0.1510
15690TIP3    H268486   6.540   3.963   5.821  2.1084 -0.5510 -0.7124
15691TIP3   OH268487   3.402   3.817  14.822 -0.0914  0.0549 -0.2830
15691TIP3    H168488   3.470   3.854  14.766 -0.9480 -1.5534 -2.5529
15691TIP3    H268489   3.399   3.725  14.798 -0.2790 -0.8545  2.7705
15692TIP3   OH268490   3.841   4.653   1.440  0.5638 -0.2409  0.9459
15692TIP3    H168491   3.916   4.700   1.478  0.6267 -0.0346  0.5730
15692TIP3    H268492   3.864   4.561   1.448 -0.0879 -0.2880  2.7978
15693TIP3   OH268493   3.650   0.803  12.439  0.2835 -0.0527  0.0976
15693TIP3    H168494   3.712   0.737  12.470 -1.3065 -1.4045  0.5521
15693TIP3    H268495   3.574   0.752  12.408 -0.0561  1.4521 -1.7759
15694TIP3   OH268496   4.455   5.141   5.539  0.2083  0.1197  0.0910
15694TIP3    H168497   4.440   5.191   5.619  0.6893  0.1250  0.1778
15694TIP3    H268498   4.514   5.195   5.487  2.9834 -1.5065  1.3381
15695TIP3   OH268499   5.227   3.722   4.196 -0.3676 -0.1230  0.4154
15695TIP3    H168500   5.170   3.650   4.170  0.5756 -1.3411  1.5334
15695TIP3    H268501   5.225   3.783   4.123 -1.8017 -0.9173 -0.2423
15696TIP3   OH268502   4.905   4.192   0.900 -0.3292 -0.0808  0.0430
15696TIP3    H168503   4.851   4.155   0.969 -2.1453  0.9326 -0.7603
15696TIP3    H268504   4.990   4.208   0.941 -0.8055 -1.1782  1.5134
15697TIP3   OH268505   0.432   6.448   1.659  0.3136 -0.7986  0.1604
15697TIP3    H168506   0.511   6.476   1.612  0.1647  1.8004  1.3171
15697TIP3    H268507   0.386   6.392   1.596  1.7363 -0.1889 -1.5222
15698TIP3   OH268508   1.872   1.839   0.734  0.5830  0.6817  0.0620
15698TIP3    H168509   1.913   1.876   0.656 -0.5743  2.2524  0.1678
15698TIP3    H268510   1.840   1.914   0.783 -0.4883 -0.3885  1.0673
15699TIP3   OH268511   5.441   4.720  15.852  0.7133 -0.4071 -0.2162
15699TIP3    H168512   5.493   4.688  15.779 -0.2661  0.1330 -1.1906
15699TIP3    H268513   5.406   4.804  15.821 -2.3958 -1.6736 -0.4632
15700TIP3   OH268514   4.346   2.273   3.771  0.3060  0.1472 -0.5783
15700TIP3    H168515   4.376   2.329   3.699 -0.5623  4.6705  2.1842
15700TIP3    H268516   4.423   2.224   3.798  1.4502  0.8224 -2.4275
15701TIP3   OH268517   1.022   5.804  14.000 -0.3183  0.1026  0.3199
15701TIP3    H168518   0.963   5.878  14.018  0.4655  0.1761  3.0950
15701TIP3    H268519   1.031   5.802  13.905 -1.6254  2.5774  0.0789
15702TIP3   OH268520   5.484   2.996  13.036  0.0430 -0.5280 -0.2116
15702TIP3    H168521   5.542   3.054  13.086 -0.1243 -2.0726  1.8754
15702TIP3    H268522   5.534   2.915  13.025 -0.2620 -0.5390 -1.8610
15703TIP3   OH268523   0.852   4.784   4.361 -0.5598  0.2819  0.2172
15703TIP3    H168524   0.774   4.839   4.365 -0.3179  0.6740 -0.3755
15703TIP3    H268525   0.921   4.842   4.330 -0.0961 -0.1385  0.4446
15704TIP3   OH268526   2.034   3.235  10.593 -0.4591  0.1230 -0.4166
15704TIP3    H168527   1.997   3.245  10.681  0.3560 -0.1700 -0.0257
15704TIP3    H268528   2.035   3.323  10.557  1.2838  0.6341  0.7532
15705TIP3   OH268529   2.962   0.884   5.050  0.2246 -0.9835  0.4115
15705TIP3    H168530   2.952   0.854   5.140  0.7392 -1.2058  0.3977
15705TIP3    H268531   2.937   0.977   5.053  1.6151 -0.6099  1.0806
15706TIP3   OH268532   0.748   4.402   2.287  0.1641 -0.4996 -0.7724
15706TIP3    H168533   0.743   4.477   2.228 -0.2441  1.5298  1.6990
15706TIP3    H268534   0.834   4.364   2.270  1.5540  2.1938 -0.2539
15707TIP3   OH268535   4.032   1.487  14.435  0.2214  0.2120 -0.6587
15707TIP3    H168536   4.096   1.508  14.367  1.5305 -0.6087  0.2786
15707TIP3    H268537   4.061   1.404  14.471 -0.7070  0.4057  0.6072
15708TIP3   OH268538   3.525   2.279  12.833 -0.6245 -0.0062 -0.0839
15708TIP3    H168539   3.584   2.208  12.809  2.3894  1.6448  1.8999
15708TIP3    H268540   3.460   2.238  12.889 -1.1975 -1.7746 -1.9063
15709TIP3   OH268541   5.705   2.549  14.087  0.0502  0.2790 -0.2922
15709TIP3    H168542   5.709   2.514  13.998 -0.4646  1.0860 -0.6470
15709TIP3    H268543   5.689   2.472  14.142  0.3027 -0.2202 -0.8927
15710TIP3   OH268544   1.325   0.909   3.952 -0.5056  0.4977  0.1932
15710TIP3    H168545   1.321   0.946   4.040  2.6131  2.5137 -0.3398
15710TIP3    H268546   1.408   0.861   3.950  0.5365  2.1859 -2.1353
15711TIP3   OH268547   4.163   2.522  13.528  0.5134 -0.0920 -1.0252
15711TIP3    H168548   4.080   2.476  13.515  1.4936 -1.7203 -1.8992
15711TIP3    H268549   4.178   2.569  13.446  1.1590 -1.0552 -1.4860
15712TIP3   OH268550   0.091   0.637  15.882 -0.1018 -0.7060  0.4458
15712TIP3    H168551   0.159   0.702  15.861  0.2183 -1.4914 -1.1299
15712TIP3    H268552   0.124   0.555  15.846 -2.1454 -0.9909 -0.9960
15713TIP3   OH268553   6.094   4.805  10.635  0.1507 -1.0130  0.2727
15713TIP3    H168554   6.068   4.890  10.671 -0.0868 -1.2962  0.7734
15713TIP3    H268555   6.018   4.749  10.650  0.6749 -1.5847  0.8440
15714TIP3   OH268556   5.647   5.726  17.039  0.2551 -0.2463  0.1322
15714TIP3    H168557   5.739   5.734  17.063  0.9860  0.4749 -2.5327
15714TIP3    H268558   5.624   5.636  17.063  1.6491 -0.4400  0.8587
15715TIP3   OH268559   5.566   0.193   5.895 -0.7373 -0.7624  0.0295
15715TIP3    H168560   5.648   0.199   5.943  0.3313 -2.2213 -1.4979
15715TIP3    H268561   5.499   0.187   5.963  0.3885  0.3785  1.3125
15716TIP3   OH268562   4.584   5.372   1.427 -0.8325  0.2779 -0.0940
15716TIP3    H168563   4.625   5.289   1.451  0.4884  0.5665 -1.1956
15716TIP3    H268564   4.623   5.437   1.485 -0.9017  0.3104 -0.0839
15717TIP3   OH268565   3.448   3.857   3.300  0.2924  0.9242  0.5715
15717TIP3    H168566   3.500   3.930   3.335  1.8033  0.0352  0.2888
15717TIP3    H268567   3.513   3.793   3.273 -0.8447  0.9039 -2.4935
15718TIP3   OH268568   2.975   5.251  11.377 -0.4212 -0.0958  0.3435
15718TIP3    H168569   3.012   5.298  11.451 -0.3027 -0.0235  0.2390
15718TIP3    H268570   2.900   5.204  11.413 -1.3659  1.2315  0.1852
15719TIP3   OH268571   1.530   4.367   2.740  0.3190  0.1193 -0.5124
15719TIP3    H168572   1.468   4.410   2.681  0.3470  0.7575 -0.0908
15719TIP3    H268573   1.590   4.320   2.682 -0.1838  0.0072 -0.9502
15720TIP3   OH268574   0.628   2.131  11.285 -0.3983 -0.6450 -0.4747
15720TIP3    H168575   0.687   2.100  11.354 -1.2247  0.7403  0.8963
15720TIP3    H268576   0.674   2.207  11.247  0.0192 -1.3544 -1.4375
15721TIP3   OH268577   1.012   4.850  11.032 -0.3521  0.1496 -0.4137
15721TIP3    H168578   1.002   4.913  11.103 -0.2163 -1.4155  1.0383
15721TIP3    H268579   1.076   4.891  10.973 -0.3679  1.4249  0.4049
15722TIP3   OH268580   4.777   5.280   3.966 -0.2422 -0.1653 -0.0854
15722TIP3    H168581   4.777   5.375   3.979 -1.4294  0.0887 -1.6112
15722TIP3    H268582   4.701   5.249   4.014  0.2561 -0.3860  0.5742
15723TIP3   OH268583   6.125   4.266   4.124 -0.3584 -0.6897  0.3499
15723TIP3    H168584   6.029   4.263   4.116 -0.4584  1.1809  0.3737
15723TIP3    H268585   6.150   4.177   4.148 -1.8839 -1.7752 -1.7905
15724TIP3   OH268586   6.689   2.882  13.991 -0.1452  0.1535  0.2881
15724TIP3    H168587   6.751   2.873  13.918  0.6605 -1.3884  1.1142
15724TIP3    H268588   6.603   2.872  13.950  0.0392  2.8496 -0.9585
15725TIP3   OH268589   5.354   0.942   0.052 -0.2141 -0.0869  0.3485
15725TIP3    H168590   5.322   0.852   0.057 -2.2705  0.6709  2.2230
15725TIP3    H268591   5.413   0.951   0.127 -2.3868  0.8906  2.0636
15726TIP3   OH268592   2.853   2.715  13.581  0.2616  0.2318 -0.8994
15726TIP3    H168593   2.781   2.753  13.531 -1.0305  0.5137  1.0613
15726TIP3    H268594   2.815   2.695  13.667  2.4098 -0.0258  0.0603
15727TIP3   OH268595   1.980   2.848   5.076 -0.4836 -0.3784  0.4913
15727TIP3    H168596   2.032   2.878   5.150 -0.3095 -0.2604  0.3232
15727TIP3    H268597   2.000   2.911   5.006 -0.7559 -0.4048  0.3893
15728TIP3   OH268598   2.173   3.857  15.111 -0.0851 -0.2179  0.4851
15728TIP3    H168599   2.093   3.805  15.114  0.4065 -1.0965 -0.7160
15728TIP3    H268600   2.238   3.804  15.156  0.3918 -0.6186 -0.6430
15729TIP3   OH268601   0.161   2.532  12.274  0.2608 -0.7511 -0.4957
15729TIP3    H168602   0.118   2.610  12.309 -0.7631 -0.6545 -1.8685
15729TIP3    H268603   0.100   2.498  12.209  1.6118 -1.4842 -1.4449
15730TIP3   OH268604   1.289   4.658  15.258  0.0183 -0.0722  0.5494
15730TIP3    H168605   1.379   4.640  15.282 -0.3658 -1.0211  1.3330
15730TIP3    H268606   1.264   4.585  15.201 -0.5869 -0.3783  1.1990
15731TIP3   OH268607   5.672   4.686  13.016 -0.2610  0.4190  0.8155
15731TIP3    H168608   5.633   4.665  13.101 -1.0986 -2.5277 -0.1694
15731TIP3    H268609   5.597   4.694  12.957  0.3911  0.1377 -0.0719
15732TIP3   OH268610   1.075   2.580   5.315  0.0067  0.2178 -0.5917
15732TIP3    H168611   1.160   2.535   5.309 -0.1895 -0.2036 -0.2526
15732TIP3    H268612   1.093   2.669   5.286  0.2344 -0.2893 -2.1080
15733TIP3   OH268613   1.447   3.316  12.111  0.6868 -0.4378 -0.6324
15733TIP3    H168614   1.409   3.230  12.129  0.9035  0.1313  3.6726
15733TIP3    H268615   1.372   3.370  12.084 -0.7996 -0.6074  2.6451
15734TIP3   OH268616   0.494   6.491   3.417 -0.1113  0.1082 -0.0391
15734TIP3    H168617   0.532   6.487   3.504  2.0691 -1.5252 -0.9528
15734TIP3    H268618   0.505   6.582   3.390 -0.9034  0.6521  1.3737
15735TIP3   OH268619   2.119   5.859  16.414  0.4498 -0.1271 -0.7427
15735TIP3    H168620   2.140   5.838  16.323 -1.8874  1.4029 -1.7261
15735TIP3    H268621   2.073   5.782  16.447 -1.2267  0.3615 -1.8232
15736TIP3   OH268622   1.040   4.231  16.506 -0.3577 -0.2407  0.3627
15736TIP3    H168623   1.009   4.148  16.542 -1.6664 -0.5682 -1.3714
15736TIP3    H268624   1.133   4.233  16.528 -0.6361 -1.3757  1.8444
15737TIP3   OH268625   4.186   2.634  13.275  0.0022 -0.0893 -0.2840
15737TIP3    H168626   4.246   2.583  13.220 -0.5447  0.5593 -1.5347
15737TIP3    H268627   4.102   2.591  13.266  0.0050 -0.2453  0.4256
15738TIP3   OH268628   6.247   6.239   6.558 -0.1866 -0.3720 -0.1108
15738TIP3    H168629   6.179   6.239   6.626 -0.7372  2.4433 -0.5205
15738TIP3    H268630   6.301   6.315   6.578  2.1917 -1.8496 -0.5233
15739TIP3   OH268631   5.819   1.424   2.173 -0.1786 -0.3094 -0.2462
15739TIP3    H168632   5.792   1.435   2.082  2.8277 -0.0476 -1.2196
15739TIP3    H268633   5.895   1.481   2.183 -0.7133  0.1037  2.6524
15740TIP3   OH268634   1.568   1.953  12.985  0.0453 -0.2195  0.2020
15740TIP3    H168635   1.653   1.962  13.030 -0.2126 -0.0326  0.6563
15740TIP3    H268636   1.519   1.892  13.039 -0.2374 -0.0642  0.1219
15741TIP3   OH268637   4.769   2.511  12.722  0.3410  0.1465 -0.4627
15741TIP3    H168638   4.677   2.514  12.748 -0.0845  1.0144 -1.9461
15741TIP3    H268639   4.795   2.420  12.738 -0.8612 -0.1932 -0.3362
15742TIP3   OH268640   1.445   5.820  16.242  0.0316 -0.4509  0.0085
15742TIP3    H168641   1.485   5.824  16.155  0.3775  0.5800  0.2098
15742TIP3    H268642   1.518   5.811  16.303 -0.0289  1.2118  0.3594
15743TIP3   OH268643   6.178   3.713   4.175 -0.1779 -0.6836  0.3931
15743TIP3    H168644   6.091   3.728   4.214  1.2014  0.1639  3.4614
15743TIP3    H268645   6.174   3.624   4.140 -2.7205 -0.1239 -1.0104
15744TIP3   OH268646   6.025   0.228  12.278  0.0894  0.3076 -0.1867
15744TIP3    H168647   5.960   0.283  12.234 -0.7343 -0.2550  0.3048
15744TIP3    H268648   6.054   0.282  12.352  1.6771  1.3666 -1.4838
15745TIP3   OH268649   1.294   0.433  14.713 -0.0699 -0.6436 -0.3324
15745TIP3    H168650   1.302   0.517  14.758  1.2940 -0.7999 -0.2354
15745TIP3    H268651   1.353   0.374  14.761  0.2312 -1.2261 -1.3774
15746TIP3   OH268652   6.271   5.047  14.091 -0.0671 -0.4285  0.1800
15746TIP3    H168653   6.239   5.134  14.115 -0.1731 -0.0070 -1.3644
15746TIP3    H268654   6.236   4.989  14.159 -1.0746  0.5537  0.5364
15747TIP3   OH268655   2.433   6.092   5.378  0.0811 -0.2768 -0.4863
15747TIP3    H168656   2.438   6.132   5.291  1.5701 -0.7857 -0.6623
15747TIP3    H268657   2.344   6.111   5.408 -0.1022  0.8522 -1.6570
15748TIP3   OH268658   1.919   0.158  11.196 -0.1305 -0.1134 -0.2477
15748TIP3    H168659   1.975   0.175  11.271 -0.7947  0.8791  0.0495
15748TIP3    H268660   1.978   0.159  11.120  0.0414  3.0067 -0.1961
15749TIP3   OH268661   5.602   0.607  16.991 -0.1187  0.4034 -0.0118
15749TIP3    H168662   5.672   0.581  17.051  0.3604 -0.4982 -0.9345
15749TIP3    H268663   5.624   0.696  16.965 -0.7451  1.1119  1.7157
15750TIP3   OH268664   5.821   1.870  13.764 -0.1439 -0.0448 -0.1990
15750TIP3    H168665   5.725   1.875  13.767 -0.2142 -1.4676  1.1167
15750TIP3    H268666   5.850   1.961  13.764 -1.4502  0.4529  2.1472
15751TIP3   OH268667   3.619   4.334   3.153  0.7598 -0.2567  0.0703
15751TIP3    H168668   3.573   4.407   3.192  0.5326 -0.3726  0.0182
15751TIP3    H268669   3.682   4.307   3.220 -0.9904 -1.7569  1.2078
15752TIP3   OH268670   2.242   3.394  11.805 -0.2213 -0.5441  0.3414
15752TIP3    H168671   2.198   3.371  11.723  0.9362  0.2912 -0.5553
15752TIP3    H268672   2.315   3.333  11.811  0.4992  0.2614  0.0195
15753TIP3   OH268673   4.484   2.328   1.180 -0.2101 -0.5574  0.5745
15753TIP3    H168674   4.471   2.234   1.191 -1.9681 -0.0833  3.5288
15753TIP3    H268675   4.431   2.351   1.103 -0.4618 -1.8149  0.3556
15754TIP3   OH268676   2.412   0.164   1.608 -0.1278  0.3478 -0.1052
15754TIP3    H168677   2.363   0.082   1.599 -0.7148  0.8756 -2.1719
15754TIP3    H268678   2.412   0.202   1.520  2.1689  1.4252  0.2949
15755TIP3   OH268679   5.776   3.257   0.417 -0.6460 -0.3365 -0.1423
15755TIP3    H168680   5.696   3.220   0.382 -1.0756  0.2454  0.2048
15755TIP3    H268681   5.813   3.187   0.472 -0.4321 -0.9250 -1.0179
15756TIP3   OH268682   2.351   5.793  12.986  0.3464  0.2293  0.3216
15756TIP3    H168683   2.269   5.839  13.003  0.1687  0.0511 -0.0309
15756TIP3    H268684   2.417   5.862  12.978  0.2250  0.3750  0.5634
15757TIP3   OH268685   2.348   4.430   1.252 -0.9219 -0.1530  0.1615
15757TIP3    H168686   2.296   4.437   1.172 -0.0047  1.4277 -0.3548
15757TIP3    H268687   2.334   4.513   1.297  1.7886  0.7759 -0.4716
15758TIP3   OH268688   4.923   3.930   1.288  0.2144 -0.1298  0.2795
15758TIP3    H168689   4.869   3.956   1.213  0.8445 -0.3085 -0.2478
15758TIP3    H268690   4.860   3.909   1.357 -0.3543  0.6102 -0.0070
15759TIP3   OH268691   6.719   2.783   2.247  0.0915 -0.3695 -0.3942
15759TIP3    H168692   6.811   2.804   2.233  0.4791 -2.5988 -1.5681
15759TIP3    H268693   6.672   2.858   2.211  1.3621  2.0358  2.4723
15760TIP3   OH268694   1.551   5.394   0.379 -0.3540  0.5658  0.6862
15760TIP3    H168695   1.559   5.346   0.297  2.0867  0.7490  0.7493
15760TIP3    H268696   1.631   5.446   0.384 -1.1763  1.7371  2.4521
15761TIP3   OH268697   5.623   1.482   3.111  0.6481 -0.2524  0.2160
15761TIP3    H168698   5.692   1.451   3.170  0.8531 -0.2765 -0.0342
15761TIP3    H268699   5.600   1.405   3.059  1.0100 -0.0469 -0.2621
15762TIP3   OH268700   6.089   2.921   2.044 -0.1477 -0.1638  0.5046
15762TIP3    H168701   6.024   2.851   2.042  0.5063 -0.7619 -0.7067
15762TIP3    H268702   6.130   2.918   1.958 -1.2205  2.7947 -0.2307
15763TIP3   OH268703   0.436   5.661   4.894  0.1275 -0.2865 -0.7084
15763TIP3    H168704   0.476   5.574   4.890 -0.1719 -0.3954 -1.5591
15763TIP3    H268705   0.342   5.643   4.903  0.0893 -0.0461 -0.6118
15764TIP3   OH268706   1.674   0.157   4.433  0.1082 -0.1402  0.1558
15764TIP3    H168707   1.748   0.209   4.464  1.2520 -1.1193 -0.8058
15764TIP3    H268708   1.623   0.138   4.511  1.9959 -1.1422  1.2140
15765TIP3   OH268709   5.854   5.359  11.673  0.3983  0.0589  0.3977
15765TIP3    H168710   5.781   5.335  11.616  0.1758  1.2897  0.1478
15765TIP3    H268711   5.923   5.297  11.650 -0.2784 -0.5718  0.0304
15766TIP3   OH268712   2.184   5.948   1.271  0.1211  0.0595 -0.5910
15766TIP3    H168713   2.230   6.014   1.323 -1.0567  0.6951 -0.3158
15766TIP3    H268714   2.164   5.879   1.334  1.0829 -0.4450 -0.8136
15767TIP3   OH268715   0.472   2.800   0.784  0.2488 -0.2472  0.8886
15767TIP3    H168716   0.430   2.769   0.865 -0.8489  4.0403  2.2583
15767TIP3    H268717   0.412   2.866   0.750  3.2901  2.1915 -0.2153
15768TIP3   OH268718   6.685   0.928  15.246 -0.1433  0.3622 -0.0481
15768TIP3    H168719   6.695   0.897  15.156  2.5953  0.0248  0.2783
15768TIP3    H268720   6.650   1.017  15.236 -1.8822 -0.4007 -1.2962
15769TIP3   OH268721   4.637   3.283   2.396  0.5091  0.2615  0.1514
15769TIP3    H168722   4.590   3.203   2.375  0.3611  0.0371  1.3041
15769TIP3    H268723   4.608   3.306   2.484  2.0355  0.4813  0.6257
15770TIP3   OH268724   1.814   0.513  16.170  0.2710 -0.4568  0.2877
15770TIP3    H168725   1.815   0.475  16.082  0.7150  1.3028 -0.5065
15770TIP3    H268726   1.742   0.575  16.169 -0.0850 -0.8246  1.3759
15771TIP3   OH268727   3.344   4.688   0.714  0.1429  0.0402 -0.1148
15771TIP3    H168728   3.252   4.686   0.687  0.9806 -1.6950 -3.4514
15771TIP3    H268729   3.362   4.599   0.743  0.0380  1.1862  4.1955
15772TIP3   OH268730   5.674   5.804   2.996 -0.1561  0.6406 -0.5527
15772TIP3    H168731   5.594   5.758   3.021 -0.6416  1.9904  0.4505
15772TIP3    H268732   5.734   5.734   2.970 -1.3754 -0.4494 -0.5502
15773TIP3   OH268733   5.893   2.817   2.500 -0.2000  0.2824 -0.3320
15773TIP3    H168734   5.877   2.839   2.408 -0.7010 -0.5699 -0.4662
15773TIP3    H268735   5.878   2.898   2.548  3.4630  1.7424 -1.2844
15774TIP3   OH268736   2.051   2.105   5.199  0.0569  0.7458 -0.1583
15774TIP3    H168737   2.039   2.032   5.261  2.7762 -0.0278 -0.3860
15774TIP3    H268738   2.032   2.183   5.251 -0.1988  0.0012  0.9171
15775TIP3   OH268739   1.005   0.771  15.965  0.5435 -0.4135 -0.0979
15775TIP3    H168740   1.040   0.860  15.970 -0.4445 -0.0461  0.5031
15775TIP3    H268741   0.982   0.759  15.873  1.1480 -0.2450 -0.2769
15776TIP3   OH268742   0.790   3.080   5.863 -0.0236 -0.4427 -0.7074
15776TIP3    H168743   0.816   3.159   5.911  2.9488 -1.5007 -0.4021
15776TIP3    H268744   0.804   3.103   5.771  1.2892 -0.7261 -0.5922
15777TIP3   OH268745   2.822   2.890  11.827 -0.0072 -0.4317 -0.7449
15777TIP3    H168746   2.820   2.795  11.817 -2.7922 -0.7855  1.5806
15777TIP3    H268747   2.897   2.906  11.884 -0.8291 -1.6037  0.7663
15778TIP3   OH268748   0.293   3.281   3.993 -0.3237 -0.5045 -0.3323
15778TIP3    H168749   0.382   3.315   3.999  0.0743 -1.6172  0.3348
15778TIP3    H268750   0.304   3.189   3.969 -1.2203 -0.9659  0.8835
15779TIP3   OH268751   6.591   2.174  16.709  0.7973  0.6999 -0.0983
15779TIP3    H168752   6.610   2.213  16.794  0.6721  0.2426  0.1429
15779TIP3    H268753   6.648   2.221  16.648  0.0457  1.8450  0.0385
15780TIP3   OH268754   0.945   5.464   2.866 -0.2151  0.7641 -0.5792
15780TIP3    H168755   1.026   5.514   2.855  0.0964  0.2995 -0.3970
15780TIP3    H268756   0.961   5.409   2.942 -0.2092 -0.2812 -1.3115
15781TIP3   OH268757   4.671   3.419  11.591 -0.3824 -0.0773  0.0594
15781TIP3    H168758   4.655   3.390  11.681  0.5019 -0.6523  0.0486
15781TIP3    H268759   4.740   3.361  11.559 -0.0878  0.6682 -0.7122
15782TIP3   OH268760   2.124   0.696   5.464 -0.0046 -0.7195  0.4984
15782TIP3    H168761   2.150   0.721   5.553 -0.1490 -0.8747  0.5839
15782TIP3    H268762   2.188   0.630   5.438  0.9077  0.3350 -0.0539
15783TIP3   OH268763   3.307   1.276  11.092 -0.1988 -0.0149 -0.2619
15783TIP3    H168764   3.236   1.281  11.028 -0.0795 -1.1031 -0.5112
15783TIP3    H268765   3.325   1.367  11.117 -1.1096  0.3234 -0.8200
15784TIP3   OH268766   0.204   1.186   2.127 -0.4666 -0.2725 -0.1541
15784TIP3    H168767   0.129   1.218   2.078 -0.2447  0.8960  0.2324
15784TIP3    H268768   0.212   1.247   2.201  1.6253  0.4169 -0.8837
15785TIP3   OH268769   5.746   1.852   0.725  0.0086  0.2079  0.3763
15785TIP3    H168770   5.659   1.817   0.745 -0.0637 -0.7885 -1.4105
15785TIP3    H268771   5.807   1.786   0.758  0.0248  0.2022  0.3351
15786TIP3   OH268772   3.768   1.325   0.208 -0.2587  0.0117 -0.6507
15786TIP3    H168773   3.861   1.325   0.186 -0.1449  0.8384 -0.1975
15786TIP3    H268774   3.727   1.382   0.143 -0.3203  0.3211 -0.3446
15787TIP3   OH268775   0.832   2.961  12.690  0.1005  0.3576  0.4194
15787TIP3    H168776   0.918   2.963  12.648  0.0314 -0.9978  0.1675
15787TIP3    H268777   0.770   2.947  12.619 -0.2364  0.2674  0.7253
15788TIP3   OH268778   6.428   4.332   6.265 -0.1574  0.0734 -0.1812
15788TIP3    H168779   6.407   4.398   6.331 -2.0033  0.3769 -1.0147
15788TIP3    H268780   6.468   4.261   6.314 -0.8467  0.5897  1.1740
15789TIP3   OH268781   4.689   4.648   4.846 -0.3305  0.1300  0.0114
15789TIP3    H168782   4.605   4.620   4.809  0.2723  0.8921 -2.0531
15789TIP3    H268783   4.743   4.569   4.844 -0.4629  0.0432 -0.2757
15790TIP3   OH268784   6.265   6.511   3.090  0.0719  0.0359  0.6036
15790TIP3    H168785   6.312   6.594   3.096 -0.2836  0.2382  0.6356
15790TIP3    H268786   6.326   6.446   3.123  0.4483  0.2486  0.3292
15791TIP3   OH268787   1.064   5.796   0.007  0.4015 -0.1961  0.4578
15791TIP3    H168788   1.044   5.890   0.011  0.4267 -0.2005  0.7080
15791TIP3    H268789   1.116   5.786  -0.072  1.2668  0.1685  0.9691
15792TIP3   OH268790   1.804   2.569   2.657 -0.8700 -0.6960  0.2340
15792TIP3    H168791   1.809   2.659   2.623  1.7836 -1.0523 -0.5900
15792TIP3    H268792   1.749   2.575   2.735 -0.9939  1.5834  0.0339
15793TIP3   OH268793   3.313   6.323   1.205 -0.0272 -0.1836 -0.6943
15793TIP3    H168794   3.394   6.345   1.250  0.3789 -1.9997 -0.4677
15793TIP3    H268795   3.246   6.328   1.274  0.3796 -1.6052 -0.1704
15794TIP3   OH268796   0.283   5.896   5.299 -0.1974 -0.0508  0.3901
15794TIP3    H168797   0.218   5.960   5.272 -1.0164 -0.2599  1.7407
15794TIP3    H268798   0.359   5.911   5.242 -0.5590  1.7609  0.3481
15795TIP3   OH268799   3.812   0.279  13.874  0.1702  0.7713 -0.5761
15795TIP3    H168800   3.898   0.289  13.914  0.2378  0.0936 -0.5552
15795TIP3    H268801   3.827   0.300  13.781  0.4404  0.2668 -0.6500
15796TIP3   OH268802   2.649   5.258  11.266 -0.5392 -0.1792  0.4853
15796TIP3    H168803   2.585   5.285  11.332  0.2226 -1.0451  1.6178
15796TIP3    H268804   2.629   5.166  11.250  0.6151 -0.5685  1.1361
15797TIP3   OH268805   0.913   3.403   4.167 -0.4876 -0.9017  0.6889
15797TIP3    H168806   0.978   3.348   4.211 -0.5162 -0.4420  1.3279
15797TIP3    H268807   0.948   3.492   4.174 -0.2485 -0.8640 -0.6739
15798TIP3   OH268808   4.554   5.365  11.063  0.2293 -0.1760 -0.0742
15798TIP3    H168809   4.628   5.398  11.012 -2.0415  1.2003 -2.7397
15798TIP3    H268810   4.560   5.270  11.056  1.3833 -0.0743 -0.7137
15799TIP3   OH268811   0.910   6.157   2.754  0.0691  0.1334 -0.7222
15799TIP3    H168812   0.982   6.131   2.812 -1.0351  3.0012  2.2514
15799TIP3    H268813   0.831   6.124   2.797 -0.6566  0.2887 -1.8958
15800TIP3   OH268814   5.132   0.991   2.128  0.2846 -0.2251  0.0729
15800TIP3    H168815   5.074   0.916   2.142  1.7229 -1.4854 -0.4510
15800TIP3    H268816   5.136   1.000   2.033  1.5910 -0.7030  0.0641
15801TIP3   OH268817   2.723   0.563   0.501 -0.1217 -0.4745  0.0015
15801TIP3    H168818   2.739   0.471   0.521 -0.3702 -0.3514  0.7991
15801TIP3    H268819   2.808   0.605   0.513 -0.5399 -0.1541  2.3245
15802TIP3   OH268820   6.531   4.676  14.328 -0.5419 -0.1337  0.2450
15802TIP3    H168821   6.524   4.758  14.377 -2.4869 -0.1762  0.1273
15802TIP3    H268822   6.496   4.697  14.241 -1.3586 -1.1361  0.3093
15803TIP3   OH268823   5.203   2.604  14.533  0.4248 -0.1584 -0.4149
15803TIP3    H168824   5.280   2.551  14.556  1.0674  0.7067 -0.4862
15803TIP3    H268825   5.133   2.541  14.519  1.0663 -0.9570 -0.1165
15804TIP3   OH268826   6.147   1.177   2.191  0.4140  0.2914 -0.1679
15804TIP3    H168827   6.132   1.249   2.253  0.8851 -0.1699  0.5035
15804TIP3    H268828   6.152   1.219   2.106  2.1876  1.2521  0.3691
15805TIP3   OH268829   0.262   2.155  12.558 -0.2894  0.0610  0.3905
15805TIP3    H168830   0.192   2.201  12.513 -0.1289 -1.3417 -1.4078
15805TIP3    H268831   0.337   2.214  12.554 -1.0288  1.1056  1.3554
15806TIP3   OH268832   1.008   2.328  16.719 -0.2256  0.6029  0.1088
15806TIP3    H168833   1.038   2.412  16.684  1.3708  1.1373  2.5021
15806TIP3    H268834   1.042   2.262  16.659  2.3201  1.4683  0.4791
15807TIP3   OH268835   1.486   3.491  13.218 -0.3487  0.0606  0.1671
15807TIP3    H168836   1.530   3.575  13.236  0.3506  0.3442 -2.4726
15807TIP3    H268837   1.547   3.425  13.252 -0.0012  0.5662  0.5550
15808TIP3   OH268838   1.667   0.800   3.107 -0.4291  0.2586  0.0689
15808TIP3    H168839   1.575   0.773   3.109 -0.1402 -0.8073 -0.4021
15808TIP3    H268840   1.692   0.807   3.199 -0.1436 -2.4765  0.2806
15809TIP3   OH268841   2.919   1.312   5.623  0.1871 -0.0166  0.4732
15809TIP3    H168842   2.838   1.330   5.669 -0.1798  0.9673 -0.4867
15809TIP3    H268843   2.985   1.365   5.669 -0.2597  1.3066 -0.3419
15810TIP3   OH268844   2.089   6.399  16.180 -0.2310 -0.4048  0.5916
15810TIP3    H168845   2.114   6.470  16.239 -2.3559 -0.3006  1.4475
15810TIP3    H268846   2.173   6.362  16.151  1.0342  3.0293 -0.7101
15811TIP3   OH268847   1.538   1.608   5.217 -0.5341 -0.1959  0.8060
15811TIP3    H168848   1.443   1.607   5.203 -0.4124 -1.2119 -0.0345
15811TIP3    H268849   1.564   1.697   5.195 -1.5379  0.6996  2.9426
15812TIP3   OH268850   2.183   6.584  12.518  0.1286 -0.3401  0.2043
15812TIP3    H168851   2.222   6.617  12.437  0.7618  0.9621  0.9985
15812TIP3    H268852   2.217   6.642  12.586 -1.6313 -0.3961  1.1963
15813TIP3   OH268853   2.947   3.461  13.723  0.4283  0.0615 -0.3353
15813TIP3    H168854   3.040   3.458  13.746  0.1654  0.8534  0.8976
15813TIP3    H268855   2.945   3.505  13.638  1.2101 -0.3980 -0.6027
15814TIP3   OH268856   2.022   2.277   5.790  0.4508 -0.4963  0.1153
15814TIP3    H168857   1.928   2.259   5.790  0.4756 -0.7058  1.1582
15814TIP3    H268858   2.030   2.362   5.833  0.6427  0.1848 -1.2301
15815TIP3   OH268859   5.768   3.405   4.833  0.2445 -0.2436 -0.0697
15815TIP3    H168860   5.745   3.439   4.920  0.9919 -0.4370  0.2045
15815TIP3    H268861   5.828   3.333   4.850 -1.0581 -1.5160 -0.6704
15816TIP3   OH268862   5.404   3.830   5.082 -0.0211 -0.0560 -0.0050
15816TIP3    H168863   5.472   3.810   5.018 -0.5551  3.6894 -2.0268
15816TIP3    H268864   5.326   3.785   5.049  0.2855 -0.1736 -0.5754
15817TIP3   OH268865   4.725   5.484   2.877  0.3501  0.0082 -0.6548
15817TIP3    H168866   4.704   5.393   2.896  1.1034 -0.2827 -1.1562
15817TIP3    H268867   4.645   5.532   2.898 -0.3878 -0.8900 -1.2990
15818TIP3   OH268868   2.744   6.242   2.821 -0.2239 -0.1487 -0.3529
15818TIP3    H168869   2.835   6.265   2.838 -0.7948  1.8514  0.2620
15818TIP3    H268870   2.703   6.324   2.794 -1.9040 -0.9472 -0.3533
15819TIP3   OH268871   3.774   1.306   4.174  0.0388  0.5263 -0.0108
15819TIP3    H168872   3.689   1.337   4.207 -0.5161  0.8537 -1.6617
15819TIP3    H268873   3.768   1.211   4.176 -0.4632  0.5484 -0.3119
15820TIP3   OH268874   5.234   6.039  15.877  0.0560 -0.1179  0.2240
15820TIP3    H168875   5.159   5.979  15.874  0.2604 -0.4963  1.8897
15820TIP3    H268876   5.201   6.116  15.922  0.1842  0.4851 -0.6860
15821TIP3   OH268877   3.959   1.368   4.524  0.5159  0.0519 -0.2113
15821TIP3    H168878   3.897   1.418   4.577  0.3487 -0.0701 -0.2914
15821TIP3    H268879   3.986   1.428   4.455 -2.8436 -1.1680 -2.8546
15822TIP3   OH268880   3.698   4.646  13.529  0.2332 -0.0924  0.2586
15822TIP3    H168881   3.641   4.714  13.494  0.0666 -0.9498 -1.2281
15822TIP3    H268882   3.638   4.584  13.571  0.2776  0.0694  0.5650
15823TIP3   OH268883   1.852   2.656   1.846 -0.1713  0.8218  0.7841
15823TIP3    H168884   1.933   2.660   1.795  1.1961 -2.4844  2.3842
15823TIP3    H268885   1.844   2.743   1.886  2.4935  1.3310  0.3892
15824TIP3   OH268886   1.594   3.143   5.088 -0.2345 -0.2493 -0.4709
15824TIP3    H168887   1.646   3.090   5.148  1.0274  0.3966 -0.9517
15824TIP3    H268888   1.572   3.221   5.139 -0.4828 -0.3889 -0.3627
15825TIP3   OH268889   5.876   1.299  13.161 -0.4598  0.3333  0.2555
15825TIP3    H168890   5.894   1.211  13.192 -0.2709 -0.1053 -1.0195
15825TIP3    H268891   5.877   1.354  13.239 -0.3073 -0.7498  1.0256
15826TIP3   OH268892   5.592   6.000   4.503  0.3703  0.0661 -0.1951
15826TIP3    H168893   5.612   5.934   4.569 -0.6581  0.2253  0.2964
15826TIP3    H268894   5.524   5.959   4.449 -1.4432  1.2637  1.0642
15827TIP3   OH268895   1.060   2.219   5.513 -0.5592 -0.0434 -0.1501
15827TIP3    H168896   1.108   2.286   5.561 -1.2132 -0.3276  0.9425
15827TIP3    H268897   0.968   2.240   5.528 -0.7688 -0.6760 -0.5152
15828TIP3   OH268898   3.054   0.427   4.908  0.3166 -0.3622 -0.1171
15828TIP3    H168899   3.100   0.445   4.826 -1.6305 -1.8307 -1.6073
15828TIP3    H268900   3.067   0.507   4.960  2.6465  0.1304 -1.3015
15829TIP3   OH268901   1.368   3.958  14.992 -0.1262  0.7049  0.1209
15829TIP3    H168902   1.429   3.977  15.064 -0.7226  0.6393  0.6553
15829TIP3    H268903   1.283   3.989  15.024 -0.4964  0.1975 -0.3459
15830TIP3   OH268904   1.305   1.177   0.771  0.6141 -0.1753  1.5264
15830TIP3    H168905   1.220   1.212   0.797 -0.0519 -0.2381 -0.4093
15830TIP3    H268906   1.294   1.082   0.769  0.0830 -0.1299 -0.5579
15831TIP3   OH268907   4.348   6.334  14.116 -0.3951  0.1689 -0.1242
15831TIP3    H168908   4.334   6.369  14.028 -0.2356  0.8997  0.1341
15831TIP3    H268909   4.429   6.375  14.145 -0.6915  0.2923  0.5431
15832TIP3   OH268910   3.553   2.653   4.921 -0.0251  0.3189  0.0118
15832TIP3    H168911   3.553   2.743   4.887  0.8153 -0.4167 -2.1031
15832TIP3    H268912   3.496   2.605   4.862 -0.5638 -0.5617  1.2002
15833TIP3   OH268913   1.364   6.645  15.810 -0.2673  0.2406 -0.1644
15833TIP3    H168914   1.397   6.618  15.724  1.0991  0.2949  0.3199
15833TIP3    H268915   1.339   6.737  15.797 -0.7439  0.0453 -0.6798
15834TIP3   OH268916   2.482   3.095  15.140  0.6752 -0.2804 -0.4999
15834TIP3    H168917   2.395   3.134  15.150  1.0998  0.6102 -0.2338
15834TIP3    H268918   2.528   3.119  15.220  0.9767 -1.2688 -0.3663
15835TIP3   OH268919   4.876   4.998  14.902 -0.1201  0.0247  0.6456
15835TIP3    H168920   4.904   4.947  14.978  1.6097 -0.7640 -0.4516
15835TIP3    H268921   4.845   4.932  14.839 -1.5079  0.6637  0.6348
15836TIP3   OH268922   5.278   0.605  15.920 -0.0350 -0.6095 -0.5205
15836TIP3    H168923   5.265   0.554  16.000 -0.4202 -1.6907 -1.2505
15836TIP3    H268924   5.212   0.674  15.925  1.1360  0.4721  0.9558
15837TIP3   OH268925   0.540   5.627  13.507 -0.4453 -0.6493  0.3086
15837TIP3    H168926   0.460   5.574  13.505 -1.9587  1.4710 -1.2887
15837TIP3    H268927   0.590   5.597  13.431 -0.2231 -1.2839  0.7047
15838TIP3   OH268928   6.272   0.094  12.942 -0.2763 -0.5804  0.3713
15838TIP3    H168929   6.225   0.050  12.871 -0.3886 -0.2349  0.2309
15838TIP3    H268930   6.285   0.183  12.910 -0.9406 -0.2285  1.0699
15839TIP3   OH268931   4.972   2.012   5.528 -0.3313  0.2720  0.0376
15839TIP3    H168932   5.057   1.970   5.513 -1.2851 -1.1406 -1.7782
15839TIP3    H268933   4.947   2.049   5.444 -1.4614  0.7891  0.5721
15840TIP3   OH268934   4.052   2.557  14.884 -0.1271 -0.0529  0.0487
15840TIP3    H168935   4.109   2.627  14.853 -1.1177  1.4417  1.4206
15840TIP3    H268936   3.978   2.559  14.824  0.4885 -0.9115 -0.7646
15841TIP3   OH268937   3.518   5.717   0.466 -0.2495  0.3462  0.0201
15841TIP3    H168938   3.596   5.771   0.473  0.1475 -0.3775  2.7888
15841TIP3    H268939   3.478   5.722   0.554 -2.6364 -0.2941 -0.9449
15842TIP3   OH268940   1.653   5.276  16.020 -0.2328  0.3139 -0.0390
15842TIP3    H168941   1.740   5.256  15.985 -0.1910  1.2828 -0.5263
15842TIP3    H268942   1.599   5.202  15.992  0.1238  0.3882 -0.9688
15843TIP3   OH268943   5.703   3.027  12.852  0.2980  0.2892 -0.6009
15843TIP3    H168944   5.609   3.012  12.860  0.0847  0.9003 -1.7531
15843TIP3    H268945   5.710   3.119  12.827  1.1255 -0.0755 -1.7906
15844TIP3   OH268946   1.456   5.706   2.664  0.1830 -0.4604  0.5146
15844TIP3    H168947   1.391   5.719   2.595  0.0679  0.5618  0.7998
15844TIP3    H268948   1.404   5.685   2.742  0.0725  1.5830  1.0415
15845TIP3   OH268949   3.307   3.061   2.707  0.1588 -0.0235 -0.0188
15845TIP3    H168950   3.265   2.997   2.649  0.2321  0.0295 -0.1287
15845TIP3    H268951   3.243   3.132   2.714  0.5200  0.3814 -0.7471
15846TIP3   OH268952   3.146   5.655  10.523 -0.7923  0.2760 -0.4180
15846TIP3    H168953   3.074   5.596  10.544 -1.5307  0.1938 -2.8749
15846TIP3    H268954   3.225   5.602  10.537 -0.9043  0.8869  4.0336
15847TIP3   OH268955   0.317   5.307  12.330  0.2070  0.2788  0.1421
15847TIP3    H168956   0.236   5.355  12.317  0.0709 -0.5718 -2.8262
15847TIP3    H268957   0.382   5.355  12.278  0.7103 -1.1349 -0.5802
15848TIP3   OH268958   4.545   4.278  12.024 -0.6335  0.2089 -0.6377
15848TIP3    H168959   4.480   4.347  12.038 -0.9174 -0.3634  1.0537
15848TIP3    H268960   4.616   4.322  11.977  0.6479  2.5923  3.0638
15849TIP3   OH268961   3.296   2.473   1.973  0.5244  0.5779 -0.6672
15849TIP3    H168962   3.241   2.418   1.917 -0.2380  1.0427 -0.3942
15849TIP3    H268963   3.241   2.491   2.050  0.5222  2.2058 -1.0218
15850TIP3   OH268964   0.743   6.353   2.243  0.1296 -0.5622 -0.3793
15850TIP3    H168965   0.649   6.366   2.232  0.0766 -0.7079 -0.1180
15850TIP3    H268966   0.751   6.264   2.277  0.2541 -0.0862  0.9170
15851TIP3   OH268967   4.874   1.747   0.496  0.5947 -0.1067  0.7909
15851TIP3    H168968   4.961   1.785   0.483  0.9267 -0.6047  1.4541
15851TIP3    H268969   4.883   1.694   0.575 -0.0127 -1.0742  0.2348
15852TIP3   OH268970   2.770   3.902  15.347 -0.2161 -0.3899  0.2213
15852TIP3    H168971   2.835   3.971  15.360 -1.6822  1.2647 -0.8338
15852TIP3    H268972   2.743   3.877  15.436 -0.8335  1.5919  0.6440
15853TIP3   OH268973   5.425   1.401  14.822  0.8080 -0.2015 -0.1916
15853TIP3    H168974   5.515   1.416  14.795  1.2373  0.9116  1.6520
15853TIP3    H268975   5.432   1.338  14.894  0.1970  0.2624  0.2914
15854TIP3   OH268976   3.718   0.359  14.783 -0.0288 -0.4107 -0.2346
15854TIP3    H168977   3.748   0.378  14.872  2.6277  0.0692 -1.1350
15854TIP3    H268978   3.785   0.300  14.747  0.0380  0.9146 -2.4961
15855TIP3   OH268979   4.856   5.579  15.095 -0.7872 -0.0337  0.3453
15855TIP3    H168980   4.920   5.568  15.166  0.8107 -0.0799 -1.0409
15855TIP3    H268981   4.853   5.493  15.053 -0.2145  0.5047 -0.8411
15856TIP3   OH268982   6.663   3.151  16.883 -0.0097  0.0348 -0.3308
15856TIP3    H168983   6.635   3.097  16.810 -0.1373 -1.3700  0.7192
15856TIP3    H268984   6.757   3.137  16.889 -0.3744 -2.2934  1.5778
15857TIP3   OH268985   0.654   0.394   5.092 -0.3731  0.1754  0.0837
15857TIP3    H168986   0.645   0.431   5.005 -1.3099  0.6560  0.3703
15857TIP3    H268987   0.632   0.466   5.151 -1.0408 -0.5056  0.6861
15858TIP3   OH268988   6.101   4.699  11.747  0.0847 -0.0227  0.4599
15858TIP3    H168989   6.060   4.782  11.723 -0.5831  0.1656  2.0754
15858TIP3    H268990   6.168   4.723  11.811 -0.0444 -0.7141  0.8614
15859TIP3   OH268991   6.749   5.659   4.769  0.0007 -0.0034  0.1387
15859TIP3    H168992   6.785   5.713   4.699  1.1229 -0.3819  0.4056
15859TIP3    H268993   6.750   5.570   4.735 -1.8952  0.1159 -0.3186
15860TIP3   OH268994   1.723   5.819  16.350 -0.0752  0.1720 -0.2194
15860TIP3    H168995   1.766   5.780  16.426  1.0011 -0.8875 -1.3093
15860TIP3    H268996   1.748   5.911  16.354 -0.3196  0.1998  0.8907
15861TIP3   OH268997   2.679   2.476  12.101  0.2093 -0.6794  0.3885
15861TIP3    H168998   2.719   2.430  12.175 -0.8558 -1.0466  0.7528
15861TIP3    H268999   2.736   2.552  12.087  1.0808 -1.2321  0.8238
15862TIP3   OH269000   3.711   4.923  12.661  0.2314 -0.2203 -0.2588
15862TIP3    H169001   3.633   4.873  12.686 -0.3417  1.7628  2.4140
15862TIP3    H269002   3.774   4.904  12.731  0.0512  2.4945  0.7542
15863TIP3   OH269003   0.067   3.656  12.019 -0.1747 -0.1419  0.1546
15863TIP3    H169004   0.050   3.617  11.933 -0.8823  1.1564 -0.3241
15863TIP3    H269005  -0.020   3.679  12.053  0.2503  2.4549 -0.3077
15864TIP3   OH269006   2.597   6.201   1.864  0.0471 -0.1680  0.1931
15864TIP3    H169007   2.675   6.184   1.810 -0.4833 -0.2815 -0.5596
15864TIP3    H269008   2.608   6.291   1.894 -0.0043  0.1703 -0.7501
15865TIP3   OH269009   4.342   6.174  10.708 -0.3933  0.4392 -0.0123
15865TIP3    H169010   4.336   6.262  10.672  2.2797  0.4075 -0.7204
15865TIP3    H269011   4.299   6.180  10.794 -3.2014  1.5356 -1.3741
15866TIP3   OH269012   0.842   6.034  16.391 -0.0640  0.3063  0.0896
15866TIP3    H169013   0.904   6.012  16.321 -0.5706 -0.9463  0.0066
15866TIP3    H269014   0.775   6.087  16.349 -0.8705 -1.2142 -0.6449
15867TIP3   OH269015   0.034   2.073  15.978 -0.3392 -0.5567  0.2205
15867TIP3    H169016   0.090   2.006  15.940  0.0697 -0.2322  0.2523
15867TIP3    H269017   0.078   2.156  15.958 -1.3969 -0.2124 -0.7954
15868TIP3   OH269018   5.199   1.624  11.522 -0.3826 -0.3279  0.1637
15868TIP3    H169019   5.138   1.667  11.582  0.0680  0.2609  0.2046
15868TIP3    H269020   5.146   1.605  11.444 -0.5544  0.4531  0.0801
15869TIP3   OH269021   2.463   5.574  14.910  0.0667 -0.2523 -0.2519
15869TIP3    H169022   2.525   5.648  14.905  0.2182 -0.1282  2.2568
15869TIP3    H269023   2.382   5.609  14.875  1.1171 -0.1488 -2.8068
15870TIP3   OH269024   1.220   4.430  16.774 -0.9333  0.7642  0.3955
15870TIP3    H169025   1.194   4.509  16.822 -1.9195 -0.2648  1.6105
15870TIP3    H269026   1.174   4.436  16.691  0.0695  2.1147 -0.1109
15871TIP3   OH269027   3.344   4.966   0.811 -0.1735 -0.2641 -0.0928
15871TIP3    H169028   3.438   4.957   0.794  0.1142 -1.4079  1.7817
15871TIP3    H269029   3.308   4.880   0.790 -1.0113  0.4501 -1.7331
15872TIP3   OH269030   0.773   1.252   2.880  0.4698 -0.2796  0.3136
15872TIP3    H169031   0.833   1.305   2.932  0.2698  0.4240 -0.1538
15872TIP3    H269032   0.809   1.255   2.792 -0.4599  0.5172 -0.0655
15873TIP3   OH269033   5.411   4.910   3.279  0.3576 -0.2921  0.5766
15873TIP3    H169034   5.341   4.870   3.331  0.1016  0.8234  1.1284
15873TIP3    H269035   5.491   4.885   3.324  0.1767  0.0971  1.1314
15874TIP3   OH269036   1.520   4.569  16.812 -0.2215  0.5036 -0.4729
15874TIP3    H169037   1.513   4.507  16.739 -2.5475  0.0145  0.0893
15874TIP3    H269038   1.478   4.648  16.779 -0.4266  0.5946  0.0115
15875TIP3   OH269039   1.487   5.313   6.121 -0.0807  0.2821 -0.3669
15875TIP3    H169040   1.433   5.277   6.050 -0.2314  2.2073 -1.2878
15875TIP3    H269041   1.435   5.297   6.200 -0.1677 -1.3956 -0.7188
15876TIP3   OH269042   5.964   4.280  14.341 -0.1526 -0.1658 -0.3843
15876TIP3    H169043   6.054   4.295  14.313  0.0476 -1.9122 -0.8104
15876TIP3    H269044   5.965   4.192  14.379 -1.3505  0.4352  1.1449
15877TIP3   OH269045   3.002   1.176  15.365 -0.6275 -0.7900  0.1469
15877TIP3    H169046   2.912   1.196  15.339 -0.7370  0.0223  1.0875
15877TIP3    H269047   2.996   1.160  15.460  0.3122 -0.1068  0.3326
15878TIP3   OH269048   5.346   6.134  15.601 -0.0479 -0.7217  0.5733
15878TIP3    H169049   5.305   6.145  15.687 -1.5838 -1.6362 -0.0023
15878TIP3    H269050   5.345   6.221  15.562  1.5173 -0.0958  1.8069
15879TIP3   OH269051   1.687   2.908  12.807  0.5026  0.0322 -0.2564
15879TIP3    H169052   1.742   2.968  12.758  0.0262 -1.1007 -2.2782
15879TIP3    H269053   1.738   2.886  12.885  2.2733  0.1111 -1.3570
15880TIP3   OH269054   4.623   3.311   1.810 -0.1255  0.5271  0.1157
15880TIP3    H169055   4.572   3.238   1.848  1.4990 -0.8161 -0.1945
15880TIP3    H269056   4.559   3.358   1.757 -0.7993 -1.9743 -1.4846
15881TIP3   OH269057   1.507   6.559   3.024  0.3273  0.4692  0.0404
15881TIP3    H169058   1.462   6.476   3.008  1.9961 -0.2204 -1.3962
15881TIP3    H269059   1.481   6.615   2.951 -0.6280  1.1618  0.8939
15882TIP3   OH269060   4.648   5.518   4.031 -0.4043 -0.2356  0.1342
15882TIP3    H169061   4.654   5.588   4.097 -1.2392 -0.0062 -0.0264
15882TIP3    H269062   4.558   5.523   3.999 -0.1391 -0.6426 -0.7006
15883TIP3   OH269063   6.209   3.010   0.525  0.0942 -0.2620  1.1130
15883TIP3    H169064   6.220   3.068   0.450  1.4308  0.1657  1.6099
15883TIP3    H269065   6.263   2.934   0.504 -1.0183 -0.9986  0.8212
15884TIP3   OH269066   2.049   0.490   3.244 -0.0163 -0.2991  0.0435
15884TIP3    H169067   2.081   0.461   3.159 -1.2006  0.0535 -0.5412
15884TIP3    H269068   1.960   0.522   3.227 -0.8766 -1.6934  1.6833
15885TIP3   OH269069   5.621   5.372  11.207 -0.6383 -0.1708 -0.0489
15885TIP3    H169070   5.711   5.402  11.221 -0.4183  0.0185 -1.6197
15885TIP3    H269071   5.620   5.341  11.116 -1.5894 -2.3399  0.6366
15886TIP3   OH269072   2.941   2.629  15.876 -0.5677  0.0437  0.5739
15886TIP3    H169073   3.029   2.592  15.887 -0.4196  0.4151  0.6621
15886TIP3    H269074   2.957   2.720  15.849 -0.9220  0.5041  1.8672
15887TIP3   OH269075   5.809   4.998  11.279  0.3811  0.4509  0.2650
15887TIP3    H169076   5.839   4.949  11.355 -0.2319 -2.0499 -1.0186
15887TIP3    H269077   5.715   5.005  11.291  0.5440  2.1190  0.8312
15888TIP3   OH269078   1.289   6.053  12.023 -0.0495 -0.7194  0.3296
15888TIP3    H169079   1.234   5.977  12.004  0.2284 -1.5157  2.3902
15888TIP3    H269080   1.357   6.051  11.956 -0.3675 -1.9572  0.0176
15889TIP3   OH269081   1.684   2.143   3.374  0.2115 -0.5492 -0.0921
15889TIP3    H169082   1.770   2.102   3.364  0.6875  0.4296 -0.1659
15889TIP3    H269083   1.624   2.070   3.389  1.1868 -1.1819  0.8688
15890TIP3   OH269084   6.554   3.556   6.049 -0.4406  0.0297 -0.0985
15890TIP3    H169085   6.530   3.612   5.975 -0.6249  1.1187  0.7630
15890TIP3    H269086   6.475   3.503   6.065 -0.6484  0.3002 -0.2208
15891TIP3   OH269087   3.121   2.071   2.494 -0.2000  0.2861 -0.2860
15891TIP3    H169088   3.191   2.130   2.521 -0.0068 -0.5560  1.1760
15891TIP3    H269089   3.128   2.067   2.399  0.7447  1.4067 -0.2905
15892TIP3   OH269090   0.819   6.607  14.083 -0.0298  0.2996  0.3853
15892TIP3    H169091   0.738   6.623  14.036  0.2354  1.2621  0.2367
15892TIP3    H269092   0.885   6.658  14.035  0.2268  1.3996  1.8400
15893TIP3   OH269093   5.343   6.114   5.385  0.1602  0.3404 -0.1326
15893TIP3    H169094   5.339   6.056   5.309  1.9056 -0.5131  0.3701
15893TIP3    H269095   5.331   6.056   5.460  0.6715  0.8189  0.3291
15894TIP3   OH269096   6.784   6.630  13.436 -0.2706  0.1836  0.5534
15894TIP3    H169097   6.761   6.650  13.345  0.6193 -0.0796  0.2594
15894TIP3    H269098   6.700   6.619  13.480 -0.7139  0.0177 -0.3082
15895TIP3   OH269099   1.601   4.737   0.173 -0.2261 -0.3257 -0.1778
15895TIP3    H169100   1.580   4.706   0.086  2.8442 -0.6461 -0.9172
15895TIP3    H269101   1.693   4.764   0.168 -1.1588  4.3028  1.6851
15896TIP3   OH269102   2.622   4.215  15.311 -0.2071  0.1358  0.5434
15896TIP3    H169103   2.557   4.272  15.271  0.4173  1.7680  1.7462
15896TIP3    H269104   2.580   4.129  15.313 -0.5537  0.0958 -2.8036
15897TIP3   OH269105   1.761   0.493  11.735  0.3612  0.0966 -0.5608
15897TIP3    H169106   1.689   0.444  11.774  0.7731  0.0386  0.1554
15897TIP3    H269107   1.766   0.574  11.786  0.1136  0.5871 -1.3065
15898TIP3   OH269108   1.177   3.954  16.877 -0.2934 -0.1349 -0.7220
15898TIP3    H169109   1.118   3.988  16.809  0.2008 -1.0119 -1.6258
15898TIP3    H269110   1.126   3.888  16.922 -0.2210 -0.4419 -1.0825
15899TIP3   OH269111   0.713   5.942   6.455  0.5411  0.1057  0.3634
15899TIP3    H169112   0.771   5.881   6.408  1.4664  0.9961  0.3350
15899TIP3    H269113   0.681   5.891   6.530  1.7946 -0.2283  0.6945
15900TIP3   OH269114   6.682   4.988   0.111  0.1429 -0.5336  0.0720
15900TIP3    H169115   6.686   5.080   0.085  0.8997 -0.5264  0.1958
15900TIP3    H269116   6.748   4.945   0.058 -0.9355 -1.2109 -0.7561
15901TIP3   OH269117   1.022   4.980   2.949 -0.3497  0.1912 -0.1022
15901TIP3    H169118   0.982   4.931   3.021 -0.5277 -0.6562 -0.7564
15901TIP3    H269119   0.948   5.022   2.905 -0.4826 -0.7870 -0.8737
15902TIP3   OH269120   6.685   1.870  15.173  0.5424 -0.1272  0.3371
15902TIP3    H169121   6.763   1.924  15.175  0.3113  0.2052  0.3723
15902TIP3    H269122   6.680   1.839  15.082  0.9054 -0.4301  0.4190
15903TIP3   OH269123   3.999   2.187  16.233 -0.0790 -0.1468 -0.0022
15903TIP3    H169124   3.982   2.120  16.298 -0.3703  0.2424  0.3283
15903TIP3    H269125   4.093   2.184  16.218  0.0151 -0.1045  0.5855
15904TIP3   OH269126   1.974   2.711   1.453  0.6034  0.2877  0.1787
15904TIP3    H169127   1.948   2.646   1.389 -1.1041  0.5322  0.5881
15904TIP3    H269128   2.043   2.668   1.504  0.9356 -0.4301 -0.8437
15905TIP3   OH269129   2.951   4.780  16.875 -0.0450 -0.1744 -0.1681
15905TIP3    H169130   3.003   4.818  16.947  0.2538  0.0917 -0.5194
15905TIP3    H269131   2.978   4.689  16.871  1.1855  0.2103 -1.0342
15906TIP3   OH269132   4.233   1.120  16.108  0.0150  0.0303 -0.2032
15906TIP3    H169133   4.254   1.139  16.200 -4.3394  3.2854  0.4109
15906TIP3    H269134   4.272   1.192  16.059 -2.3329  1.5259 -0.0338
15907TIP3   OH269135   4.672   6.757   5.551  0.1544  0.6578 -0.1204
15907TIP3    H169136   4.599   6.718   5.503 -0.1896  0.9525  0.1559
15907TIP3    H269137   4.670   6.849   5.524  1.8219  0.2428 -1.8670
15908TIP3   OH269138   0.217   2.295  10.625 -0.1037  0.6091  0.2480
15908TIP3    H169139   0.295   2.242  10.644  0.3758  1.5239  0.9104
15908TIP3    H269140   0.201   2.281  10.532  0.6836  0.1873  0.1616
15909TIP3   OH269141   1.026   6.097  13.903  0.2656 -0.0990  0.4229
15909TIP3    H169142   0.978   6.175  13.875 -0.1841 -0.7010 -0.5170
15909TIP3    H269143   1.027   6.102  13.999 -0.6323  0.5415  0.4053
15910TIP3   OH269144   4.896   3.221  12.146 -0.0015  0.6201 -0.3462
15910TIP3    H169145   4.947   3.253  12.220  1.1296  1.3041 -1.4053
15910TIP3    H269146   4.943   3.250  12.069 -2.3815  1.9447 -1.4097
15911TIP3   OH269147   0.845   2.720  13.473 -0.2815 -0.5243  0.1757
15911TIP3    H169148   0.791   2.644  13.452 -0.9127  0.1950 -0.8535
15911TIP3    H269149   0.784   2.783  13.511 -0.4641  0.7860 -2.1534
15912TIP3   OH269150   3.832   3.024   4.730 -0.3823  0.4529 -0.6522
15912TIP3    H169151   3.878   3.010   4.813 -1.3042 -1.9999 -0.4944
15912TIP3    H269152   3.852   3.115   4.708  1.1121  0.7345  1.4863
15913TIP3   OH269153   4.054   0.168  10.675 -0.2372  0.2697  0.2389
15913TIP3    H169154   3.996   0.203  10.607 -0.6432 -0.7602  0.0386
15913TIP3    H269155   4.011   0.193  10.757 -0.5029  0.2798  0.1010
15914TIP3   OH269156   5.498   0.138  11.409  0.3744  0.2037  0.1543
15914TIP3    H169157   5.459   0.154  11.323  0.6125 -0.8010 -0.1638
15914TIP3    H269158   5.560   0.209  11.421 -1.9103  2.1744  0.9350
15915TIP3   OH269159   2.939   3.512   3.519  0.1214  1.0648  0.6737
15915TIP3    H169160   3.032   3.491   3.520 -0.2895 -1.0659  2.7474
15915TIP3    H269161   2.905   3.471   3.439  0.4135 -1.2984  1.6803
15916TIP3   OH269162   6.184   5.796   1.853  0.6736  0.2742 -0.3879
15916TIP3    H169163   6.194   5.703   1.871 -2.1414  0.2054  1.2764
15916TIP3    H269164   6.223   5.840   1.929  1.7882  0.5235 -1.0632
15917TIP3   OH269165   6.760   4.856  15.129  0.1224  0.7195 -0.8644
15917TIP3    H169166   6.810   4.924  15.174  0.0861  0.5617 -0.5805
15917TIP3    H269167   6.741   4.892  15.043  0.1760  1.0341 -0.7444
15918TIP3   OH269168   4.768   3.486   3.396 -0.7044  0.0342  0.0548
15918TIP3    H169169   4.672   3.478   3.399 -0.7739  0.2832 -1.1461
15918TIP3    H269170   4.799   3.395   3.397 -0.8841 -0.0413  1.5865
15919TIP3   OH269171   0.052   0.663   3.770  0.5237  0.0715  0.0308
15919TIP3    H169172   0.075   0.744   3.815  2.3964 -0.2582 -0.2169
15919TIP3    H269173   0.089   0.594   3.825 -0.3279 -0.5628 -0.1785
15920TIP3   OH269174   2.086   0.281   5.399 -0.0025 -0.7821 -0.1158
15920TIP3    H169175   2.111   0.298   5.309  0.6285 -1.5004 -0.0820
15920TIP3    H269176   2.059   0.366   5.433  1.1788 -0.2304 -0.5351
15921TIP3   OH269177   3.753   2.753  13.884  0.9035 -0.5120  0.1488
15921TIP3    H169178   3.836   2.789  13.853 -0.3596  1.0669 -1.6959
15921TIP3    H269179   3.694   2.829  13.887 -0.4562 -1.5662  1.5064
15922TIP3   OH269180   6.275   1.700  14.650 -0.4343  0.6294  0.1141
15922TIP3    H169181   6.193   1.657  14.677 -0.5862 -0.2325 -1.5928
15922TIP3    H269182   6.344   1.640  14.678 -0.3826  1.1444  1.1525
15923TIP3   OH269183   3.761   3.300  11.300 -0.6573 -0.0034 -0.4381
15923TIP3    H169184   3.666   3.295  11.288 -0.7948  0.1163  0.5642
15923TIP3    H269185   3.784   3.217  11.342 -0.5219  0.5287  0.5649
15924TIP3   OH269186   4.574   2.439   0.862  0.4116 -0.2289  0.0237
15924TIP3    H169187   4.502   2.416   0.921  0.1401  0.2396 -0.1173
15924TIP3    H269188   4.556   2.390   0.782 -0.3835  0.7530 -0.4199
15925TIP3   OH269189   0.552   5.526  15.025 -0.0390 -0.0645  0.1223
15925TIP3    H169190   0.631   5.531  14.971 -0.3086 -2.1868 -0.5534
15925TIP3    H269191   0.579   5.472  15.100 -0.8401 -0.8932 -0.1672
15926TIP3   OH269192   0.971   4.451   2.060 -0.2170  0.0346  0.1474
15926TIP3    H169193   0.950   4.544   2.064  0.3078  0.1479  0.3339
15926TIP3    H269194   0.989   4.426   2.150 -0.8538 -0.3710  0.1696
15927TIP3   OH269195   5.520   0.150   6.349  0.4524 -0.1975 -0.0943
15927TIP3    H169196   5.565   0.080   6.397  1.4639  0.5600  0.0995
15927TIP3    H269197   5.586   0.219   6.340 -0.4222  0.5967 -0.5858
15928TIP3   OH269198   6.741   2.328   1.496  0.4404  0.0914 -0.5581
15928TIP3    H169199   6.717   2.400   1.554 -0.1683 -0.2565 -0.3675
15928TIP3    H269200   6.687   2.255   1.525 -0.1209  0.0031 -1.7851
15929TIP3   OH269201   4.894   5.912   3.479 -0.2698 -0.2324 -0.0211
15929TIP3    H169202   4.836   5.977   3.520 -0.4987 -0.4470  0.0040
15929TIP3    H269203   4.913   5.947   3.393 -0.1269  0.0246  0.1153
15930TIP3   OH269204   2.529   4.903   5.454 -0.1448  0.1182 -0.3994
15930TIP3    H169205   2.465   4.953   5.403 -0.0784  0.5591 -0.0526
15930TIP3    H269206   2.484   4.820   5.473 -1.0454  0.8454  0.7774
15931TIP3   OH269207   6.032   1.464  16.326  0.7035 -0.6897  0.1781
15931TIP3    H169208   6.110   1.437  16.279  0.3325  2.8802 -3.0474
15931TIP3    H269209   5.960   1.441  16.267 -0.0476  1.4822  0.1558
15932TIP3   OH269210   6.023   6.214  16.425  0.0169  0.1155 -0.5046
15932TIP3    H169211   5.969   6.280  16.382 -2.4554 -0.2127  1.7808
15932TIP3    H269212   6.050   6.256  16.507  1.4563 -0.4888 -0.6539
15933TIP3   OH269213   2.549   5.841   0.966  0.2051 -0.6216 -0.3221
15933TIP3    H169214   2.604   5.911   0.931  1.8452 -1.3456  0.6875
15933TIP3    H269215   2.579   5.762   0.921  0.0886 -1.0416  0.3177
15934TIP3   OH269216   3.961   3.719   2.370  0.0824 -0.0956 -0.6645
15934TIP3    H169217   3.982   3.626   2.377  1.8174  0.2659 -0.7141
15934TIP3    H269218   3.895   3.722   2.300  0.7869 -1.1858 -1.4201
15935TIP3   OH269219   2.021   1.169   3.446  0.1434  0.0700 -0.3231
15935TIP3    H169220   2.087   1.237   3.428 -0.4499  0.4969 -0.9302
15935TIP3    H269221   2.057   1.090   3.405  0.0183  0.4390 -1.1803
15936TIP3   OH269222   5.952   5.764  11.232  0.2024  0.2674 -0.0990
15936TIP3    H169223   6.043   5.756  11.262  0.3332  0.0240 -0.5477
15936TIP3    H269224   5.951   5.843  11.178  0.3064 -0.0935 -0.6403
15937TIP3   OH269225   6.564   1.037  14.541  0.0998 -0.3186  0.3213
15937TIP3    H169226   6.491   1.071  14.488  1.6794  1.0885 -1.0545
15937TIP3    H269227   6.564   1.091  14.620  0.3991  0.5207 -0.2430
15938TIP3   OH269228   3.603   6.245  14.574 -0.0074 -0.2719  0.0679
15938TIP3    H169229   3.664   6.274  14.506  1.1934 -0.1404  1.1511
15938TIP3    H269230   3.521   6.289  14.554  0.7853  1.0485 -0.3800
15939TIP3   OH269231   3.828   3.663  15.492  0.0078 -0.3392 -0.0405
15939TIP3    H169232   3.879   3.628  15.420 -0.7703 -0.8461 -0.3575
15939TIP3    H269233   3.745   3.691  15.452 -0.9633 -1.8353  0.8322
15940TIP3   OH269234   1.793   0.549   3.167  0.5360 -0.0835  0.2452
15940TIP3    H169235   1.755   0.632   3.136 -0.4787 -0.9183 -0.7985
15940TIP3    H269236   1.753   0.535   3.253  0.2787  0.2178  0.1755
15941TIP3   OH269237   1.666   5.944   4.445 -0.4463 -0.4353  0.0400
15941TIP3    H169238   1.721   5.894   4.386 -0.2087  0.4027 -0.4675
15941TIP3    H269239   1.588   5.890   4.458 -0.5736 -0.5670 -1.1707
15942TIP3   OH269240   0.593   2.608  13.217  0.2230  0.0019 -0.5813
15942TIP3    H169241   0.629   2.578  13.300 -1.4285  2.4942  1.1968
15942TIP3    H269242   0.669   2.636  13.166  1.1929 -0.3775  0.6111
15943TIP3   OH269243   0.059   3.513  16.123  0.5484  0.1384 -0.2070
15943TIP3    H169244  -0.011   3.552  16.071  0.5202 -0.0082 -0.2811
15943TIP3    H269245   0.048   3.419  16.111 -1.9154 -0.1809  3.2287
15944TIP3   OH269246   4.375   4.757   4.016 -0.4963  0.7405 -0.2025
15944TIP3    H169247   4.366   4.810   4.096  1.0352  0.2530  0.3315
15944TIP3    H269248   4.399   4.820   3.948 -0.2428  0.9415  0.0718
15945TIP3   OH269249   0.422   0.391  10.818  0.1302  0.1356  0.1125
15945TIP3    H169250   0.370   0.311  10.804 -0.2194  0.4799 -0.6210
15945TIP3    H269251   0.412   0.440  10.736 -1.6192  2.0831  1.3958
15946TIP3   OH269252   5.298   1.190  16.438 -0.0461  0.2125  0.1246
15946TIP3    H169253   5.302   1.163  16.530  0.1784 -0.4721 -0.0782
15946TIP3    H269254   5.359   1.132  16.393 -0.5961  0.1389 -0.5492
15947TIP3   OH269255   3.708   5.613   3.150 -0.0434  0.5169 -0.2796
15947TIP3    H169256   3.690   5.609   3.056 -0.9725  2.3266 -0.2270
15947TIP3    H269257   3.719   5.522   3.176 -0.4376 -0.0712 -2.0119
15948TIP3   OH269258   6.112   0.967   5.094  0.3949  0.1172  0.1355
15948TIP3    H169259   6.058   0.916   5.154  1.7180  1.1050  2.2685
15948TIP3    H269260   6.061   1.046   5.077 -0.4225 -0.6084 -0.9093
15949TIP3   OH269261   2.974   6.269   0.345 -0.3609 -0.2871  0.1565
15949TIP3    H169262   3.031   6.240   0.274 -0.3651 -2.4987  0.9750
15949TIP3    H269263   2.886   6.269   0.307 -0.2695 -0.6595 -0.0581
15950TIP3   OH269264   1.837   3.844   5.424  0.3269  0.1183 -0.6682
15950TIP3    H169265   1.930   3.847   5.446  0.4368 -2.5816 -0.4030
15950TIP3    H269266   1.793   3.850   5.509  0.3223  0.0127 -0.6630
15951TIP3   OH269267   0.855   0.236   4.859 -0.0125 -0.3899 -0.4710
15951TIP3    H169268   0.779   0.193   4.897  0.6938  1.1613  3.0927
15951TIP3    H269269   0.926   0.219   4.921  1.5056  1.6744 -1.5026
15952TIP3   OH269270   4.041   5.327   5.206  0.2744  0.5174 -0.8724
15952TIP3    H169271   4.101   5.276   5.151 -0.4595 -1.7030  0.2622
15952TIP3    H269272   4.074   5.315   5.295 -1.0741  0.3860 -0.3775
15953TIP3   OH269273   3.792   1.673  15.344  0.1260  0.1137 -0.3984
15953TIP3    H169274   3.728   1.738  15.315  1.5494  1.4771 -0.5707
15953TIP3    H269275   3.746   1.623  15.411 -1.3393  0.6095 -0.9983
15954TIP3   OH269276   3.763   3.295   3.876 -0.0982  0.0736 -0.1350
15954TIP3    H169277   3.753   3.390   3.870  0.0485  0.0793 -0.2756
15954TIP3    H269278   3.767   3.277   3.970 -0.1685  0.2022 -0.1075
15955TIP3   OH269279   0.004   1.363  11.892  0.2041 -0.0848  0.2563
15955TIP3    H169280  -0.036   1.285  11.853  1.6532 -0.8345  0.1912
15955TIP3    H269281   0.032   1.335  11.979  0.4292  0.4670  0.3662
15956TIP3   OH269282   1.371   5.244   4.150 -0.0896  0.2409 -0.2417
15956TIP3    H169283   1.466   5.253   4.144  0.1036 -1.0432  0.5661
15956TIP3    H269284   1.356   5.203   4.235 -1.3707  0.3022 -0.4135
15957TIP3   OH269285   1.737   5.749  11.977 -0.8146 -0.1722 -0.0107
15957TIP3    H169286   1.772   5.750  11.888 -1.1488  0.4310 -0.1394
15957TIP3    H269287   1.687   5.830  11.984 -2.7819 -1.3098 -0.0736
15958TIP3   OH269288   6.162   6.595  13.180  0.5455 -0.6931  0.2129
15958TIP3    H169289   6.134   6.679  13.144  1.2343 -0.9299 -0.9228
15958TIP3    H269290   6.080   6.549  13.200  0.1325  0.8212  2.3573
15959TIP3   OH269291   1.671   0.330   0.664  0.4780  0.0791  0.3501
15959TIP3    H169292   1.753   0.366   0.699  0.3774  0.0813  0.5836
15959TIP3    H269293   1.644   0.392   0.597  1.1839 -0.4215 -0.4253
15960TIP3   OH269294   3.426   6.594   3.082 -0.2815  0.3253 -0.0226
15960TIP3    H169295   3.404   6.530   3.015 -0.0497  1.4651 -1.2188
15960TIP3    H269296   3.364   6.665   3.070  0.5630  1.1141  0.1171
15961TIP3   OH269297   5.675   3.779  10.510  0.0522 -0.2673  0.5758
15961TIP3    H169298   5.769   3.774  10.493 -0.0567 -1.6292  0.2633
15961TIP3    H269299   5.667   3.758  10.603  0.2140  2.0186  1.1490
15962TIP3   OH269300   4.683   3.258  13.770 -0.1923 -0.5323  0.7932
15962TIP3    H169301   4.699   3.352  13.769 -0.5645 -0.4662  0.5217
15962TIP3    H269302   4.769   3.218  13.762 -0.1655 -0.1900 -1.3324
15963TIP3   OH269303   4.761   2.213   2.946  0.2423  0.4341 -0.1807
15963TIP3    H169304   4.712   2.139   2.908  1.3923  0.5539 -2.0448
15963TIP3    H269305   4.850   2.202   2.912  0.5107  2.5083 -0.2535
15964TIP3   OH269306   3.154   0.043   4.247  0.6072  0.2354 -0.3840
15964TIP3    H169307   3.151  -0.051   4.263  0.6197  0.5118  1.4013
15964TIP3    H269308   3.133   0.083   4.331  0.5448  1.8432 -1.1185
15965TIP3   OH269309   2.838   0.686  12.294 -0.2715  0.6822  0.6909
15965TIP3    H169310   2.818   0.776  12.318  0.5722  0.8656  0.7546
15965TIP3    H269311   2.873   0.692  12.205  0.2586  0.4867  0.8807
15966TIP3   OH269312   5.019   3.560   1.657 -0.4260 -0.3052  0.7231
15966TIP3    H169313   5.067   3.565   1.739 -0.9241  0.6313  0.9769
15966TIP3    H269314   5.073   3.505   1.600  2.7418  3.2824 -0.1568
15967TIP3   OH269315   6.367   6.578  14.255  0.1295  0.2434 -0.0421
15967TIP3    H169316   6.446   6.623  14.225  0.1328 -0.6585 -1.4436
15967TIP3    H269317   6.367   6.591  14.350  1.8382  0.4491 -0.0473
15968TIP3   OH269318   5.693   1.303  12.640 -0.4530  0.0255 -0.4721
15968TIP3    H169319   5.747   1.325  12.564  1.3878 -0.0126  0.7605
15968TIP3    H269320   5.680   1.386  12.685  0.9636 -0.3458  0.6938
15969TIP3   OH269321   6.106   0.338   3.933  0.2656 -0.5174  0.4613
15969TIP3    H169322   6.036   0.367   3.875  0.6662  0.4881  0.4573
15969TIP3    H269323   6.116   0.244   3.915  1.6997  0.0922 -2.5324
15970TIP3   OH269324   3.901   3.258  15.317 -0.4072 -0.5292 -0.3038
15970TIP3    H169325   3.839   3.310  15.367 -1.1310 -1.6963  0.0453
15970TIP3    H269326   3.847   3.206  15.258  0.2588 -1.2725 -0.2817
15971TIP3   OH269327   4.473   5.634   0.710  0.0719 -0.1688  0.0109
15971TIP3    H169328   4.493   5.723   0.679 -1.8009 -0.5240 -2.5146
15971TIP3    H269329   4.559   5.597   0.731  1.2872  1.1480 -2.1709
15972TIP3   OH269330   0.982   0.550  12.277  0.4020  0.9368 -0.1399
15972TIP3    H169331   0.947   0.637  12.296 -0.1408  0.5042  0.8755
15972TIP3    H269332   0.939   0.524  12.195 -1.3465  0.6052  0.8408
15973TIP3   OH269333   6.783   1.969  16.677 -0.1297  0.0534 -0.1275
15973TIP3    H169334   6.722   2.021  16.730  1.1688  0.6378  0.8347
15973TIP3    H269335   6.732   1.946  16.599 -2.7893 -2.4086  2.0666
15974TIP3   OH269336   0.799   6.265  16.814 -0.4432  0.1856  0.2541
15974TIP3    H169337   0.762   6.203  16.877 -1.1947 -0.7436 -1.0555
15974TIP3    H269338   0.893   6.261  16.829 -0.4572 -1.4420  0.0936
15975TIP3   OH269339   2.089   1.708  14.653  0.5230 -0.2290  0.7088
15975TIP3    H169340   2.065   1.757  14.731 -0.7717  1.4992 -0.6789
15975TIP3    H269341   2.138   1.770  14.599 -0.4674 -0.6676 -0.7680
15976TIP3   OH269342   4.530   3.095  16.762  0.1858 -0.6812  0.3999
15976TIP3    H169343   4.439   3.091  16.792 -0.0530 -0.9190 -0.3382
15976TIP3    H269344   4.581   3.110  16.841 -0.6759  1.6454  0.5958
15977TIP3   OH269345   5.161   0.209   5.326 -0.2744  0.3238  0.1621
15977TIP3    H169346   5.232   0.260   5.289  0.0987 -0.4627 -0.2384
15977TIP3    H269347   5.196   0.174   5.407 -0.5981  0.8582  0.5405
15978TIP3   OH269348   3.772   3.489  12.928  0.4834  0.5910 -0.0440
15978TIP3    H169349   3.817   3.561  12.884  2.9673 -0.5569  0.4741
15978TIP3    H269350   3.825   3.471  13.005  0.7494 -2.6761 -0.8603
15979TIP3   OH269351   3.361   6.051  11.036 -0.2112  0.0132  0.5488
15979TIP3    H169352   3.443   6.091  11.007 -0.5362  0.7314  0.5896
15979TIP3    H269353   3.385   5.996  11.110  0.2200  0.2909  0.6180
15980TIP3   OH269354   0.162   2.302   3.363  0.1688 -0.0153  0.4941
15980TIP3    H169355   0.093   2.276   3.424  1.6729 -2.1568  1.4023
15980TIP3    H269356   0.125   2.284   3.276 -0.5387 -0.8493  0.9542
15981TIP3   OH269357   1.762   0.016  13.505  0.4419  0.2928  0.1417
15981TIP3    H169358   1.771  -0.069  13.548 -0.1708  0.5576  0.8154
15981TIP3    H269359   1.792   0.079  13.570  0.9210  0.5998 -0.3636
15982TIP3   OH269360   5.238   4.171  12.013  0.2369  0.6589  0.4105
15982TIP3    H169361   5.303   4.214  11.957  1.1133  1.5303  2.0183
15982TIP3    H269362   5.233   4.082  11.979  0.4215  1.2593 -1.2910
15983TIP3   OH269363   3.142   0.419   4.083 -0.5827  0.3813  0.0514
15983TIP3    H169364   3.125   0.504   4.123 -1.2597  0.3599 -0.1847
15983TIP3    H269365   3.185   0.369   4.152 -0.6083  0.7570  0.3467
15984TIP3   OH269366   1.771   1.585  14.414  0.1090 -0.5096  0.5833
15984TIP3    H169367   1.862   1.556  14.427  0.1008 -0.6187  0.4079
15984TIP3    H269368   1.768   1.611  14.322 -0.0588 -0.5827  0.5680
15985TIP3   OH269369   2.764   4.533  11.191  0.2367 -0.3833 -0.1292
15985TIP3    H169370   2.822   4.605  11.212 -1.7976  0.8055  1.9188
15985TIP3    H269371   2.803   4.491  11.114  2.2509  1.9984 -0.5117
15986TIP3   OH269372   3.109   4.870  13.021  0.5591  0.2404 -0.3128
15986TIP3    H169373   3.083   4.808  13.089 -1.8334 -0.7174 -1.9620
15986TIP3    H269374   3.205   4.869  13.023  0.5723 -0.9554  1.9209
15987TIP3   OH269375   2.681   2.079   0.249 -0.3395 -0.3836  0.5667
15987TIP3    H169376   2.759   2.133   0.233 -1.0729  0.7323  0.6228
15987TIP3    H269377   2.619   2.107   0.181  0.3299 -3.4795 -1.5151
15988TIP3   OH269378   5.491   2.068  15.320 -0.2401  0.6525  0.1191
15988TIP3    H169379   5.557   2.041  15.383  0.7708  0.9226 -0.7977
15988TIP3    H269380   5.463   2.154  15.351 -0.3610  0.4273  0.6534
15989TIP3   OH269381   3.582   1.558  16.035  0.0423  0.2304  0.2441
15989TIP3    H169382   3.573   1.610  16.115 -1.4629 -1.6784  1.3998
15989TIP3    H269383   3.525   1.602  15.972  0.4876  1.2024  0.4892
15990TIP3   OH269384   4.406   1.712  10.447 -0.3508 -0.0641 -0.1446
15990TIP3    H169385   4.482   1.714  10.505  1.2849  0.3836 -2.1816
15990TIP3    H269386   4.350   1.783  10.478  0.6772  0.4405  0.6190
15991TIP3   OH269387   1.009   1.225   0.798  0.0664 -0.5685 -0.0329
15991TIP3    H169388   1.020   1.253   0.708 -1.6100 -1.7096 -0.6346
15991TIP3    H269389   0.932   1.169   0.797 -0.1376 -0.4183  2.1581
15992TIP3   OH269390   2.545   0.004   1.964 -0.1828  0.2384 -0.2582
15992TIP3    H169391   2.572  -0.039   1.884  0.5036  0.3090 -0.0663
15992TIP3    H269392   2.458  -0.033   1.983 -0.5639  0.5890 -1.2850
15993TIP3   OH269393   0.941   1.864  12.900 -0.2976  0.4239 -0.4503
15993TIP3    H169394   0.977   1.922  12.832 -0.1064  0.3835 -0.3838
15993TIP3    H269395   0.846   1.872  12.890 -0.2806  1.0262 -0.2161
15994TIP3   OH269396   1.852   5.187  16.998  0.2843  0.5072 -0.2063
15994TIP3    H169397   1.778   5.186  16.938  0.0472  0.8872  0.0824
15994TIP3    H269398   1.929   5.196  16.941  0.5075 -3.7783 -0.9096
15995TIP3   OH269399   2.586   3.107  13.707 -0.5641 -0.0422 -0.1781
15995TIP3    H169400   2.521   3.145  13.766 -1.7959 -2.2129 -0.0182
15995TIP3    H269401   2.670   3.122  13.751 -1.0400  1.8835  0.1369
15996TIP3   OH269402   1.407   6.322   2.943  0.3921 -0.0154 -0.2273
15996TIP3    H169403   1.360   6.243   2.967 -0.3953  0.4697 -0.1274
15996TIP3    H269404   1.487   6.291   2.902  0.4878 -0.8558  0.5746
15997TIP3   OH269405   0.973   1.854  13.210  0.1627  0.5469 -0.0964
15997TIP3    H169406   1.050   1.909  13.223 -0.1509  0.9270  0.1670
15997TIP3    H269407   0.980   1.822  13.120  1.1319 -0.2059  0.2310
15998TIP3   OH269408   6.542   1.163  15.228  0.0033 -0.1121  0.1477
15998TIP3    H169409   6.455   1.167  15.269 -0.1474  1.9285 -0.2937
15998TIP3    H269410   6.600   1.200  15.294  0.3448 -0.2766 -0.0624
15999TIP3   OH269411   0.939   1.456   1.499  0.0017  0.2637  0.1496
15999TIP3    H169412   0.925   1.372   1.544 -0.1270  1.3401  2.2210
15999TIP3    H269413   1.033   1.457   1.480  0.2603  0.1830  1.3179
16000TIP3   OH269414   4.168   2.157   0.584 -0.2028  0.2986 -0.1152
16000TIP3    H169415   4.192   2.221   0.651 -4.1098 -1.2850  3.2626
16000TIP3    H269416   4.083   2.186   0.552 -0.6715 -1.6122 -0.7518
16001TIP3   OH269417   6.797   4.502  15.663 -0.1357 -0.0193  0.1158
16001TIP3    H169418   6.818   4.576  15.720 -0.4155 -0.3254  0.6331
16001TIP3    H269419   6.747   4.541  15.591 -1.2441  0.1660  0.9491
16002TIP3   OH269420   5.500   3.568  11.758  0.0337  0.0873  0.1330
16002TIP3    H169421   5.432   3.546  11.694  0.2385  1.5703 -0.6413
16002TIP3    H269422   5.451   3.593  11.837 -0.2896 -0.0062 -0.0364
16003TIP3   OH269423   4.199   0.754  13.365 -0.4103 -0.0788  0.5666
16003TIP3    H169424   4.249   0.795  13.295 -1.5232 -0.0434 -0.2378
16003TIP3    H269425   4.191   0.662  13.339  0.6265 -0.4637  1.5180
16004TIP3   OH269426   3.184   4.895   3.889  0.1227 -0.0289 -0.5133
16004TIP3    H169427   3.163   4.863   3.976  0.4217  1.4297  0.1192
16004TIP3    H269428   3.263   4.846   3.864  0.1206 -0.3493  0.0910
16005TIP3   OH269429   3.953   1.652  16.286  0.5416  0.2923  0.0147
16005TIP3    H169430   3.936   1.726  16.228  2.0145  2.2229  1.9284
16005TIP3    H269431   3.888   1.662  16.356  1.2354  0.2159  0.6689
16006TIP3   OH269432   2.681   2.898  15.528  0.3345 -0.0828  0.1974
16006TIP3    H169433   2.664   2.905  15.622  1.8180 -0.3207  0.5172
16006TIP3    H269434   2.655   2.984  15.493  0.6509  0.3516  0.9911
16007TIP3   OH269435   4.140   5.292  11.238 -0.0442 -1.1500  0.3161
16007TIP3    H169436   4.061   5.237  11.239 -1.0807  0.1691  3.0686
16007TIP3    H269437   4.163   5.300  11.331  2.9070 -0.8233 -0.3678
16008TIP3   OH269438   4.044   2.814  14.165  0.1693  0.0895  0.2250
16008TIP3    H169439   4.058   2.845  14.255 -1.4010 -0.1967  0.5951
16008TIP3    H269440   4.009   2.890  14.119 -1.0663 -0.3271  0.4309
16009TIP3   OH269441   4.447   4.139  14.921  0.0487  0.0801  0.0103
16009TIP3    H169442   4.525   4.088  14.945 -0.3630 -0.0547  1.1523
16009TIP3    H269443   4.373   4.086  14.952 -0.5155  0.1925 -1.0776
16010TIP3   OH269444   2.695   3.818   2.255 -0.8158 -0.4534 -0.2106
16010TIP3    H169445   2.622   3.791   2.311 -0.0183  0.3792  1.2945
16010TIP3    H269446   2.772   3.810   2.311  0.2664 -1.1754 -1.7187
16011TIP3   OH269447   6.550   4.639  11.214 -0.0374 -0.1477 -0.3872
16011TIP3    H169448   6.592   4.675  11.136  1.3658 -1.6283 -0.3568
16011TIP3    H269449   6.603   4.564  11.238 -2.1543 -1.5408  0.2561
16012TIP3   OH269450   2.321   0.858  12.815  0.1848 -0.7523 -0.4763
16012TIP3    H169451   2.277   0.903  12.888 -1.7567 -2.3647 -0.5527
16012TIP3    H269452   2.267   0.780  12.799  1.5272 -1.3466 -2.5254
16013TIP3   OH269453   6.340   1.688   4.106 -0.2991 -0.0448 -0.2618
16013TIP3    H169454   6.380   1.663   4.022  0.0106 -0.6578  0.0578
16013TIP3    H269455   6.327   1.604   4.151 -1.8979  0.1428 -0.3324
16014TIP3   OH269456   4.579   2.157  12.658  0.3449  0.4326  0.2849
16014TIP3    H169457   4.484   2.165  12.664  0.2058 -0.6253 -0.1481
16014TIP3    H269458   4.603   2.102  12.732  0.7510  1.4740  0.9438
16015TIP3   OH269459   3.053   6.410   1.069  0.4117  0.5397  0.2235
16015TIP3    H169460   2.972   6.359   1.077  0.5141  0.3408  0.0004
16015TIP3    H269461   3.122   6.345   1.079  0.5510  0.4033 -1.4727
16016TIP3   OH269462   5.302   0.763   1.596  0.1083  0.2367  0.5670
16016TIP3    H169463   5.220   0.749   1.550 -0.6501  1.7185  1.3787
16016TIP3    H269464   5.346   0.833   1.547 -0.4014  1.3553  1.6348
16017TIP3   OH269465   3.379   4.654   1.742 -0.3328 -0.0797 -0.5451
16017TIP3    H169466   3.398   4.671   1.834 -1.4589  2.1729 -0.6623
16017TIP3    H269467   3.463   4.624   1.706 -0.1787 -2.2849  1.4098
16018TIP3   OH269468   5.351   5.099   0.280  0.5487 -0.0108 -0.6360
16018TIP3    H169469   5.332   5.009   0.306  0.7932 -0.1680 -1.0113
16018TIP3    H269470   5.340   5.100   0.185 -0.1933  0.5327 -0.5532
16019TIP3   OH269471   3.615   0.038  13.695 -0.1881 -0.3606 -0.7390
16019TIP3    H169472   3.598   0.087  13.775 -1.4063 -1.5281 -0.2415
16019TIP3    H269473   3.590   0.098  13.625 -2.5236 -0.5171 -0.1242
16020TIP3   OH269474   5.653   1.508   0.613 -0.1439 -0.3088 -0.2730
16020TIP3    H169475   5.737   1.474   0.643 -0.9908 -1.7404  0.6234
16020TIP3    H269476   5.675   1.568   0.542  1.5633 -1.4441 -0.7627
16021TIP3   OH269477   3.861   5.941  16.295 -0.4504 -0.1481 -0.3681
16021TIP3    H169478   3.788   5.985  16.252 -0.1097  1.0027  0.1878
16021TIP3    H269479   3.936   5.954  16.236 -0.7213 -1.5143 -1.0439
16022TIP3   OH269480   3.642   1.761   4.345  0.2645 -0.4097 -0.5156
16022TIP3    H169481   3.650   1.825   4.274 -0.3281 -1.4719 -1.5597
16022TIP3    H269482   3.567   1.707   4.321 -1.0121  0.2208  1.7575
16023TIP3   OH269483   2.555   1.431  15.026  0.1633  0.1243 -0.3682
16023TIP3    H169484   2.580   1.518  15.055 -1.7327  0.7984 -0.5956
16023TIP3    H269485   2.483   1.446  14.964 -0.4850 -1.6097 -0.0965
16024TIP3   OH269486   4.260   0.186   3.061  0.8832 -0.1726 -0.0706
16024TIP3    H169487   4.178   0.138   3.050 -0.3685  1.3266  2.1218
16024TIP3    H269488   4.296   0.155   3.144  1.3992  0.7780  0.0740
16025TIP3   OH269489   3.943   3.057   3.694  0.1705 -0.3217  0.0430
16025TIP3    H169490   4.009   3.117   3.729 -0.0666 -1.1190  1.9594
16025TIP3    H269491   3.897   3.024   3.771 -0.9790 -1.5046 -1.1044
16026TIP3   OH269492   4.468   5.950  10.815  0.3563 -0.1468  0.2130
16026TIP3    H169493   4.506   5.889  10.751  2.8031  0.2384  1.1798
16026TIP3    H269494   4.420   6.014  10.763  1.4909 -0.3766 -1.1623
16027TIP3   OH269495   0.535   1.502   1.237 -0.6509  0.1726  0.0600
16027TIP3    H169496   0.546   1.594   1.213 -0.1010  0.0549 -0.1702
16027TIP3    H269497   0.570   1.496   1.326  1.4948 -0.2381 -0.7415
16028TIP3   OH269498   2.858   5.907  13.574  0.3417  0.1007  0.0949
16028TIP3    H169499   2.884   5.913  13.482 -1.4605  0.7123 -0.4142
16028TIP3    H269500   2.869   5.814  13.595  0.5360 -0.0920 -0.7967
16029TIP3   OH269501   5.041   6.722   3.039 -0.8933  0.5858  0.1225
16029TIP3    H169502   5.108   6.701   2.974 -0.2103 -0.5694  1.1587
16029TIP3    H269503   4.962   6.680   3.006 -1.2206  2.1663 -1.2338
16030TIP3   OH269504   6.084   2.493   2.154  0.7069 -0.1098  0.5268
16030TIP3    H169505   6.065   2.546   2.077  3.1317 -1.0682 -0.8344
16030TIP3    H269506   6.161   2.533   2.194 -0.2931  0.1581  2.3052
16031TIP3   OH269507   5.408   0.301   0.074  0.3311 -0.0121  0.1925
16031TIP3    H169508   5.396   0.394   0.054  0.8513 -0.3902 -2.2049
16031TIP3    H269509   5.320   0.269   0.093  0.1905  1.0109  1.4175
16032TIP3   OH269510   4.793   2.148  10.563 -0.2769 -0.3858  0.0834
16032TIP3    H169511   4.872   2.196  10.539  0.4955 -1.8410 -0.4184
16032TIP3    H269512   4.721   2.208  10.541  0.6359  0.5973 -0.3367
16033TIP3   OH269513   2.050   1.595  11.539  0.7426  0.3500 -0.4843
16033TIP3    H169514   1.976   1.583  11.599 -0.3348 -0.4409 -1.8938
16033TIP3    H269515   2.127   1.574  11.592 -0.3106 -2.5923  0.0818
16034TIP3   OH269516   4.550   6.014  15.565 -0.1153  0.0988 -0.5686
16034TIP3    H169517   4.625   5.978  15.611  0.7508  1.9207 -0.4472
16034TIP3    H269518   4.477   5.956  15.587  1.0951 -1.2896 -0.1017
16035TIP3   OH269519   0.340   0.803  15.583  0.0293  0.0640 -0.1938
16035TIP3    H169520   0.304   0.723  15.546 -0.2241 -0.0241  0.2260
16035TIP3    H269521   0.304   0.873  15.528 -0.9714 -0.0071  0.3314
16036TIP3   OH269522   3.185   3.371  12.327 -0.1189  0.9990  0.6305
16036TIP3    H169523   3.099   3.414  12.327  0.3593  2.0218  1.6855
16036TIP3    H269524   3.247   3.444  12.328  0.8123  0.2968 -1.3501
16037TIP3   OH269525   5.741   0.217  14.129 -0.3085 -1.0492 -0.3884
16037TIP3    H169526   5.796   0.139  14.131 -0.2944 -1.1166 -1.8993
16037TIP3    H269527   5.802   0.290  14.120 -0.3705 -0.9618 -0.0902
16038TIP3   OH269528   4.103   0.607   3.291  0.4116 -0.3957 -0.1073
16038TIP3    H169529   4.150   0.557   3.224  1.4121 -0.2117  0.4368
16038TIP3    H269530   4.157   0.685   3.304 -1.2728  1.0182 -1.1609
16039TIP3   OH269531   3.419   3.068   5.821  0.3806  0.3750 -0.7137
16039TIP3    H169532   3.458   3.122   5.890  2.9109  1.9857 -3.1917
16039TIP3    H269533   3.469   2.987   5.823  2.1303  1.3494 -2.0676
16040TIP3   OH269534   4.293   5.528   5.345 -0.5170 -0.1540  0.1215
16040TIP3    H169535   4.213   5.569   5.311 -0.9626 -1.6339 -0.6979
16040TIP3    H269536   4.271   5.503   5.435 -0.1263  1.6252  0.7595
16041TIP3   OH269537   3.467   2.369  11.210  0.0686  0.1451 -0.0410
16041TIP3    H169538   3.514   2.366  11.126  0.1996  0.1417  0.0319
16041TIP3    H269539   3.492   2.288  11.254 -0.3850 -0.0864 -0.2032
16042TIP3   OH269540   5.904   4.328  15.795  0.1664  0.3392 -0.3457
16042TIP3    H169541   5.950   4.363  15.872  0.7629  0.4452 -0.7482
16042TIP3    H269542   5.811   4.341  15.815  0.2504 -0.7584  0.9005
16043TIP3   OH269543   2.240   2.422  15.775  0.2083  0.0493  0.4121
16043TIP3    H169544   2.242   2.404  15.681  0.3808 -2.9193  0.8727
16043TIP3    H269545   2.202   2.343  15.814  1.0041  0.7965  2.9191
16044TIP3   OH269546   5.853   3.895   3.627 -0.0929  0.3440  0.3314
16044TIP3    H169547   5.939   3.926   3.654 -1.2269  1.4892  2.9979
16044TIP3    H269548   5.828   3.831   3.694 -1.7575  0.8807  0.2769
16045TIP3   OH269549   2.222   1.453   5.573  0.1662 -0.6515 -0.2807
16045TIP3    H169550   2.217   1.468   5.478 -0.2375 -1.6350 -0.4239
16045TIP3    H269551   2.314   1.468   5.594 -0.0711  1.3060 -0.5100
16046TIP3   OH269552   5.360   5.337  14.214 -0.2963  0.3886 -0.2396
16046TIP3    H169553   5.361   5.432  14.220 -0.8202  0.5851 -2.3783
16046TIP3    H269554   5.369   5.318  14.121  3.8143 -1.7908  0.3489
16047TIP3   OH269555   4.763   1.156  10.560  0.1800 -0.0260  0.1671
16047TIP3    H169556   4.731   1.208  10.634 -0.7189 -0.1962 -0.0888
16047TIP3    H269557   4.772   1.068  10.595  0.1999 -0.0134  0.1937
16048TIP3   OH269558   5.943   5.797   0.921  0.7850 -0.1233 -0.3099
16048TIP3    H169559   6.038   5.806   0.909  0.9517 -0.2442  0.7758
16048TIP3    H269560   5.931   5.797   1.016 -0.1134 -2.1234 -0.3858
16049TIP3   OH269561   5.895   4.339  11.547  0.1499 -0.1483 -0.2568
16049TIP3    H169562   5.965   4.396  11.515 -1.1577  1.2383 -0.7534
16049TIP3    H269563   5.914   4.254  11.509  0.8276  0.5353 -1.4958
16050TIP3   OH269564   1.847   1.319   4.087 -0.3809  0.2606  0.2309
16050TIP3    H169565   1.928   1.275   4.062 -0.9607 -0.6981 -0.0254
16050TIP3    H269566   1.839   1.392   4.026 -1.1949 -1.3828 -1.7523
16051TIP3   OH269567   0.351   4.584  12.072 -0.2800  0.0521  0.7214
16051TIP3    H169568   0.433   4.535  12.068 -0.2882  0.0984 -0.1663
16051TIP3    H269569   0.378   4.673  12.096 -0.2709 -0.3695  2.3881
16052TIP3   OH269570   0.681   0.872  12.631  0.2266 -0.9865  0.0399
16052TIP3    H169571   0.617   0.828  12.575  1.1580 -1.2493 -0.8641
16052TIP3    H269572   0.655   0.850  12.720 -1.6132 -0.1169 -0.2488
16053TIP3   OH269573   1.615   5.366   1.440 -0.3769  0.2409  0.1608
16053TIP3    H169574   1.610   5.461   1.441  0.0334  0.3410 -2.2019
16053TIP3    H269575   1.531   5.337   1.403 -0.4735 -0.3260  0.7921
16054TIP3   OH269576   3.558   5.882   4.749  0.2426  0.6308  0.5269
16054TIP3    H169577   3.618   5.955   4.763  2.2096 -0.5767 -1.0819
16054TIP3    H269578   3.497   5.914   4.683  0.7353  1.0263  0.2527
16055TIP3   OH269579   2.578   5.522  14.415  0.2253 -0.1886 -0.2897
16055TIP3    H169580   2.604   5.540  14.505  0.6602  0.2586 -0.5006
16055TIP3    H269581   2.518   5.593  14.392  0.7935  0.1830 -0.6370
16056TIP3   OH269582   6.668   4.191  13.728 -0.5413 -0.2486 -0.4455
16056TIP3    H169583   6.636   4.148  13.807  1.1579 -0.6217  0.0849
16056TIP3    H269584   6.692   4.279  13.756  0.5655 -0.5494 -0.3903
16057TIP3   OH269585   3.195   1.519  15.225  0.3191  0.3990 -0.5290
16057TIP3    H169586   3.139   1.465  15.168  0.4168  0.0907 -0.3334
16057TIP3    H269587   3.136   1.588  15.257 -0.6933 -1.3881  1.7669
16058TIP3   OH269588   0.531   0.508  16.338  0.0077  0.5889 -0.3832
16058TIP3    H169589   0.439   0.484  16.333  0.2737 -0.5392 -0.2956
16058TIP3    H269590   0.540   0.582  16.278 -1.0880  1.1929  0.1705
16059TIP3   OH269591   5.735   3.128  13.393  0.2191 -0.0361  0.3154
16059TIP3    H169592   5.645   3.138  13.361 -0.3636 -2.1356  1.0933
16059TIP3    H269593   5.749   3.203  13.450 -0.9060  0.5416 -0.1332
16060TIP3   OH269594   2.542   6.135  13.494 -0.4295 -0.1807  0.1259
16060TIP3    H169595   2.471   6.089  13.450 -0.0259 -0.4478 -0.2522
16060TIP3    H269596   2.589   6.179  13.423  1.7168 -2.6045 -0.0602
16061TIP3   OH269597   4.738   5.724  10.882 -0.3647 -0.0557  0.3454
16061TIP3    H169598   4.686   5.765  10.951 -1.4432  0.2065 -0.5865
16061TIP3    H269599   4.694   5.749  10.800  0.8332 -0.4119 -0.4413
16062TIP3   OH269600   3.193   0.390   0.267  0.3049  0.6543 -0.1661
16062TIP3    H169601   3.177   0.317   0.327  1.5204  0.0758 -0.5071
16062TIP3    H269602   3.174   0.469   0.319 -0.6755  0.1182  0.3167
16063TIP3   OH269603   1.100   5.126   2.630 -0.2598  0.8102  0.0010
16063TIP3    H169604   1.173   5.179   2.661 -0.4872  1.7435 -1.0218
16063TIP3    H269605   1.088   5.153   2.539 -1.4422  0.1747 -0.0409
16064TIP3   OH269606   2.745   5.656   2.759 -0.8351  0.1723  0.3205
16064TIP3    H169607   2.771   5.731   2.705  0.1694 -0.0070  0.5357
16064TIP3    H269608   2.651   5.666   2.770 -0.8408  0.9469 -0.3517
16065TIP3   OH269609   5.324   6.216  16.578 -0.7599 -0.4329  0.4248
16065TIP3    H169610   5.367   6.258  16.652 -0.4494 -0.8319  0.4733
16065TIP3    H269611   5.232   6.209  16.604 -0.2122 -3.1341  1.9999
16066TIP3   OH269612   3.612   3.143  16.159  0.1222 -0.3905  0.0903
16066TIP3    H169613   3.612   3.113  16.069 -0.0461  0.2896 -0.1447
16066TIP3    H269614   3.703   3.170  16.175  0.1068 -0.3156  0.0537
16067TIP3   OH269615   0.871   1.237  14.260  0.4330  0.7712 -0.0242
16067TIP3    H169616   0.823   1.289  14.195 -0.6153 -0.8526 -0.6058
16067TIP3    H269617   0.910   1.302  14.318 -1.5953  2.2039 -0.1582
16068TIP3   OH269618   2.006   3.362   6.645  0.2712  0.0894 -0.1111
16068TIP3    H169619   1.917   3.346   6.614  0.2036  0.6039 -0.1853
16068TIP3    H269620   2.060   3.300   6.596 -0.2077 -1.2006  0.9286
16069TIP3   OH269621   6.716   5.882  12.987  0.4013 -0.0568 -0.2546
16069TIP3    H169622   6.626   5.899  12.959  0.4151 -0.7779 -0.7609
16069TIP3    H269623   6.766   5.877  12.906  0.7762 -0.3294 -0.0112
16070TIP3   OH269624   0.809   2.738  15.230  0.2441  0.3705  0.3447
16070TIP3    H169625   0.749   2.800  15.190  0.5082  0.1514 -0.4130
16070TIP3    H269626   0.783   2.653  15.194 -0.0918  0.0417  1.3360
16071TIP3   OH269627   4.161   2.766  11.477 -0.2570  0.2965 -0.1590
16071TIP3    H169628   4.105   2.841  11.461 -0.7100  0.0044  0.0462
16071TIP3    H269629   4.145   2.743  11.569  1.6015  1.3845  0.5094
16072TIP3   OH269630   2.707   1.308   2.738 -0.1264  0.0346  0.4403
16072TIP3    H169631   2.722   1.227   2.690 -0.8409 -0.7166  1.4390
16072TIP3    H269632   2.642   1.356   2.686  0.8278  0.3211 -0.5231
16073TIP3   OH269633   2.104   0.081   6.624 -0.6901 -0.1690 -0.3656
16073TIP3    H169634   2.066   0.115   6.543 -0.1389 -0.3764 -0.7243
16073TIP3    H269635   2.171   0.019   6.594  2.3600  2.6238  0.1000
16074TIP3   OH269636   0.862   6.431  16.350 -0.2269  0.1302 -0.1733
16074TIP3    H169637   0.845   6.359  16.288 -0.1594 -0.1173  0.0925
16074TIP3    H269638   0.884   6.387  16.432  0.9147  0.4494 -0.2947
16075TIP3   OH269639   1.685   0.582   5.336  0.1578 -0.3266 -0.4360
16075TIP3    H169640   1.708   0.674   5.326 -2.3695  0.5677  1.1770
16075TIP3    H269641   1.620   0.580   5.406 -0.1078 -3.3168 -0.6173
16076TIP3   OH269642   6.427   1.334  11.504 -0.3583  0.5738  0.0005
16076TIP3    H169643   6.401   1.242  11.499  0.8427  0.2654 -0.6756
16076TIP3    H269644   6.409   1.358  11.595  0.1818 -0.5888  0.4336
16077TIP3   OH269645   0.617   4.249  14.892 -0.0367  0.4222  0.3811
16077TIP3    H169646   0.701   4.282  14.862 -0.2231  0.5653  0.0053
16077TIP3    H269647   0.568   4.328  14.917 -0.3739  0.4064 -0.2297
16078TIP3   OH269648   0.835   4.261   3.766 -0.2591  0.2821  0.2849
16078TIP3    H169649   0.852   4.353   3.784 -0.5965  0.4938 -0.4486
16078TIP3    H269650   0.740   4.256   3.752 -0.1403 -0.0410 -0.4268
16079TIP3   OH269651   2.716   4.870  17.037  0.5000 -0.6999  0.0492
16079TIP3    H169652   2.778   4.876  16.964  1.1597  0.4624  0.6855
16079TIP3    H269653   2.768   4.836  17.110  0.4461  0.3765  0.6143
16080TIP3   OH269654   1.589   4.753   3.619  0.0340 -0.0388 -0.2980
16080TIP3    H169655   1.634   4.679   3.660 -2.3555 -0.9575  0.8999
16080TIP3    H269656   1.596   4.736   3.525  0.4305 -1.2184 -0.0691
16081TIP3   OH269657   1.777   5.803   5.687  0.1604  0.0297  0.6991
16081TIP3    H169658   1.745   5.834   5.773  0.2377  3.1899 -0.2682
16081TIP3    H269659   1.831   5.875   5.655  2.0878 -2.0613 -1.0335
16082TIP3   OH269660   1.942   3.463   3.058 -0.1670 -0.1304  0.4713
16082TIP3    H169661   2.015   3.455   3.119  0.4415  0.7652 -0.1172
16082TIP3    H269662   1.981   3.455   2.971 -0.7143  0.5726  0.1408
16083TIP3   OH269663   5.067   4.165  10.793 -0.2858 -0.4107 -0.3679
16083TIP3    H169664   5.052   4.130  10.881  0.0389 -1.7999 -0.8393
16083TIP3    H269665   5.133   4.232  10.805 -0.3388 -0.4970  0.4734
16084TIP3   OH269666   5.909   5.234  16.947 -0.0312  0.2129 -0.1511
16084TIP3    H169667   6.002   5.229  16.970 -0.0076 -3.0314 -0.4949
16084TIP3    H269668   5.863   5.207  17.026 -0.5714 -0.0021 -0.5326
16085TIP3   OH269669   3.356   2.753   6.227  0.3690 -0.4592  0.4583
16085TIP3    H169670   3.360   2.769   6.322 -1.4360  2.1200  0.2181
16085TIP3    H269671   3.409   2.822   6.189 -0.0185 -0.6511 -0.4457
16086TIP3   OH269672   2.547   5.640   5.489 -0.6113 -0.3868 -0.1272
16086TIP3    H169673   2.638   5.623   5.512 -0.2777 -3.1064 -2.9294
16086TIP3    H269674   2.497   5.577   5.541 -1.0013  1.0930  1.3965
16087TIP3   OH269675   0.959   2.304   3.481 -0.1965  0.3083  0.1863
16087TIP3    H169676   1.042   2.341   3.513 -0.3263  1.5582 -0.8176
16087TIP3    H269677   0.967   2.307   3.385 -1.1571 -0.1380  0.0805
16088TIP3   OH269678   0.869   3.023   2.419 -0.0316 -0.0597 -0.2638
16088TIP3    H169679   0.905   3.017   2.330  0.9430  0.5210  0.0754
16088TIP3    H269680   0.788   3.073   2.409 -1.0913 -1.8389 -1.1223
16089TIP3   OH269681   6.638   0.747   1.150  0.1084  0.2388 -0.1515
16089TIP3    H169682   6.600   0.835   1.154  0.7750  0.5110  0.4679
16089TIP3    H269683   6.653   0.723   1.242  1.2065  0.0458 -0.3632
16090TIP3   OH269684   1.672   5.680   2.986  0.2564 -0.0038 -0.2391
16090TIP3    H169685   1.718   5.744   2.931  1.5107 -0.3955  0.3378
16090TIP3    H269686   1.583   5.715   2.993  0.6844  1.2233 -0.6616
16091TIP3   OH269687   0.010   4.316   1.646 -0.0628  0.1299  0.0986
16091TIP3    H169688   0.024   4.409   1.661 -0.9953  0.3621 -0.3890
16091TIP3    H269689   0.054   4.298   1.563 -0.2043  0.2211  0.0039
16092TIP3   OH269690   1.929   6.573   1.326  0.3065 -0.7781 -0.1207
16092TIP3    H169691   1.959   6.629   1.254 -1.3033  0.1533 -0.1359
16092TIP3    H269692   1.958   6.618   1.405 -1.8644  0.7480 -0.0936
16093TIP3   OH269693   4.842   2.157  16.173 -0.2437  0.0026  0.0106
16093TIP3    H169694   4.846   2.065  16.148  3.7664  0.0657 -0.2958
16093TIP3    H269695   4.811   2.202  16.094 -0.6425 -0.9275 -0.3754
16094TIP3   OH269696   2.191   5.613  15.896 -0.4548  0.0414  0.1582
16094TIP3    H169697   2.191   5.705  15.922 -0.8664 -0.0015  0.3108
16094TIP3    H269698   2.261   5.607  15.831 -0.6536  0.5369 -0.1062
16095TIP3   OH269699   6.626   3.366   4.930 -0.3168 -0.4181  0.7770
16095TIP3    H169700   6.641   3.308   4.855  1.8530 -0.7057  1.3661
16095TIP3    H269701   6.531   3.373   4.936 -0.6026  0.1107 -2.3606
16096TIP3   OH269702   0.491   3.011  15.122  0.1052  0.0137 -0.0025
16096TIP3    H169703   0.550   2.939  15.100 -2.9247 -3.3319  1.7624
16096TIP3    H269704   0.547   3.076  15.165  2.7570 -2.1681  0.1009
16097TIP3   OH269705   2.623   3.734  11.500 -0.2501 -0.0655  0.3086
16097TIP3    H169706   2.639   3.756  11.408  1.5261  0.3744  0.6928
16097TIP3    H269707   2.617   3.638  11.501  0.0055 -0.0934 -0.2248
16098TIP3   OH269708   0.908   0.981   1.660  0.3900  0.7616 -0.2149
16098TIP3    H169709   0.889   0.965   1.567 -1.7230  0.5863  0.1976
16098TIP3    H269710   0.966   0.909   1.685  1.3125  1.0239 -1.4694
16099TIP3   OH269711   4.475   3.641  12.867 -0.1766 -0.4996 -0.0795
16099TIP3    H169712   4.481   3.565  12.926  0.4429 -0.1254  0.3521
16099TIP3    H269713   4.566   3.666  12.853 -0.2440 -1.1553 -1.9558
16100TIP3   OH269714   2.911   1.432   5.033 -0.2184 -0.1476  0.5293
16100TIP3    H169715   3.005   1.429   5.018 -0.5695 -0.5797 -1.9833
16100TIP3    H269716   2.894   1.518   5.070  0.9902  0.5240 -0.4397
16101TIP3   OH269717   4.951   1.619   5.681 -0.1726 -0.0248 -0.3868
16101TIP3    H169718   4.946   1.541   5.625 -1.1329 -0.1905 -0.0858
16101TIP3    H269719   4.960   1.691   5.619  2.1951 -0.4456 -0.6302
16102TIP3   OH269720   3.377   5.876  14.455  0.2616 -0.0007 -0.5468
16102TIP3    H169721   3.380   5.911  14.366  2.5693 -0.1471 -0.5819
16102TIP3    H269722   3.350   5.950  14.509  1.5202  0.8896 -1.0711
16103TIP3   OH269723   5.937   1.812   3.220  0.0258 -0.5489 -0.4257
16103TIP3    H169724   5.907   1.871   3.151  0.6333 -0.8485 -0.9561
16103TIP3    H269725   5.941   1.866   3.299  0.0055 -0.0325 -0.7774
16104TIP3   OH269726   0.242   4.396  16.446  0.3773  0.2414  0.0480
16104TIP3    H169727   0.245   4.301  16.463  2.1993  0.1385 -0.5793
16104TIP3    H269728   0.154   4.422  16.471 -0.6536 -1.8783 -1.0376
16105TIP3   OH269729   4.811   3.720   5.606 -0.0760  0.0343 -0.4575
16105TIP3    H169730   4.880   3.653   5.610  0.9714  1.0748 -0.3659
16105TIP3    H269731   4.740   3.679   5.557  0.1459 -1.4679  0.4225
16106TIP3   OH269732   5.552   1.428  12.373 -0.1203  0.4774  0.1616
16106TIP3    H169733   5.646   1.429  12.393 -0.3741 -0.3201  1.4887
16106TIP3    H269734   5.523   1.517  12.394  0.5863  1.2496 -1.7880
16107TIP3   OH269735   3.186   6.106  11.479 -0.3092  0.3315  0.3258
16107TIP3    H169736   3.106   6.157  11.473  0.8359  2.2952  0.7804
16107TIP3    H269737   3.158   6.019  11.509 -2.3903  0.4798 -1.0409
16108TIP3   OH269738   0.411   0.487  11.063  0.1050  0.0130 -0.1587
16108TIP3    H169739   0.431   0.464  10.972  0.8171 -0.5576  0.1305
16108TIP3    H269740   0.317   0.504  11.063 -0.0514 -0.7747 -0.8484
16109TIP3   OH269741   1.313   1.731   0.385 -0.6398  0.3411 -0.3422
16109TIP3    H169742   1.335   1.789   0.313 -2.1479  0.9510 -0.3407
16109TIP3    H269743   1.371   1.758   0.456 -1.5565  2.1320 -0.2153
16110TIP3   OH269744   4.500   6.276   2.964  0.9253 -0.3185 -0.3652
16110TIP3    H169745   4.407   6.294   2.950  0.8126 -0.8290 -0.2663
16110TIP3    H269746   4.508   6.256   3.057  0.8388 -2.0472 -0.7125
16111TIP3   OH269747   3.387   1.598   2.647 -0.1427 -0.1027  0.3314
16111TIP3    H169748   3.393   1.613   2.741  3.3916 -2.5907  0.6916
16111TIP3    H269749   3.323   1.527   2.638 -1.3121  0.8744  0.6698
16112TIP3   OH269750   6.276   6.204   0.338  0.1187  0.2588  0.4971
16112TIP3    H169751   6.215   6.186   0.267 -1.1483  0.4297  1.5074
16112TIP3    H269752   6.305   6.294   0.324 -0.7152  0.5545  0.6002
16113TIP3   OH269753   4.356   0.926  16.422 -0.2565 -0.3369  0.3061
16113TIP3    H169754   4.329   1.017  16.413 -1.0721 -0.5745  0.2919
16113TIP3    H269755   4.434   0.919  16.367 -1.6368 -0.2613 -1.7752
16114TIP3   OH269756   1.688   1.713  15.161  0.0725  0.3118  0.0814
16114TIP3    H169757   1.602   1.680  15.184 -0.4922  1.9694  0.4956
16114TIP3    H269758   1.738   1.708  15.242  0.2862 -0.3701 -0.0864
16115TIP3   OH269759   1.030   4.761   5.522  0.0788  0.4507 -0.3064
16115TIP3    H169760   1.041   4.784   5.614 -1.9569 -2.6587  0.8997
16115TIP3    H269761   1.053   4.668   5.518 -1.8388 -0.0315 -2.4799
16116TIP3   OH269762   4.314   5.520   3.433  0.2345 -0.4338  0.1036
16116TIP3    H169763   4.305   5.426   3.448  1.0756 -0.1609  2.8497
16116TIP3    H269764   4.244   5.559   3.485  0.9010  0.5052  0.3264
16117TIP3   OH269765   2.583   3.372  14.097  0.1433  0.5911  0.1926
16117TIP3    H169766   2.509   3.323  14.059 -1.1793  2.4081  0.3168
16117TIP3    H269767   2.615   3.426  14.025  0.2953  1.0167  0.5792
16118TIP3   OH269768   1.051   1.652   3.467  0.1813 -0.0658 -0.1679
16118TIP3    H169769   1.142   1.674   3.488 -0.0144  0.6698 -0.0742
16118TIP3    H269770   1.002   1.732   3.486 -0.4010 -0.2723 -0.7849
16119TIP3   OH269771   0.332   2.659  13.161 -0.1753  0.9129  0.4538
16119TIP3    H169772   0.418   2.666  13.202 -0.8827  1.3334  1.9407
16119TIP3    H269773   0.315   2.745  13.124  0.5600  0.4700 -0.9889
16120TIP3   OH269774   2.446   5.049  16.991  0.3479  0.1461 -0.4804
16120TIP3    H169775   2.431   5.092  16.906 -2.3245 -0.0530 -0.1824
16120TIP3    H269776   2.364   5.061  17.039  2.0889  1.0727  2.5109
16121TIP3   OH269777   3.616   6.341   1.988 -0.0807 -0.2251  0.3955
16121TIP3    H169778   3.526   6.325   2.018  0.1281 -0.7369  0.7625
16121TIP3    H269779   3.671   6.295   2.052  0.3605 -2.1426 -1.2791
16122TIP3   OH269780   0.532   0.638   0.912 -0.2465 -0.5405  1.1817
16122TIP3    H169781   0.483   0.563   0.878  0.8863 -1.2080  0.9894
16122TIP3    H269782   0.527   0.628   1.008  0.7200 -1.4232  1.1539
16123TIP3   OH269783   2.999   1.055   2.011  0.2772 -0.1751 -0.1616
16123TIP3    H169784   2.905   1.045   2.029  0.4677  0.9558  1.6724
16123TIP3    H269785   3.026   0.968   1.982 -1.7837  0.0478 -3.2962
16124TIP3   OH269786   2.983   3.016  12.668 -0.0494  0.1579  0.1708
16124TIP3    H169787   3.025   3.004  12.583 -0.7927  0.5080 -0.2641
16124TIP3    H269788   2.925   3.091  12.655 -0.9318 -0.4113  0.6865
16125TIP3   OH269789   1.702   0.460  16.459 -0.2745 -0.2547 -0.0625
16125TIP3    H169790   1.735   0.480  16.547  0.5101  0.1644 -0.4525
16125TIP3    H269791   1.624   0.515  16.450  0.1686  0.3923  0.0212
16126TIP3   OH269792   0.420   0.469   6.328 -0.5564  0.2421  0.1012
16126TIP3    H169793   0.374   0.510   6.401 -0.9329 -0.3317  0.1964
16126TIP3    H269794   0.489   0.531   6.304 -0.0351  0.1666  1.3429
16127TIP3   OH269795   5.289   5.592  11.486  0.0872 -0.5484  0.1214
16127TIP3    H169796   5.285   5.501  11.456 -0.2971 -0.6824  0.5593
16127TIP3    H269797   5.349   5.590  11.560 -0.5177 -0.5954  0.6201
16128TIP3   OH269798   4.169   6.725   4.989  0.3449  0.5713 -0.2221
16128TIP3    H169799   4.202   6.780   4.918 -1.7556  2.5130  0.1919
16128TIP3    H269800   4.166   6.783   5.065  1.2909 -1.0995  1.1807
16129TIP3   OH269801   3.145   0.678  12.675 -0.3365  0.4454 -0.2458
16129TIP3    H169802   3.093   0.639  12.605 -1.5558  0.0692  0.8177
16129TIP3    H269803   3.114   0.634  12.754  0.2405  1.6076  0.6563
16130TIP3   OH269804   3.358   2.808   5.393  0.2361  0.0792  0.2123
16130TIP3    H169805   3.318   2.836   5.311 -1.1558  0.2678  0.9375
16130TIP3    H269806   3.364   2.713   5.386 -0.1229  0.0726  0.0076
16131TIP3   OH269807   5.077   0.794  16.929 -0.2195 -0.5471  0.5428
16131TIP3    H169808   5.113   0.844  16.856 -0.2089 -0.5478  0.5470
16131TIP3    H269809   5.150   0.740  16.960  0.0068  0.0493  1.0703
16132TIP3   OH269810   6.060   6.279   1.079 -0.2599 -0.4241 -0.4281
16132TIP3    H169811   6.073   6.369   1.050  0.7803 -0.7000 -0.8704
16132TIP3    H269812   6.033   6.287   1.171 -0.4757  0.3420 -0.5535
16133TIP3   OH269813   5.039   1.609  14.497  0.4066  0.7184  0.3631
16133TIP3    H169814   5.118   1.555  14.490  0.4197  0.5639  1.4089
16133TIP3    H269815   5.030   1.651  14.412  1.0986  0.0240 -0.0676
16134TIP3   OH269816   6.254   5.461  15.489  0.5910 -0.8727 -0.3381
16134TIP3    H169817   6.271   5.393  15.423  2.2189 -0.5897 -0.2503
16134TIP3    H269818   6.198   5.419  15.553 -1.0411 -1.1659 -1.8676
16135TIP3   OH269819   1.143   0.649   3.358 -0.6204  0.0403 -0.1836
16135TIP3    H169820   1.224   0.684   3.394 -0.7650  1.1542 -0.8936
16135TIP3    H269821   1.093   0.726   3.330 -1.8172 -0.6355  0.0079
16136TIP3   OH269822   2.719   5.699  11.869 -0.1401 -0.5394 -0.4002
16136TIP3    H169823   2.689   5.627  11.925  0.4668 -0.0773  0.5624
16136TIP3    H269824   2.646   5.761  11.869  0.2009 -0.1070  0.6986
16137TIP3   OH269825   3.883   6.502  13.148 -0.4962 -0.8137  0.0662
16137TIP3    H169826   3.928   6.548  13.078 -0.4959 -1.9343 -0.6901
16137TIP3    H269827   3.864   6.570  13.213  3.4866 -0.4557  1.1086
16138TIP3   OH269828   1.089   3.010   5.561 -0.1519  0.0557  0.2784
16138TIP3    H169829   1.178   2.996   5.528  0.5018  0.5916  1.7439
16138TIP3    H269830   1.086   2.961   5.643 -2.1844 -2.3867 -1.0966
16139TIP3   OH269831   5.496   5.384   0.364 -0.1176  0.5008 -0.3598
16139TIP3    H169832   5.404   5.407   0.349 -0.1138  0.3364 -0.6398
16139TIP3    H269833   5.532   5.370   0.277  0.1430  0.4472 -0.2443
16140TIP3   OH269834   0.046   6.098  14.136  0.0150  0.0488  0.6970
16140TIP3    H169835  -0.011   6.023  14.119 -0.3321  0.6330 -0.8372
16140TIP3    H269836   0.024   6.161  14.068  3.3503 -0.1529 -0.7537
16141TIP3   OH269837   1.964   4.750  12.818  0.6006 -0.0765  0.3156
16141TIP3    H169838   2.045   4.783  12.778  0.4327 -0.2939 -0.2105
16141TIP3    H269839   1.908   4.827  12.826 -0.1184 -0.3142 -1.6887
16142TIP3   OH269840   6.153   2.080  13.626  0.6336  0.6109 -0.4379
16142TIP3    H169841   6.063   2.078  13.658  0.8603  0.4286  0.2128
16142TIP3    H269842   6.166   2.170  13.597  0.9664  1.2995  1.6675
16143TIP3   OH269843   1.443   5.191   2.904 -0.0070 -0.4747 -0.2972
16143TIP3    H169844   1.359   5.237   2.910  0.2060 -0.1956  0.6852
16143TIP3    H269845   1.421   5.099   2.921 -0.2310 -0.5486 -0.9266
16144TIP3   OH269846   2.575   6.531   0.135 -0.1054  0.2495  0.0710
16144TIP3    H169847   2.601   6.440   0.125  2.5655  0.9090  0.1218
16144TIP3    H269848   2.535   6.555   0.052 -2.2446 -1.3185  0.5753
16145TIP3   OH269849   5.859   5.629  14.177  0.7031  0.2211 -0.0063
16145TIP3    H169850   5.817   5.568  14.117 -0.0418 -0.1157  0.8370
16145TIP3    H269851   5.863   5.711  14.128 -2.2104  0.6645  0.2912
16146TIP3   OH269852   3.772   5.084  12.353  0.3026  0.4619 -0.8835
16146TIP3    H169853   3.866   5.093  12.371  0.2348  0.1479 -0.3364
16146TIP3    H269854   3.758   5.133  12.272  1.2839 -1.0257 -2.0094
16147TIP3   OH269855   0.734   1.921  16.749  0.0423  0.1166 -0.5306
16147TIP3    H169856   0.750   1.930  16.655  1.0415 -0.8475 -0.4740
16147TIP3    H269857   0.769   2.001  16.787  1.2420 -0.2392 -0.8265
16148TIP3   OH269858   3.609   3.545  15.775  0.3684  0.4329  0.0348
16148TIP3    H169859   3.692   3.592  15.763  0.6784 -0.1338 -0.0784
16148TIP3    H269860   3.551   3.583  15.709  0.5531  0.7969  0.0762
16149TIP3   OH269861   3.725   4.562  11.372  0.4823  0.3903  0.0332
16149TIP3    H169862   3.763   4.483  11.409 -1.0818 -0.1294  0.6130
16149TIP3    H269863   3.739   4.554  11.277  1.2479 -0.0691  0.1846
16150TIP3   OH269864   4.195   0.710  14.764 -0.2275 -0.6358  0.1255
16150TIP3    H169865   4.136   0.771  14.719 -0.4557  1.0166  2.4371
16150TIP3    H269866   4.137   0.640  14.795 -0.6704 -0.0314  0.7025
16151TIP3   OH269867   0.210   6.081  12.734  0.0733 -0.1741 -0.4736
16151TIP3    H169868   0.217   6.086  12.829  0.0904  0.9340 -0.5227
16151TIP3    H269869   0.201   6.172  12.705 -2.0949 -0.6103 -1.3731
16152TIP3   OH269870   3.190   4.731  16.033 -0.0637 -0.6969 -0.7226
16152TIP3    H169871   3.120   4.761  16.091  1.0976  0.8556 -0.0571
16152TIP3    H269872   3.165   4.642  16.009 -0.5513 -1.4138  2.1794
16153TIP3   OH269873   3.689   1.117  16.564  0.7626 -0.0223  0.3409
16153TIP3    H169874   3.608   1.076  16.536  0.0484  0.5237  1.5287
16153TIP3    H269875   3.758   1.063  16.526 -0.1400 -1.5472  0.7696
16154TIP3   OH269876   2.358   6.500  11.977 -0.5590 -0.0482  0.3718
16154TIP3    H169877   2.350   6.438  12.049 -0.6260 -0.3264  0.1235
16154TIP3    H269878   2.399   6.451  11.906  3.1017  1.1972  1.4431
16155TIP3   OH269879   2.937   6.005   3.119  0.5238 -0.0242  0.0009
16155TIP3    H169880   2.998   6.037   3.053 -0.3887 -0.4110 -1.0649
16155TIP3    H269881   2.920   5.914   3.094  0.5400 -0.3408  1.0686
16156TIP3   OH269882   3.318   5.770   4.833 -0.7890 -0.4355 -0.3955
16156TIP3    H169883   3.272   5.854   4.839 -0.4618 -0.1956 -1.0906
16156TIP3    H269884   3.411   5.793   4.837 -0.6946 -0.9442  1.3212
16157TIP3   OH269885   6.273   0.172  15.852  0.1724  0.6678  0.1014
16157TIP3    H169886   6.323   0.254  15.857  1.3651  0.0260 -0.8141
16157TIP3    H269887   6.302   0.122  15.928 -0.6504  1.1286  0.7317
16158TIP3   OH269888   4.071   5.332  14.282 -0.3113 -0.0373  0.3734
16158TIP3    H169889   4.068   5.360  14.374 -2.1094  1.5082 -0.0861
16158TIP3    H269890   4.156   5.362  14.250 -1.5734  3.9697  0.2854
16159TIP3   OH269891   2.065   5.057  16.080 -0.4207 -0.6509 -0.4503
16159TIP3    H169892   2.152   5.095  16.084 -0.2795 -1.0151 -0.0682
16159TIP3    H269893   2.067   4.983  16.141 -0.8524 -0.9473 -0.7859
16160TIP3   OH269894   4.069   4.157  14.251 -0.1574  0.6971 -0.1763
16160TIP3    H169895   4.099   4.246  14.231 -0.7406  0.6876 -1.1120
16160TIP3    H269896   3.998   4.170  14.314  0.9421  0.7760  1.1262
16161TIP3   OH269897   6.432   4.672   0.163 -0.3482  0.1899 -0.3717
16161TIP3    H169898   6.354   4.618   0.179  0.4088 -0.9306 -0.4207
16161TIP3    H269899   6.398   4.748   0.115 -1.6352  0.4323  0.8262
16162TIP3   OH269900   1.577   2.007  14.391 -0.6264 -0.5044 -0.7690
16162TIP3    H169901   1.581   2.081  14.453  3.0480 -0.4837 -0.8342
16162TIP3    H269902   1.531   2.043  14.315 -1.0988  0.9298  0.1423
16163TIP3   OH269903   3.455   5.023  13.907  0.2615  0.1695  0.2251
16163TIP3    H169904   3.495   4.950  13.953 -0.3678 -0.3395 -0.0133
16163TIP3    H269905   3.481   5.100  13.956 -1.4525 -0.4447  2.2208
16164TIP3   OH269906   3.985   0.797  15.548  0.3036  0.8685 -0.1985
16164TIP3    H169907   4.049   0.750  15.600  0.3743  0.3331 -0.7697
16164TIP3    H269908   3.993   0.888  15.577 -0.7797  0.3634  1.9065
16165TIP3   OH269909   0.310   2.417   4.527  0.0188  0.0044  0.6916
16165TIP3    H169910   0.387   2.451   4.573  0.7064 -0.7399  0.1193
16165TIP3    H269911   0.247   2.489   4.530  1.2358  1.1439 -0.0126
16166TIP3   OH269912   5.709   0.699  14.245 -0.4223 -0.0192 -0.6459
16166TIP3    H169913   5.639   0.642  14.279  0.2274 -0.6556 -0.3437
16166TIP3    H269914   5.781   0.639  14.226 -0.8635  0.2237 -3.5535
16167TIP3   OH269915   2.439   2.251   1.417 -0.2986  0.0427 -0.5014
16167TIP3    H169916   2.411   2.320   1.357  0.9864  1.4686  0.4469
16167TIP3    H269917   2.533   2.244   1.404  0.5051  2.0601  2.8234
16168TIP3   OH269918   6.169   3.698  12.455  0.1898 -0.0303  0.7081
16168TIP3    H169919   6.086   3.658  12.482 -1.7763  2.8680 -0.5077
16168TIP3    H269920   6.186   3.767  12.519  1.3374 -0.1586  0.5703
16169TIP3   OH269921   4.972   6.300   3.480 -0.2611  0.5080 -0.6495
16169TIP3    H169922   4.921   6.344   3.548 -0.4652  1.1740 -1.2249
16169TIP3    H269923   5.055   6.348   3.479  0.3640 -0.5089  0.2164
16170TIP3   OH269924   3.705   6.139  12.829 -0.5741  0.8217  0.1612
16170TIP3    H169925   3.684   6.233  12.837 -1.8621  0.6453 -0.7969
16170TIP3    H269926   3.664   6.099  12.906 -0.8331  0.9237  0.0754
16171TIP3   OH269927   1.590   3.368  15.021  0.3317 -0.3681 -0.6133
16171TIP3    H169928   1.657   3.436  15.030 -0.4827  0.2950  0.8879
16171TIP3    H269929   1.587   3.326  15.107 -0.6247 -0.9276 -0.9083
16172TIP3   OH269930   4.857   2.267  11.889 -0.0471  0.1678  0.2055
16172TIP3    H169931   4.822   2.311  11.967 -1.1985  0.1429 -0.2795
16172TIP3    H269932   4.780   2.247  11.836  0.8248  2.1568 -1.9856
16173TIP3   OH269933   6.153   1.263   6.341 -0.0590 -0.1857  0.0621
16173TIP3    H169934   6.109   1.324   6.282 -1.2763  0.4169  1.5419
16173TIP3    H269935   6.145   1.302   6.427  0.2079 -1.8555  0.8906
16174TIP3   OH269936   1.912   2.730   0.079  0.1292 -0.0304 -0.5938
16174TIP3    H169937   1.874   2.700   0.161  0.5157 -0.7829 -0.6742
16174TIP3    H269938   1.927   2.824   0.092 -1.5261  0.2417 -0.4911
16175TIP3   OH269939   3.494   4.267  11.691  0.1959  0.1393  0.0767
16175TIP3    H169940   3.582   4.238  11.715  0.4248 -1.0259 -1.9570
16175TIP3    H269941   3.471   4.213  11.616 -2.5056 -0.0036  0.8961
16176TIP3   OH269942   2.343   1.338   1.000 -0.3602 -0.6362  0.0770
16176TIP3    H169943   2.341   1.244   0.984  0.6755 -0.5595 -0.6283
16176TIP3    H269944   2.362   1.347   1.093  1.7882 -1.1651 -0.2480
16177TIP3   OH269945   4.110   0.558  14.484 -0.4337 -0.3281  0.1179
16177TIP3    H169946   4.082   0.637  14.437  0.8221  0.4668  0.6547
16177TIP3    H269947   4.042   0.494  14.465 -2.3437  1.3378  0.9297
16178TIP3   OH269948   3.091   6.364  10.875  0.2609  0.9183  0.0398
16178TIP3    H169949   3.160   6.412  10.921  1.4542 -0.2820 -0.4396
16178TIP3    H269950   3.010   6.401  10.910  1.1074  2.8478  0.1352
16179TIP3   OH269951   6.048   1.670  14.162 -0.0731  0.0540 -0.0411
16179TIP3    H169952   6.005   1.748  14.125  0.7506  1.1324  1.1810
16179TIP3    H269953   6.013   1.663  14.250 -0.2195 -1.0553 -0.1769
16180TIP3   OH269954   5.664   1.557  13.241 -0.6429  0.0900 -0.1299
16180TIP3    H169955   5.593   1.493  13.249  0.5613 -1.0948  1.5395
16180TIP3    H269956   5.665   1.603  13.325 -0.7764  1.5797 -0.9133
16181TIP3   OH269957   1.571   1.912   2.593 -0.2307  0.0424 -0.1846
16181TIP3    H169958   1.615   1.995   2.609  1.5588 -0.7248 -0.8431
16181TIP3    H269959   1.482   1.936   2.568  0.5111  1.8066 -1.2727
16182TIP3   OH269960   5.447   5.073  11.713  1.2755 -0.3609  0.1302
16182TIP3    H169961   5.403   5.082  11.628 -0.8854  0.8259  1.2827
16182TIP3    H269962   5.376   5.066  11.777  2.8371 -2.0472  1.8126
16183TIP3   OH269963   3.582   6.388   3.254  0.4192  0.3003  0.1368
16183TIP3    H169964   3.631   6.450   3.309  1.3310  0.0169 -0.3221
16183TIP3    H269965   3.530   6.444   3.197 -0.5556  0.5983  1.2751
16184TIP3   OH269966   5.920   6.753   4.119 -0.1977 -0.4662  0.6314
16184TIP3    H169967   5.874   6.823   4.072  2.0428 -0.2277 -1.3593
16184TIP3    H269968   5.888   6.672   4.078  0.2627 -0.3685  0.0742
16185TIP3   OH269969   0.693   5.779   0.934  0.2340  0.2928  0.5080
16185TIP3    H169970   0.765   5.774   0.997  2.5182  1.2756 -1.8491
16185TIP3    H269971   0.640   5.853   0.965  1.1158  0.5538  1.4718
16186TIP3   OH269972   1.904   3.335   1.960 -0.4069 -0.2376 -0.0114
16186TIP3    H169973   1.958   3.259   1.939  2.1734  1.6483 -0.7279
16186TIP3    H269974   1.836   3.301   2.017  0.5639 -3.0871 -0.3898
16187TIP3   OH269975   5.577   5.675   2.505  0.3640  0.1959  0.3623
16187TIP3    H169976   5.533   5.655   2.587  0.9214 -1.4984  0.2803
16187TIP3    H269977   5.553   5.603   2.446 -0.1011  1.4223 -1.0055
16188TIP3   OH269978   3.428   2.251   2.079 -0.4146 -0.0226 -0.5117
16188TIP3    H169979   3.418   2.344   2.100  1.8186 -0.2556  2.0510
16188TIP3    H269980   3.467   2.250   1.992  0.1093  1.4881 -0.3247
16189TIP3   OH269981   2.607   6.369  14.875 -0.0630  0.4095  0.4481
16189TIP3    H169982   2.527   6.377  14.926 -1.0240  0.4896 -1.0082
16189TIP3    H269983   2.577   6.343  14.788  1.5245  0.1757 -0.0608
16190TIP3   OH269984   1.440   0.375  17.179 -0.5381  0.4015  0.1743
16190TIP3    H169985   1.439   0.433  17.255 -2.0776  1.1058 -0.3366
16190TIP3    H269986   1.452   0.433  17.104 -0.7784 -0.0751 -0.2436
16191TIP3   OH269987   5.166   0.570  14.821  0.5056 -0.0081 -0.0174
16191TIP3    H169988   5.146   0.523  14.902  1.0295 -0.3912 -0.1091
16191TIP3    H269989   5.127   0.657  14.834  1.7645  0.3975  1.2045
16192TIP3   OH269990   4.636   5.596  15.404 -0.3820  0.2739  0.7258
16192TIP3    H169991   4.678   5.674  15.442 -0.4358  1.2552 -1.1319
16192TIP3    H269992   4.706   5.531  15.401  0.2280  0.9291  0.4014
16193TIP3   OH269993   1.134   4.608   0.088 -0.2821  0.4391 -0.0572
16193TIP3    H169994   1.169   4.589   0.001 -0.3485  0.5849 -0.1152
16193TIP3    H269995   1.211   4.628   0.141 -0.3837  2.2969 -0.5583
16194TIP3   OH269996   2.689   2.185   4.575 -0.8329 -0.2191  0.0569
16194TIP3    H169997   2.698   2.266   4.525  1.2620 -0.2441  0.3170
16194TIP3    H269998   2.670   2.214   4.664  0.8881  0.0649  0.3587
16195TIP3   OH269999   5.134   4.940  15.684 -0.1581  0.1853 -0.1863
16195TIP3    H170000   5.180   4.863  15.649 -0.5195 -0.4200  0.6415
16195TIP3    H270001   5.045   4.931  15.651 -0.0357  0.6162 -0.6423
16196TIP3   OH270002   2.935   5.927   4.547  0.4327 -0.0394  0.4171
16196TIP3    H170003   2.980   6.005   4.513  1.2808 -1.0062 -0.7745
16196TIP3    H270004   2.963   5.922   4.638  0.2538  1.1187  0.5569
16197TIP3   OH270005   1.819   4.786   5.246  0.2095 -0.0340 -0.0132
16197TIP3    H170006   1.785   4.751   5.328 -1.7438 -0.1691 -0.8390
16197TIP3    H270007   1.813   4.714   5.184  4.3361 -0.8813  0.2736
16198TIP3   OH270008   2.591   0.613  12.600 -0.4036 -0.1529  0.3696
16198TIP3    H170009   2.623   0.558  12.529 -0.8095  0.5760 -0.4022
16198TIP3    H270010   2.545   0.684  12.556  1.2160  1.5373  1.2500
16199TIP3   OH270011   1.305   1.500   0.107 -0.1793  0.0087 -0.1662
16199TIP3    H170012   1.229   1.555   0.121 -0.6767 -0.7796  0.3451
16199TIP3    H270013   1.337   1.524   0.020  1.0133  2.7098  0.9000
16200TIP3   OH270014   1.577   0.980  15.944 -0.2242 -0.4685  0.5641
16200TIP3    H170015   1.591   0.934  15.861 -0.3335  0.2718  0.1207
16200TIP3    H270016   1.488   1.014  15.938  0.1114  0.4505  0.5407
16201TIP3   OH270017   2.411   4.832  13.151  0.2440  0.9675  0.0307
16201TIP3    H170018   2.373   4.784  13.077  0.4204  0.1676  0.4509
16201TIP3    H270019   2.424   4.765  13.218  3.5602  0.9414 -0.5055
16202TIP3   OH270020   1.475   1.554  17.097  0.2521 -0.0589 -0.7512
16202TIP3    H170021   1.563   1.527  17.120 -0.1173  0.5735  1.6245
16202TIP3    H270022   1.467   1.532  17.004  2.5503 -0.9967 -0.7915
16203TIP3   OH270023   6.478   5.940  16.900 -0.1943  0.0248  0.1718
16203TIP3    H170024   6.509   5.999  16.831 -1.2089  0.8829  0.4125
16203TIP3    H270025   6.459   5.858  16.854 -0.0644  0.3131 -0.4166
16204TIP3   OH270026   0.739   5.446  13.773  0.1314  0.0995  0.2405
16204TIP3    H170027   0.676   5.384  13.738  0.7164 -0.6291  0.4603
16204TIP3    H270028   0.786   5.398  13.841  2.3828 -0.0932 -1.3400
16205TIP3   OH270029   2.685   0.976   4.020 -0.0005 -0.3576  0.3570
16205TIP3    H170030   2.711   0.940   4.105 -2.6263 -1.9676  0.5824
16205TIP3    H270031   2.680   1.071   4.036  0.3778 -0.5436  1.7554
16206TIP3   OH270032   0.566   5.874   2.857  0.0576  0.1600  0.2004
16206TIP3    H170033   0.575   5.867   2.762  3.1912  2.4669  0.1598
16206TIP3    H270034   0.624   5.807   2.892 -1.4710 -1.0203  0.5635
16207TIP3   OH270035   4.486   2.750   2.504 -0.5508  0.1476  0.1607
16207TIP3    H170036   4.397   2.756   2.538 -0.2090 -0.2420  1.1537
16207TIP3    H270037   4.542   2.747   2.582  0.2713 -0.4891 -0.4276
16208TIP3   OH270038   4.652   5.441   0.228  0.2940  0.7532 -0.0256
16208TIP3    H170039   4.623   5.358   0.264 -0.5966  0.6900 -0.8555
16208TIP3    H270040   4.694   5.418   0.145  1.3861  1.0021  0.4289
16209TIP3   OH270041   6.695   4.909  15.576 -0.1952  0.1912  0.5396
16209TIP3    H170042   6.651   4.892  15.660  1.4591  0.8114  1.5888
16209TIP3    H270043   6.631   4.957  15.524 -1.4165 -0.5924  1.2681
16210TIP3   OH270044   3.420   5.538   3.147 -0.0928 -0.6403 -0.7137
16210TIP3    H170045   3.469   5.456   3.143  1.3185  0.2237 -2.2761
16210TIP3    H270046   3.487   5.606   3.143 -1.2314  0.6332  0.4934
16211TIP3   OH270047   4.679   2.603  15.536  0.1393  0.9176 -0.4061
16211TIP3    H170048   4.620   2.656  15.589 -0.4006  0.7059 -0.7895
16211TIP3    H270049   4.745   2.571  15.598 -1.4580 -0.7884  0.5288
16212TIP3   OH270050   2.700   1.300  14.759  0.0329 -0.1905 -0.0388
16212TIP3    H170051   2.618   1.320  14.713 -0.7738 -0.9099  1.0396
16212TIP3    H270052   2.681   1.321  14.850  2.0852  2.7289 -0.1279
16213TIP3   OH270053   6.011   5.311  15.400 -0.5334 -0.2538 -0.7877
16213TIP3    H170054   6.044   5.333  15.313 -0.0899  2.2685 -0.0795
16213TIP3    H270055   5.958   5.387  15.425  0.9469  0.0240  1.9053
16214TIP3   OH270056   0.225   4.508  16.817  0.0284 -0.7921  0.5291
16214TIP3    H170057   0.194   4.452  16.889  0.4050  0.0230  1.3544
16214TIP3    H270058   0.182   4.473  16.739 -0.4342 -1.6744  1.1526
16215TIP3   OH270059   1.352   3.925   4.740 -0.3875 -0.9211 -0.6986
16215TIP3    H170060   1.441   3.954   4.720 -0.3794 -0.1071  0.3955
16215TIP3    H270061   1.304   4.005   4.758 -0.9181 -1.4483  0.3404
16216TIP3   OH270062   0.488   4.240  15.635  0.0352  0.3394  0.4525
16216TIP3    H170063   0.403   4.281  15.620  0.0325  0.9625  1.9844
16216TIP3    H270064   0.549   4.313  15.644  0.7501 -0.1046 -0.6622
16217TIP3   OH270065   6.265   5.263  16.234  0.5758 -0.3130  0.0033
16217TIP3    H170066   6.305   5.350  16.237 -0.2703  0.0684  2.1787
16217TIP3    H270067   6.285   5.225  16.320 -1.6399 -1.0268  0.2495
16218TIP3   OH270068   0.476   3.097   3.303 -0.4493  0.3898 -0.4319
16218TIP3    H170069   0.412   3.084   3.233 -1.9553  1.8044  0.5938
16218TIP3    H270070   0.523   3.177   3.278 -0.9021  0.8247  0.0609
16219TIP3   OH270071   4.795   0.335  14.125  0.0857  0.2021  0.4322
16219TIP3    H170072   4.768   0.426  14.122 -1.0345 -0.1464 -0.9267
16219TIP3    H270073   4.756   0.295  14.047  0.5613 -1.4318  0.9840
16220TIP3   OH270074   1.001   0.714   0.786  0.0620  0.1045  0.4579
16220TIP3    H170075   1.048   0.633   0.805  1.1142  0.3106 -1.0725
16220TIP3    H270076   1.034   0.741   0.701 -2.8879  0.2537 -0.7531
16221TIP3   OH270077   4.258   3.216  17.118  0.0958  0.3938  0.2755
16221TIP3    H170078   4.258   3.310  17.099  3.0349  0.7563  1.5106
16221TIP3    H270079   4.254   3.211  17.214 -0.0203 -0.7369  0.2198
16222TIP3   OH270080   4.411   0.068  11.319 -0.5362  0.0648 -0.2478
16222TIP3    H170081   4.389   0.005  11.388  1.2590 -2.0775 -1.4933
16222TIP3    H270082   4.357   0.041  11.244 -1.1595  1.2538 -0.2523
16223TIP3   OH270083   1.127   6.664  16.498 -0.4152 -0.2947 -0.7684
16223TIP3    H170084   1.080   6.686  16.578 -0.3577  1.5374 -1.2095
16223TIP3    H270085   1.169   6.580  16.518  0.7995  0.7920  1.6773
16224TIP3   OH270086   3.047   2.597   4.336  0.1040  0.0692  0.5649
16224TIP3    H170087   3.027   2.511   4.373  2.1300 -0.1841  1.1706
16224TIP3    H270088   3.064   2.579   4.243 -0.0757 -0.0915  0.5624
16225TIP3   OH270089   0.484   3.693  16.590 -0.0752 -0.7476 -0.1909
16225TIP3    H170090   0.450   3.723  16.506 -3.0226  0.3672  1.2363
16225TIP3    H270091   0.448   3.606  16.601 -1.2098 -0.2077  0.6168
16226TIP3   OH270092   5.983   0.681   3.382  0.3464 -0.7103  0.1881
16226TIP3    H170093   5.968   0.599   3.336  1.9165  0.0661 -1.8549
16226TIP3    H270094   6.016   0.741   3.315  0.2114  1.3107  1.8116
16227TIP3   OH270095   0.312   1.081   4.595 -0.1640  0.1035  0.9678
16227TIP3    H170096   0.333   1.071   4.688  1.3551  0.0963  0.6444
16227TIP3    H270097   0.396   1.095   4.552 -0.9740  1.6381 -0.2313
16228TIP3   OH270098   3.975   3.356  15.004 -0.7676 -0.4946 -0.0484
16228TIP3    H170099   4.030   3.359  15.082  1.0378 -0.0107 -1.2665
16228TIP3    H270100   3.897   3.307  15.031 -0.4077  0.0493  2.1456
16229TIP3   OH270101   1.306   2.707  11.542 -0.3155 -0.2254  0.5506
16229TIP3    H170102   1.363   2.755  11.602 -1.3570  0.3602  1.1116
16229TIP3    H270103   1.230   2.765  11.530 -1.3696 -1.5051  0.8249
16230TIP3   OH270104   2.162   5.036  10.418  1.1416 -0.3761  0.5713
16230TIP3    H170105   2.206   5.047  10.334  0.7179  0.1119  0.4084
16230TIP3    H270106   2.227   4.993  10.474  0.9267 -2.0425 -0.4203
16231TIP3   OH270107   1.508   1.283   1.259  0.8345 -0.3337  0.0585
16231TIP3    H170108   1.414   1.266   1.257  0.6683  0.2957  1.4327
16231TIP3    H270109   1.516   1.371   1.296  1.9811 -0.5183  0.3006
16232TIP3   OH270110   0.268   1.257  13.111  0.0170  0.1054 -0.1515
16232TIP3    H170111   0.338   1.270  13.176  0.6863 -2.1786 -0.3348
16232TIP3    H270112   0.195   1.222  13.162 -0.8625  2.0037 -0.0471
16233TIP3   OH270113   2.665   1.064   5.257 -0.1078 -0.1434 -0.0929
16233TIP3    H170114   2.711   1.094   5.336 -1.1263 -0.5784  0.6957
16233TIP3    H270115   2.611   0.991   5.288  0.6343 -1.3492 -1.5197
16234TIP3   OH270116   4.188   0.894   0.274 -0.2412 -0.0934 -0.7624
16234TIP3    H170117   4.168   0.886   0.368  2.0398  0.7798 -0.1197
16234TIP3    H270118   4.239   0.816   0.254 -0.4897 -0.1389 -1.2196
16235TIP3   OH270119   1.539   4.713   4.457  0.4585 -0.1170 -0.0740
16235TIP3    H170120   1.551   4.751   4.369  0.0401  0.1221 -0.0300
16235TIP3    H270121   1.617   4.741   4.505  0.2181  0.5901 -0.0788
16236TIP3   OH270122   1.582   1.225   4.141  0.6513 -0.0310 -0.0976
16236TIP3    H170123   1.579   1.172   4.221 -2.2055  0.2077  0.0474
16236TIP3    H270124   1.673   1.255   4.136  1.1839 -0.9511  2.4670
16237TIP3   OH270125   4.410   2.368  16.021  0.0673  0.5262  1.0079
16237TIP3    H170126   4.349   2.439  16.001 -0.2032 -0.5125 -2.3399
16237TIP3    H270127   4.356   2.300  16.061 -1.1633 -0.4699 -2.1262
16238TIP3   OH270128   0.567   2.204  15.753  0.2563  0.6635  0.0091
16238TIP3    H170129   0.656   2.187  15.723  0.0671  0.8107 -0.6635
16238TIP3    H270130   0.547   2.291  15.718 -0.1332  0.6467  0.1883
16239TIP3   OH270131   5.900   5.298   3.703  0.4112  0.3670 -0.1047
16239TIP3    H170132   5.974   5.247   3.736 -0.9095 -1.7018 -0.2063
16239TIP3    H270133   5.855   5.327   3.782  1.5476  2.0838 -0.0262
16240TIP3   OH270134   1.508   5.683   3.574  0.2626  0.5913 -0.1137
16240TIP3    H170135   1.414   5.666   3.586 -0.2549  2.4070 -1.2597
16240TIP3    H270136   1.525   5.659   3.483  0.7361  0.9543 -0.1250
16241TIP3   OH270137   5.861   3.544   2.177 -0.2766 -0.1661  0.5701
16241TIP3    H170138   5.864   3.581   2.088 -0.5171 -0.2133  0.5412
16241TIP3    H270139   5.838   3.619   2.232 -1.7973 -0.4758  0.3854
16242TIP3   OH270140   5.255   2.738   3.669  0.4218  0.4415 -0.4765
16242TIP3    H170141   5.239   2.794   3.744  0.0121  0.5518 -0.6446
16242TIP3    H270142   5.346   2.755   3.645  0.1666  1.3672 -0.7999
16243TIP3   OH270143   5.314   2.524   3.213 -0.7808  0.8015  0.2024
16243TIP3    H170144   5.274   2.608   3.190 -1.5667 -0.0417 -1.6725
16243TIP3    H270145   5.403   2.529   3.178 -1.1052  0.5435 -0.6740
16244TIP3   OH270146   5.769   2.932   2.255 -0.0175  0.2486 -0.2809
16244TIP3    H170147   5.775   2.898   2.165 -0.8122 -2.4906  0.5879
16244TIP3    H270148   5.675   2.947   2.268  0.3084  3.0850 -0.6465
16245TIP3   OH270149   6.096   3.300   0.931 -0.2132 -1.0529  0.4306
16245TIP3    H170150   6.148   3.322   0.854  0.9961  0.9798  1.7320
16245TIP3    H270151   6.132   3.215   0.960 -1.5237 -2.4814 -1.8455
16246TIP3   OH270152   4.065   2.659   3.745  0.3608 -0.1061 -0.2228
16246TIP3    H170153   4.122   2.600   3.794 -1.3071 -1.5140  0.1120
16246TIP3    H270154   4.066   2.741   3.795  1.8947 -0.1609 -0.1224
16247TIP3   OH270155   1.904   5.087  16.331  0.0035 -0.4286 -0.0083
16247TIP3    H170156   1.825   5.039  16.356  0.2228 -0.8854 -0.1958
16247TIP3    H270157   1.936   5.042  16.253  0.2849 -0.0598 -0.1092
16248TIP3   OH270158   4.612   4.432   3.438 -0.3849 -0.4491  0.0438
16248TIP3    H170159   4.561   4.372   3.491  0.3031 -0.3607  0.8253
16248TIP3    H270160   4.624   4.387   3.354 -1.8170 -0.4232 -0.1923
16249TIP3   OH270161   5.498   3.498  12.967  0.0544 -0.5006 -0.1515
16249TIP3    H170162   5.558   3.490  13.042  1.1537 -0.8104 -1.0259
16249TIP3    H270163   5.515   3.586  12.932 -0.8103 -0.1690  0.2392
16250TIP3   OH270164   6.173   5.205   4.131  0.3895  0.3496 -0.4602
16250TIP3    H170165   6.220   5.283   4.099  1.7520  1.2366  3.1501
16250TIP3    H270166   6.243   5.145   4.157 -0.5372 -0.1285  1.0245
16251TIP3   OH270167   5.666   3.108  11.759  0.0829 -0.0632 -0.7234
16251TIP3    H170168   5.748   3.157  11.752 -0.1864  0.5859  0.4435
16251TIP3    H270169   5.693   3.022  11.791  0.3732 -0.0538 -0.9365
16252TIP3   OH270170   1.899   5.435   4.501 -0.1709 -0.4865 -0.0202
16252TIP3    H170171   1.814   5.465   4.533 -0.2800  0.3281 -1.0125
16252TIP3    H270172   1.959   5.507   4.522 -0.2119 -0.0181 -1.4373
16253TIP3   OH270173   5.750   0.915   5.019 -0.1133  0.4933  0.7532
16253TIP3    H170174   5.786   0.868   5.094 -2.3234 -1.7586  0.5416
16253TIP3    H270175   5.662   0.879   5.008  0.3505  0.1467 -3.3774
16254TIP3   OH270176   1.542   2.607   4.132 -0.3982 -0.3119 -0.4805
16254TIP3    H170177   1.605   2.576   4.067 -1.6525 -1.7585 -1.0687
16254TIP3    H270178   1.577   2.691   4.161  1.9887 -1.2412 -0.4847
16255TIP3   OH270179   4.530   4.028   4.019  0.0896  0.0094  0.4144
16255TIP3    H170180   4.548   4.059   4.107  0.6758  0.0451  0.2875
16255TIP3    H270181   4.544   3.933   4.023  0.4948  0.0612  0.2716
16256TIP3   OH270182   0.676   6.257   0.234  0.0334  0.2446 -0.1727
16256TIP3    H170183   0.658   6.167   0.210  0.6624  0.6972 -2.5759
16256TIP3    H270184   0.590   6.299   0.237 -0.3218 -0.5190  1.5871
16257TIP3   OH270185   3.803   4.570  12.092 -0.2113 -0.1828  0.5156
16257TIP3    H170186   3.733   4.528  12.042 -1.9553  1.0248  1.8293
16257TIP3    H270187   3.807   4.659  12.058  1.8875 -0.6594 -0.6716
16258TIP3   OH270188   5.810   6.348  12.981 -0.6753 -0.1356  0.3774
16258TIP3    H170189   5.860   6.426  12.957 -0.7131  0.0206  0.7979
16258TIP3    H270190   5.741   6.342  12.915 -0.6652  0.1834  0.3364
16259TIP3   OH270191   0.690   5.608  11.391  0.2301  0.5827 -0.3283
16259TIP3    H170192   0.774   5.602  11.345 -0.5002  1.4735 -1.8724
16259TIP3    H270193   0.652   5.521  11.384  0.0730  0.7326 -1.5993
16260TIP3   OH270194   0.173   6.470  14.694 -0.2547  0.2910  0.4361
16260TIP3    H170195   0.258   6.486  14.655 -0.5539  1.7629  0.3148
16260TIP3    H270196   0.111   6.484  14.622 -0.6484  0.1211  0.7387
16261TIP3   OH270197   0.085   2.763   1.679 -0.0170 -0.3186  0.3993
16261TIP3    H170198   0.069   2.843   1.628 -0.4930 -0.8996 -0.3916
16261TIP3    H270199   0.005   2.711   1.667  1.0797 -1.8086 -0.8087
16262TIP3   OH270200   5.082   6.019   3.750 -0.2910 -0.8784 -0.4673
16262TIP3    H170201   5.142   6.020   3.676 -0.3718 -1.8116 -0.5586
16262TIP3    H270202   5.114   5.948   3.807 -0.0624  0.0019  0.5318
16263TIP3   OH270203   5.412   6.018   6.340  0.0549 -0.3840  0.1407
16263TIP3    H170204   5.353   6.037   6.413 -0.5586  1.1745 -0.7262
16263TIP3    H270205   5.380   5.934   6.305  0.8032 -1.5322  2.0534
16264TIP3   OH270206   6.294   6.298   0.600 -0.4005  0.1667 -0.4129
16264TIP3    H170207   6.274   6.263   0.513 -0.7162 -3.2242  0.8831
16264TIP3    H270208   6.208   6.312   0.640 -0.2564  1.7809 -0.6193
16265TIP3   OH270209   1.933   5.140   3.574  0.8681  0.1118  0.0041
16265TIP3    H170210   1.975   5.221   3.544 -1.7829  2.2068  1.4604
16265TIP3    H270211   1.839   5.157   3.566  0.1596 -3.4574 -0.9900
16266TIP3   OH270212   0.876   5.114  16.763 -0.1130 -0.4534  0.1833
16266TIP3    H170213   0.960   5.136  16.804 -0.1057  0.5246 -0.3295
16266TIP3    H270214   0.810   5.147  16.823 -0.1043  1.7448 -0.9080
16267TIP3   OH270215   5.786   4.019  12.945 -0.1131 -0.6084  0.0807
16267TIP3    H170216   5.735   3.945  12.979  0.5452 -0.4907  1.4077
16267TIP3    H270217   5.861   4.025  13.004 -0.3971  1.4315  0.2946
16268TIP3   OH270218   2.877   0.116  14.218  0.2020 -0.0099  0.5342
16268TIP3    H170219   2.935   0.176  14.265  1.8061 -1.9370  1.1388
16268TIP3    H270220   2.853   0.049  14.282 -2.5553  0.5549  0.2236
16269TIP3   OH270221   0.431   3.373   1.424  0.1071 -0.0716 -0.1233
16269TIP3    H170222   0.471   3.298   1.468  2.1978 -0.2280 -2.1328
16269TIP3    H270223   0.359   3.336   1.373 -0.7269 -0.2286  1.0996
16270TIP3   OH270224   3.745   1.807   5.673  0.0403 -0.2904 -0.1510
16270TIP3    H170225   3.724   1.715   5.687 -0.6544 -0.3020 -1.1217
16270TIP3    H270226   3.830   1.819   5.714 -0.0920 -1.2418  0.4249
16271TIP3   OH270227   0.198   3.948   6.055  0.1453  0.1289  0.5724
16271TIP3    H170228   0.115   3.982   6.089  1.2891  2.6688  1.0555
16271TIP3    H270229   0.258   3.951   6.129  1.4220  1.1699 -0.4546
16272TIP3   OH270230   4.345   6.428  12.121  0.0351  0.0545  0.3970
16272TIP3    H170231   4.397   6.464  12.193  0.5307 -2.1821  1.2445
16272TIP3    H270232   4.289   6.500  12.094  2.0807  1.9383  0.8550
16273TIP3   OH270233   2.572   4.841  16.538  0.6085 -0.6275  0.2634
16273TIP3    H170234   2.569   4.764  16.480  3.2814 -0.3195 -0.4420
16273TIP3    H270235   2.656   4.832  16.584 -0.3959  0.3667  2.4083
16274TIP3   OH270236   3.805   2.471   4.127  0.8650 -0.3771 -0.0002
16274TIP3    H170237   3.882   2.516   4.161  1.9083 -1.7405 -0.4894
16274TIP3    H270238   3.816   2.475   4.032  0.7278 -1.2456 -0.0553
16275TIP3   OH270239   0.908   5.325  15.194 -0.1517  0.0801 -0.8751
16275TIP3    H170240   0.919   5.397  15.256 -1.5101 -1.0239  0.7211
16275TIP3    H270241   0.980   5.265  15.213 -1.5762 -1.1393  0.9800
16276TIP3   OH270242   2.092   0.864   2.538  0.5173  0.4490 -0.1296
16276TIP3    H170243   2.031   0.814   2.592 -0.7828  2.1932  0.1126
16276TIP3    H270244   2.156   0.899   2.601 -0.4075  1.6397  0.1927
16277TIP3   OH270245   2.479   5.841  11.867  0.1715 -0.9024  0.0208
16277TIP3    H170246   2.450   5.901  11.936 -2.1702 -0.4841 -1.2356
16277TIP3    H270247   2.413   5.771  11.866  0.6576 -1.3751 -1.1834
16278TIP3   OH270248   6.470   0.042  12.243 -0.0503 -0.0913 -0.3732
16278TIP3    H170249   6.418   0.121  12.229 -2.0983 -1.0116  1.4893
16278TIP3    H270250   6.465  -0.005  12.160 -0.8142  0.6117 -0.7315
16279TIP3   OH270251   4.984   5.353   1.605 -0.4231 -0.6536  0.3615
16279TIP3    H170252   5.036   5.278   1.579 -0.9508 -0.9104  0.0478
16279TIP3    H270253   4.998   5.360   1.700 -0.0277 -0.8748  0.3215
16280TIP3   OH270254   5.304   4.273  12.332 -0.4078 -0.3428 -0.5590
16280TIP3    H170255   5.274   4.328  12.259  0.7100  0.8933 -0.1156
16280TIP3    H270256   5.231   4.275  12.394 -0.1306  1.2612 -0.2334
16281TIP3   OH270257   3.755   5.426  14.002  0.1260  0.3992 -0.7044
16281TIP3    H170258   3.839   5.440  13.957 -0.5271  1.4590 -1.6241
16281TIP3    H270259   3.760   5.482  14.079  0.6432 -0.2953 -0.2113
16282TIP3   OH270260   6.023   4.616   2.918  0.1136  0.3819  0.2551
16282TIP3    H170261   6.105   4.605   2.870  0.8556  1.6735  1.1471
16282TIP3    H270262   5.976   4.534   2.905  2.0351 -0.8491  0.6111
16283TIP3   OH270263   1.197   1.564   5.376  0.5926 -0.4597  0.2649
16283TIP3    H170264   1.231   1.474   5.379 -0.7258 -1.0404 -1.1261
16283TIP3    H270265   1.142   1.571   5.453  0.4266 -0.9677  0.1984
16284TIP3   OH270266   3.236   2.649  16.546  0.5650  0.2590 -0.6236
16284TIP3    H170267   3.327   2.624  16.530  0.3878 -0.2532 -0.8328
16284TIP3    H270268   3.218   2.717  16.480  0.8960  0.6079 -0.3598
16285TIP3   OH270269   3.891   1.702   5.056  0.2463  0.2137  0.5302
16285TIP3    H170270   3.829   1.742   4.996  1.6999  1.4393 -0.2268
16285TIP3    H270271   3.844   1.628   5.094 -2.1292  1.8689  1.0226
16286TIP3   OH270272   0.751   1.553  13.126 -0.5802 -0.4844  0.2335
16286TIP3    H170273   0.712   1.611  13.192 -0.1571  3.0538 -2.3454
16286TIP3    H270274   0.845   1.566  13.134 -0.3216 -2.4549  0.8884
16287TIP3   OH270275   0.884   5.735   1.139  0.2045  0.1160 -0.3722
16287TIP3    H170276   0.940   5.792   1.191  0.6474  0.6703 -1.4259
16287TIP3    H270277   0.935   5.654   1.129  0.7910  0.5766 -1.2294
16288TIP3   OH270278   0.301   4.805   5.183  0.5663 -0.0173  0.2032
16288TIP3    H170279   0.278   4.786   5.092 -2.3784 -3.4477  1.4021
16288TIP3    H270280   0.265   4.892   5.200  2.3175  1.2522 -2.1395
16289TIP3   OH270281   5.642   1.756  15.134  0.1889  0.2201  0.8516
16289TIP3    H170282   5.701   1.685  15.111 -0.5528 -0.7526  1.8460
16289TIP3    H270283   5.688   1.802  15.205 -0.1776 -0.4880  1.5698
16290TIP3   OH270284   5.909   4.676  13.499 -0.6399 -0.2308 -0.4615
16290TIP3    H170285   5.897   4.769  13.517 -1.2093 -0.3981  0.0675
16290TIP3    H270286   5.979   4.672  13.434  0.6446  0.4727  0.8281
16291TIP3   OH270287   5.476   1.645   1.636  0.2447 -0.4949 -0.1316
16291TIP3    H170288   5.474   1.571   1.696  0.8172 -0.0302  0.4865
16291TIP3    H270289   5.530   1.615   1.563  0.0577 -0.8549 -0.1221
16292TIP3   OH270290   4.446   4.877  13.835 -0.2583 -0.0066 -0.3191
16292TIP3    H170291   4.525   4.827  13.815 -0.0178  0.0646  0.4321
16292TIP3    H270292   4.389   4.815  13.881 -0.9855 -0.2913 -1.5447
16293TIP3   OH270293   5.605   6.520   1.979  0.6777 -0.4998 -0.0539
16293TIP3    H170294   5.686   6.534   1.930 -0.3179 -0.0077 -1.6405
16293TIP3    H270295   5.537   6.513   1.912 -0.4048 -2.4867  1.1521
16294TIP3   OH270296   3.698   1.574   5.788  0.4091 -0.2618  0.0587
16294TIP3    H170297   3.694   1.605   5.879 -1.8584  0.1998 -0.1443
16294TIP3    H270298   3.789   1.547   5.776  0.8891  0.1687  2.2965
16295TIP3   OH270299   0.228   0.287   0.062  0.0239  0.1859  0.1192
16295TIP3    H170300   0.166   0.232   0.013 -0.1178 -1.5354  2.0666
16295TIP3    H270301   0.177   0.363   0.089 -0.9520 -0.6336  0.6755
16296TIP3   OH270302   3.667   3.184   3.632  0.4639 -0.0303 -0.5207
16296TIP3    H170303   3.738   3.220   3.579 -0.3265  2.5266  0.0248
16296TIP3    H270304   3.704   3.176   3.720  0.4154  0.2186 -0.4767
16297TIP3   OH270305   1.113   6.619  13.160 -0.1671  0.5626 -0.0734
16297TIP3    H170306   1.125   6.662  13.075  2.1520  2.0666  0.9370
16297TIP3    H270307   1.050   6.674  13.206 -0.4695  0.4297 -0.3142
16298TIP3   OH270308   6.049   1.154  14.716  0.4652 -0.0210 -0.5662
16298TIP3    H170309   6.058   1.087  14.648  0.6078 -0.7205  0.1206
16298TIP3    H270310   5.955   1.172  14.720  0.1571 -1.6146  0.5439
16299TIP3   OH270311   6.260   3.291  10.913 -0.3226 -0.4136  0.2134
16299TIP3    H170312   6.214   3.280  10.830  0.4020  0.3262 -0.3016
16299TIP3    H270313   6.197   3.262  10.979 -0.4977 -2.1176 -0.6513
16300TIP3   OH270314   5.195   1.361   0.044  0.2907 -0.1874 -0.8735
16300TIP3    H170315   5.105   1.365   0.077 -0.1507  1.1306 -2.1213
16300TIP3    H270316   5.245   1.319   0.114 -0.9933  0.5432  0.5308
16301TIP3   OH270317   1.852   5.621  14.076 -0.1035 -0.0988  0.4292
16301TIP3    H170318   1.932   5.578  14.045 -0.2255 -0.1556  0.1884
16301TIP3    H270319   1.781   5.569  14.037 -0.2626 -0.2773  0.9513
16302TIP3   OH270320   4.192   4.802  13.005 -0.3572 -0.6530 -0.0352
16302TIP3    H170321   4.136   4.724  13.010 -1.1054 -0.2356 -1.4689
16302TIP3    H270322   4.213   4.810  12.912  0.8080  0.1049  0.2793
16303TIP3   OH270323   5.596   6.201   0.062  0.1135  0.1655  0.6226
16303TIP3    H170324   5.600   6.115   0.105 -1.4530  1.0456  2.7304
16303TIP3    H270325   5.517   6.197   0.009  1.8279 -0.7736 -2.0572
16304TIP3   OH270326   4.273   5.698   1.568 -0.1973  0.8281  0.0462
16304TIP3    H170327   4.210   5.732   1.504  1.1680  0.5653 -1.4899
16304TIP3    H270328   4.221   5.638   1.621 -1.0537 -0.3364 -1.9663
16305TIP3   OH270329   3.186   5.030  11.565 -0.1576  0.0353 -0.2235
16305TIP3    H170330   3.180   4.965  11.494 -1.7449  1.0727 -1.1043
16305TIP3    H270331   3.193   5.114  11.520  0.3578  0.6116  0.8904
16306TIP3   OH270332   4.792   0.556  13.248 -0.8812  0.3826 -0.4848
16306TIP3    H170333   4.718   0.507  13.284 -1.2917  0.1599 -1.5864
16306TIP3    H270334   4.868   0.501  13.267 -1.2517 -0.3504 -1.0828
16307TIP3   OH270335   1.405   3.392  14.823 -0.2584  0.2284  0.3830
16307TIP3    H170336   1.373   3.437  14.901  1.1470  0.4092  0.8822
16307TIP3    H270337   1.485   3.348  14.851 -0.3863 -0.7146 -0.6633
16308TIP3   OH270338   2.804   1.351   0.431  0.5841 -0.0846 -0.1130
16308TIP3    H170339   2.751   1.389   0.500 -0.0308  0.4941 -0.8848
16308TIP3    H270340   2.894   1.371   0.455  0.3052  1.3901 -0.2187
16309TIP3   OH270341   2.942   3.983  13.670  0.3474 -0.2908  0.3290
16309TIP3    H170342   2.986   4.067  13.660 -0.1822  0.2348  2.0864
16309TIP3    H270343   2.953   3.940  13.585  0.5463  1.5705 -0.6374
16310TIP3   OH270344   1.915   2.446   0.310  0.3296  0.0487  0.6830
16310TIP3    H170345   1.940   2.430   0.400 -1.2133 -1.0558  0.9736
16310TIP3    H270346   1.832   2.494   0.316  1.1594  1.6798 -0.1882
16311TIP3   OH270347   6.658   1.055   1.945 -0.4025 -0.1783  0.0243
16311TIP3    H170348   6.722   1.031   2.013 -1.0784  1.2598  1.2353
16311TIP3    H270349   6.710   1.063   1.865  0.8940  0.5488  0.8942
16312TIP3   OH270350   1.879   1.104   2.573 -0.3854 -0.0074  0.3474
16312TIP3    H170351   1.867   1.153   2.492  1.7592 -0.4169 -0.2679
16312TIP3    H270352   1.962   1.057   2.562  0.1708  0.1982  2.9045
16313TIP3   OH270353   1.482   6.084   4.000 -0.1056  0.3155 -0.4032
16313TIP3    H170354   1.443   6.038   3.926 -1.5292  0.0260  0.4792
16313TIP3    H270355   1.566   6.041   4.013 -0.1653 -0.1338 -1.3699
16314TIP3   OH270356   6.313   4.294  11.955  0.2169  1.1275 -0.2439
16314TIP3    H170357   6.317   4.371  12.012  1.4609  0.9335 -0.0287
16314TIP3    H270358   6.355   4.322  11.874  0.8896  0.6213 -0.0776
16315TIP3   OH270359   0.219   1.513   4.685  0.0907  0.5276  0.4213
16315TIP3    H170360   0.201   1.546   4.597 -1.4480 -1.3547 -0.0403
16315TIP3    H270361   0.143   1.541   4.737 -0.5136 -0.9477  0.3706
16316TIP3   OH270362   3.001   5.669  15.061  0.7976 -0.2554  0.1016
16316TIP3    H170363   3.045   5.604  15.006 -0.2259 -1.6526  0.8673
16316TIP3    H270364   2.996   5.747  15.006  0.4152 -1.3824 -1.5547
16317TIP3   OH270365   2.828   3.600   0.243  0.2729 -0.7127 -0.3777
16317TIP3    H170366   2.794   3.631   0.327  2.3256 -2.0635  1.0537
16317TIP3    H270367   2.843   3.679   0.192 -2.0084  0.0792  0.0814
16318TIP3   OH270368   2.007   2.437  16.850 -0.5260  0.1549  0.1930
16318TIP3    H170369   1.932   2.462  16.796 -0.1864 -1.2611 -1.0074
16318TIP3    H270370   2.082   2.449  16.792 -0.2963 -2.9653 -0.3199
16319TIP3   OH270371   4.945   0.769  16.100 -0.2961  0.4313  0.2734
16319TIP3    H170372   4.898   0.741  16.022 -0.0879 -2.8358  1.1811
16319TIP3    H270373   4.890   0.838  16.138 -2.3371 -0.5322 -0.7835
16320TIP3   OH270374   3.049   5.562   1.959 -0.1538 -0.2128 -0.1602
16320TIP3    H170375   3.120   5.527   1.905  0.4180  0.3928  0.1816
16320TIP3    H270376   2.997   5.486   1.984 -1.0656 -0.4206 -2.4339
16321TIP3   OH270377   1.555   0.568  14.167 -0.7109 -0.0973 -0.3226
16321TIP3    H170378   1.576   0.512  14.092 -0.9486  0.8575 -1.1250
16321TIP3    H270379   1.533   0.653  14.128 -1.9633  0.1029  0.7637
16322TIP3   OH270380   0.741   1.052   3.761  0.2124 -0.0789  0.5563
16322TIP3    H170381   0.672   1.058   3.828  0.8322 -0.7198  1.2696
16322TIP3    H270382   0.809   1.111   3.792  0.9104 -1.0922  1.0141
16323TIP3   OH270383   4.386   3.443  11.595  0.0506 -0.9285 -0.0356
16323TIP3    H170384   4.377   3.390  11.674  2.2261 -0.0706  0.8925
16323TIP3    H270385   4.473   3.420  11.561  1.4008  2.3692  0.7968
16324TIP3   OH270386   6.709   0.476  13.596  0.3519  0.6365 -0.0107
16324TIP3    H170387   6.759   0.395  13.601  0.2014  0.5344 -0.1777
16324TIP3    H270388   6.662   0.472  13.513 -0.1752  0.5901  0.2788
16325TIP3   OH270389   4.972   2.097   3.748 -0.2233 -0.1590  0.2257
16325TIP3    H170390   4.951   2.190   3.735  0.2274 -0.2509 -1.2567
16325TIP3    H270391   5.032   2.076   3.678 -1.8122 -2.0910 -0.6381
16326TIP3   OH270392   5.156   4.407  15.546  0.4909  0.2369  0.0668
16326TIP3    H170393   5.166   4.371  15.634 -1.9509  0.4209  0.4825
16326TIP3    H270394   5.133   4.499  15.560 -2.3323 -0.2844 -0.5935
16327TIP3   OH270395   3.653   6.587  12.227 -0.4168  0.5215  0.7000
16327TIP3    H170396   3.748   6.588  12.241 -0.3182 -1.9850  0.6451
16327TIP3    H270397   3.621   6.519  12.287 -2.2542  1.6111  1.0103
16328TIP3   OH270398   1.309   1.876   6.459 -0.6404  0.2718  0.2863
16328TIP3    H170399   1.219   1.878   6.428 -0.8162 -0.5766  0.7320
16328TIP3    H270400   1.310   1.810   6.528  0.3323  0.2398  0.2584
16329TIP3   OH270401   4.274   0.782   2.167  0.4223 -0.6626 -0.0864
16329TIP3    H170402   4.360   0.795   2.208 -0.0022  1.4831  0.2399
16329TIP3    H270403   4.270   0.688   2.151  3.6302 -0.6349 -1.8973
16330TIP3   OH270404   1.397   4.485  15.823 -0.0423  0.8789  0.5878
16330TIP3    H170405   1.364   4.520  15.740  0.3187  0.4578  0.2636
16330TIP3    H270406   1.456   4.415  15.798 -2.6435 -1.7453  1.2083
16331TIP3   OH270407   3.881   0.538   2.185  0.7024  0.7045 -0.2503
16331TIP3    H170408   3.882   0.627   2.148 -0.6616  1.4717  1.4319
16331TIP3    H270409   3.789   0.516   2.192  0.9647 -0.0790  1.0884
16332TIP3   OH270410   6.385   4.969   5.908  0.1215  0.0066 -0.5906
16332TIP3    H170411   6.372   4.975   6.002 -2.4759  0.3888 -0.9028
16332TIP3    H270412   6.452   5.034   5.888  0.9663 -0.3398  1.0022
16333TIP3   OH270413   4.290   1.960  11.481 -0.3643  0.2348  0.3005
16333TIP3    H170414   4.202   1.996  11.471 -0.8280 -1.2137 -1.7168
16333TIP3    H270415   4.282   1.896  11.552 -0.5623  1.0908  1.0658
16334TIP3   OH270416   3.591   4.581  10.604 -0.0920 -0.2103 -0.0923
16334TIP3    H170417   3.676   4.619  10.626 -0.3059  0.0206  0.3422
16334TIP3    H270418   3.597   4.491  10.635 -0.0820 -0.1353  0.1203
16335TIP3   OH270419   2.050   0.765   3.024 -0.1645  0.1288 -0.1930
16335TIP3    H170420   2.113   0.835   3.039 -0.6405  0.5647 -0.1909
16335TIP3    H270421   2.094   0.705   2.964 -0.2783  1.1809 -1.3832
16336TIP3   OH270422   1.393   4.282  15.084  0.1208  0.3116 -0.3046
16336TIP3    H170423   1.380   4.252  15.173  1.0079 -0.4985 -0.4366
16336TIP3    H270424   1.480   4.322  15.084  0.7607 -1.0011 -1.1159
16337TIP3   OH270425   5.846   6.163   3.236  0.5012  0.1297  0.0278
16337TIP3    H170426   5.824   6.190   3.325  1.3990 -0.2621  0.3851
16337TIP3    H270427   5.863   6.245   3.189  1.3343  0.2831  0.5820
16338TIP3   OH270428   0.403   5.176  13.464  0.1263  0.1751  0.0358
16338TIP3    H170429   0.412   5.080  13.461 -0.0414  0.1446  0.4606
16338TIP3    H270430   0.346   5.197  13.390  1.0457  0.0584 -0.7276
16339TIP3   OH270431   4.855   3.564   0.511  0.1844 -0.1767  0.0750
16339TIP3    H170432   4.882   3.508   0.438  1.5020 -0.0280  0.4264
16339TIP3    H270433   4.777   3.522   0.545 -0.2554 -0.4460 -1.1968
16340TIP3   OH270434   4.894   5.199   1.124  0.2677  0.5266  0.5580
16340TIP3    H170435   4.853   5.283   1.102 -0.9751  0.0965  1.1505
16340TIP3    H270436   4.948   5.218   1.201  1.3973  1.1405 -0.3449
16341TIP3   OH270437   2.275   0.076  15.201 -0.6634 -0.5515 -0.1406
16341TIP3    H170438   2.269   0.022  15.123  3.5721  0.2380 -1.2269
16341TIP3    H270439   2.266   0.166  15.169 -1.0409 -0.2933  0.6521
16342TIP3   OH270440   0.011   2.971   6.363  0.1543 -0.0902 -0.8732
16342TIP3    H170441   0.083   2.967   6.426 -1.6460 -0.6082  1.2575
16342TIP3    H270442   0.006   2.883   6.325  0.0675 -0.3113 -0.3475
16343TIP3   OH270443   6.181   1.306  15.123 -0.2345 -0.2380  0.0301
16343TIP3    H170444   6.274   1.317  15.104 -0.2872 -0.5878 -0.4426
16343TIP3    H270445   6.177   1.230  15.181 -0.0807  0.7850  1.4127
16344TIP3   OH270446   2.036   1.138  11.364 -0.0258  0.2305 -0.0181
16344TIP3    H170447   2.037   1.084  11.285  0.3640 -1.2626  0.9792
16344TIP3    H270448   2.067   1.224  11.334 -0.0178 -0.2534 -1.5035
16345TIP3   OH270449   0.228   3.820   3.958 -0.3469  0.3418  0.1296
16345TIP3    H170450   0.294   3.775   3.905 -0.2319 -2.8078  2.6679
16345TIP3    H270451   0.147   3.772   3.941 -0.7908  0.7282  1.0958
16346TIP3   OH270452   5.309   4.225  16.945 -0.1535  0.0605 -0.3126
16346TIP3    H170453   5.286   4.292  16.881 -0.3373  0.7153  0.4241
16346TIP3    H270454   5.278   4.143  16.906  0.5253  0.3199 -1.4503
16347TIP3   OH270455   1.832   0.544  14.778  0.2883  0.6207 -0.0773
16347TIP3    H170456   1.882   0.573  14.854  1.9340 -0.4682 -0.6829
16347TIP3    H270457   1.827   0.621  14.722  0.4960  0.9841  0.3966
16348TIP3   OH270458   5.320   2.620   2.907 -0.1819  0.3375  0.4956
16348TIP3    H170459   5.260   2.585   2.973 -1.7091  0.8407 -0.5737
16348TIP3    H270460   5.405   2.587   2.933 -0.9310 -0.5435  1.9852
16349TIP3   OH270461   5.834   3.872   1.309  0.3257  0.6082 -0.2819
16349TIP3    H170462   5.855   3.832   1.225 -0.4202 -0.7006  0.1339
16349TIP3    H270463   5.825   3.965   1.289 -0.4613  0.2447 -1.7678
16350TIP3   OH270464   4.800   0.435   1.933 -0.1831  0.0931 -0.5842
16350TIP3    H170465   4.756   0.493   1.995  0.2546  0.2575 -0.4228
16350TIP3    H270466   4.729   0.395   1.883 -0.9015 -2.7456  2.3296
16351TIP3   OH270467   3.467   3.435  16.943  0.1888  0.3346  0.3399
16351TIP3    H170468   3.516   3.353  16.936 -1.5808 -0.7270 -0.2154
16351TIP3    H270469   3.380   3.408  16.971 -0.3216  2.0809  0.5189
16352TIP3   OH270470   0.706   0.020   0.410 -0.3550  0.2083  0.2859
16352TIP3    H170471   0.759   0.021   0.489 -2.2141 -0.5833  1.6411
16352TIP3    H270472   0.665   0.106   0.407  0.4500  0.5822 -0.3872
16353TIP3   OH270473   1.063   2.224   4.684 -0.8167  0.3583  0.8276
16353TIP3    H170474   1.031   2.141   4.719  1.7415 -1.9667 -1.8229
16353TIP3    H270475   1.155   2.227   4.710  0.0670  0.5097 -1.9730
16354TIP3   OH270476   3.750   6.377   0.681  0.2452 -0.0921  0.2155
16354TIP3    H170477   3.705   6.406   0.602  0.5774  0.7497  0.3282
16354TIP3    H270478   3.841   6.366   0.654  0.0195 -1.7394  0.0011
16355TIP3   OH270479   2.226   0.011   1.850  0.3710 -0.3379 -0.1529
16355TIP3    H170480   2.136  -0.013   1.871  0.3172  0.7087  0.9048
16355TIP3    H270481   2.272  -0.072   1.842 -0.0816 -0.8742  2.1139
16356TIP3   OH270482   2.562   1.066  14.395 -0.2982 -0.3196 -0.2732
16356TIP3    H170483   2.520   1.087  14.478  0.9719 -0.4743  0.4425
16356TIP3    H270484   2.528   1.131  14.334 -0.6023  0.3403  0.5755
16357TIP3   OH270485   4.025   3.249  12.572  0.0662 -0.3056 -0.0015
16357TIP3    H170486   4.054   3.286  12.489  0.4185 -1.4818 -0.4284
16357TIP3    H270487   3.939   3.211  12.553  0.3032 -0.8916  0.0698
16358TIP3   OH270488   2.839   4.724   4.335 -0.6585  0.5072 -0.0577
16358TIP3    H170489   2.887   4.670   4.399 -0.8380  1.3222  0.7896
16358TIP3    H270490   2.820   4.664   4.263  1.4893  0.0854 -0.3683
16359TIP3   OH270491   4.328   2.023  14.804 -0.1846  0.5345  0.1614
16359TIP3    H170492   4.263   1.986  14.745  0.4755  1.5891 -1.2883
16359TIP3    H270493   4.277   2.060  14.875 -1.0568 -0.0574 -0.1415
16360TIP3   OH270494   4.016   3.882   5.571 -0.3575 -0.7063 -0.3232
16360TIP3    H170495   4.101   3.919   5.548 -0.3201 -1.5958 -1.6527
16360TIP3    H270496   4.036   3.817   5.638 -0.4500  1.7372  2.3064
16361TIP3   OH270497   1.282   3.277   3.544  0.5214  0.4508 -0.0903
16361TIP3    H170498   1.331   3.235   3.615  1.0611 -0.7035 -1.1218
16361TIP3    H270499   1.202   3.225   3.536 -0.3547  1.6165  0.7924
16362TIP3   OH270500   2.890   4.291   0.330 -0.7518 -0.4064  0.2111
16362TIP3    H170501   2.812   4.327   0.373  0.1514  1.0538  0.7134
16362TIP3    H270502   2.937   4.368   0.298  0.7174 -1.2255  0.3355
16363TIP3   OH270503   4.466   6.044   2.774 -0.5199 -0.2471  0.3182
16363TIP3    H170504   4.377   6.057   2.808 -0.5446 -1.0830  0.5928
16363TIP3    H270505   4.491   6.130   2.740 -1.0607  0.2428  1.1165
16364TIP3   OH270506   3.312   1.929  14.417 -0.3695  0.1557 -0.1747
16364TIP3    H170507   3.247   1.889  14.360  0.3380 -1.0620 -0.1611
16364TIP3    H270508   3.291   2.023  14.416 -0.8101  0.0563 -1.8272
16365TIP3   OH270509   6.774   2.972   4.157  0.7281 -0.3620 -0.3705
16365TIP3    H170510   6.837   3.043   4.153 -0.4901  0.7029 -1.9535
16365TIP3    H270511   6.804   2.910   4.090 -0.5933  0.8019 -2.1069
16366TIP3   OH270512   1.010   0.413   3.997  0.3320 -0.5315 -0.1705
16366TIP3    H170513   0.989   0.322   3.975 -3.2828  0.0875  0.1449
16366TIP3    H270514   1.036   0.452   3.913 -1.4778 -1.1157 -1.0676
16367TIP3   OH270515   2.792   6.795  16.417 -0.0407  0.2546 -0.3370
16367TIP3    H170516   2.849   6.719  16.402  0.4917  0.7691 -0.9565
16367TIP3    H270517   2.825   6.862  16.358 -2.3105  0.0754 -1.9076
16368TIP3   OH270518   5.088   1.589   6.237  0.0061  0.3014 -0.0998
16368TIP3    H170519   5.036   1.594   6.158 -0.0510  0.1125 -0.0741
16368TIP3    H270520   5.175   1.621   6.211  0.3991 -1.0897 -0.5935
16369TIP3   OH270521   4.131   5.516  15.405 -0.3716  0.4341 -0.3419
16369TIP3    H170522   4.205   5.561  15.365 -1.3638  3.1147  0.6308
16369TIP3    H270523   4.054   5.552  15.362 -1.2189 -1.1584 -0.2509
16370TIP3   OH270524   3.849   4.960  11.014  0.0262 -0.3864  0.5103
16370TIP3    H170525   3.834   4.990  10.924  0.1310  0.3451  0.7266
16370TIP3    H270526   3.939   4.928  11.013 -0.8504 -3.0830 -0.3346
16371TIP3   OH270527   6.286   0.392  13.588  0.5710  0.4595 -0.4591
16371TIP3    H170528   6.203   0.366  13.629  0.9891  0.7220  0.5916
16371TIP3    H270529   6.264   0.406  13.496 -0.3438 -0.4064 -0.3851
16372TIP3   OH270530   2.960   4.494   5.653  0.0756  0.3632 -0.3050
16372TIP3    H170531   2.971   4.457   5.741 -2.4105  1.7308  0.6857
16372TIP3    H270532   2.979   4.587   5.663 -0.4879  0.5822 -1.1568
16373TIP3   OH270533   5.465   6.365   1.281  0.3735 -0.5938 -0.2431
16373TIP3    H170534   5.548   6.332   1.246 -0.9612 -2.1738 -2.0618
16373TIP3    H270535   5.412   6.385   1.204 -0.4857  1.8054  0.8451
16374TIP3   OH270536   2.926   1.699  16.801  0.6593  0.5596  0.0211
16374TIP3    H170537   2.927   1.727  16.710 -2.7331 -0.1875 -0.3858
16374TIP3    H270538   2.918   1.603  16.797  1.2049  0.4452  1.1416
16375TIP3   OH270539   4.875   0.156  10.892 -0.3226  0.4957 -0.2041
16375TIP3    H170540   4.927   0.236  10.904 -0.8220  0.8880 -0.6279
16375TIP3    H270541   4.929   0.087  10.931  0.2997  0.9721 -0.1966
16376TIP3   OH270542   6.109   4.779   1.234 -0.2249 -0.0784 -0.2209
16376TIP3    H170543   6.114   4.832   1.154  1.6963  1.0879  0.5785
16376TIP3    H270544   6.127   4.690   1.206 -0.8557  0.1075 -1.2464
16377TIP3   OH270545   2.625   3.453  17.113  0.4801  0.4484  0.3401
16377TIP3    H170546   2.538   3.420  17.137  0.4770  1.2804  1.5700
16377TIP3    H270547   2.607   3.533  17.064  0.5390  0.2571  0.0075
16378TIP3   OH270548   3.218   3.263   2.417  0.2638  0.1846  0.1344
16378TIP3    H170549   3.157   3.197   2.385 -0.9557  1.7945 -1.0673
16378TIP3    H270550   3.181   3.294   2.499  0.9546 -0.7396  0.8138
16379TIP3   OH270551   0.782   0.714  13.248  0.3201  0.0439  0.1226
16379TIP3    H170552   0.851   0.753  13.194 -0.5737  1.8863  0.2140
16379TIP3    H270553   0.740   0.650  13.191 -2.5461  3.9581 -2.7034
16380TIP3   OH270554   6.202   5.781   4.120  0.0440  0.3320 -0.0278
16380TIP3    H170555   6.280   5.831   4.144  0.2216  0.2501 -0.4270
16380TIP3    H270556   6.164   5.753   4.204  0.3515  0.5117  0.1711
16381TIP3   OH270557   4.509   4.122  15.757 -0.0290  0.5028 -0.1795
16381TIP3    H170558   4.486   4.096  15.667 -0.0223  0.4038 -0.1525
16381TIP3    H270559   4.535   4.214  15.749  0.1887  0.4298 -0.3173
16382TIP3   OH270560   3.724   4.538  16.298 -0.6322  0.1037  0.0979
16382TIP3    H170561   3.658   4.607  16.303  0.0208  0.6607  3.0833
16382TIP3    H270562   3.806   4.581  16.323 -0.0447 -1.5527  1.1847
16383TIP3   OH270563   4.230   2.739   0.303  0.1482  0.2257  0.0986
16383TIP3    H170564   4.320   2.758   0.279  0.6844 -2.3074 -0.1233
16383TIP3    H270565   4.213   2.651   0.270 -2.5902  0.7904 -0.3031
16384TIP3   OH270566   6.795   4.400  14.926  0.0138 -0.3453  0.2183
16384TIP3    H170567   6.778   4.335  14.993 -0.5718 -0.3144  0.1070
16384TIP3    H270568   6.876   4.443  14.954 -0.2644 -0.2759  0.9480
16385TIP3   OH270569   5.949   5.563   1.884 -0.4746 -0.2561  0.1324
16385TIP3    H170570   5.936   5.526   1.797  1.4826  1.6517 -1.0684
16385TIP3    H270571   5.919   5.654   1.877  0.1628  0.0722  1.3029
16386TIP3   OH270572   1.193   4.021  12.728  0.0217  0.0081  0.4300
16386TIP3    H170573   1.244   3.962  12.673 -0.9827 -0.0446 -0.4551
16386TIP3    H270574   1.223   4.109  12.704  0.1680 -0.0531  0.3890
16387TIP3   OH270575   2.231   2.823   1.720 -0.6338  0.2218 -0.7046
16387TIP3    H170576   2.187   2.896   1.676 -1.5385  0.0429 -0.1115
16387TIP3    H270577   2.243   2.852   1.810  0.0788  0.0945 -0.7524
16388TIP3   OH270578   3.030   3.525  11.112 -0.2503 -0.4905  0.5272
16388TIP3    H170579   3.114   3.558  11.081 -0.5373 -0.4811 -0.2665
16388TIP3    H270580   3.006   3.457  11.049 -2.3371  1.6395 -1.1714
16389TIP3   OH270581   6.372   1.934   0.495  0.2188 -0.0226  0.5720
16389TIP3    H170582   6.400   2.017   0.534 -3.1554  1.2600  0.5855
16389TIP3    H270583   6.453   1.896   0.460  1.9233  3.2829  0.5079
16390TIP3   OH270584   2.532   4.979   0.438  0.0246 -0.2056 -0.2045
16390TIP3    H170585   2.555   5.030   0.360  0.3831 -0.3241 -0.1794
16390TIP3    H270586   2.517   5.045   0.505  0.9298 -0.1346 -0.0547
16391TIP3   OH270587   1.499   2.379  14.966 -0.1432 -0.0348  0.2578
16391TIP3    H170588   1.469   2.404  14.879  2.1910  1.6750 -0.1658
16391TIP3    H270589   1.440   2.425  15.026  0.1989  1.4514 -0.4910
16392TIP3   OH270590   0.835   2.014  12.659 -0.3137  0.2142  0.1489
16392TIP3    H170591   0.780   1.961  12.717 -0.0352 -0.9357 -0.6012
16392TIP3    H270592   0.802   1.993  12.571  0.4410  0.5559 -0.2171
16393TIP3   OH270593   6.336   3.660   1.805  0.0042 -0.2318 -0.2269
16393TIP3    H170594   6.361   3.696   1.721 -0.5835  0.4114 -0.1397
16393TIP3    H270595   6.253   3.703   1.826  0.1717 -0.3306  0.7063
16394TIP3   OH270596   3.221   5.009  16.801 -0.2749 -0.6739 -0.2834
16394TIP3    H170597   3.183   5.088  16.761  0.6740 -0.3277 -0.5179
16394TIP3    H270598   3.164   4.992  16.877  0.0420  0.7937  0.3293
16395TIP3   OH270599   2.222   1.166  12.344  0.1144  0.0213  0.0591
16395TIP3    H170600   2.310   1.201  12.359  0.3626 -0.6888  0.3328
16395TIP3    H270601   2.203   1.115  12.423  0.1762 -1.2522 -0.7087
16396TIP3   OH270602   6.543   6.230   0.741  0.4484  0.6806  0.3338
16396TIP3    H170603   6.596   6.273   0.673  0.6576 -1.3073 -0.8422
16396TIP3    H270604   6.455   6.225   0.702  0.8271 -1.5352 -0.3856
16397TIP3   OH270605   5.599   4.027   4.074 -0.1911 -0.0765 -0.0670
16397TIP3    H170606   5.564   3.962   4.135 -1.6615  1.4093  0.7816
16397TIP3    H270607   5.657   4.081   4.127 -0.8953  0.7700 -0.1288
16398TIP3   OH270608   2.492   3.790  13.354 -0.2755 -0.2521 -0.5131
16398TIP3    H170609   2.542   3.763  13.276  1.2584  0.0441  0.3191
16398TIP3    H270610   2.492   3.713  13.410  2.1997  0.6570  0.9085
16399TIP3   OH270611   5.761   3.465   1.463  0.1728 -0.7676  0.1324
16399TIP3    H170612   5.815   3.418   1.527  0.3576 -2.1954 -1.0207
16399TIP3    H270613   5.822   3.494   1.396  0.2284  2.1270  1.2803
16400TIP3   OH270614   4.718   6.266  15.683  0.3878  0.2121 -0.4119
16400TIP3    H170615   4.705   6.328  15.755  0.3865 -1.7583  1.3696
16400TIP3    H270616   4.769   6.195  15.721  1.8395 -0.1637 -2.8224
16401TIP3   OH270617   0.700   4.358  14.322  0.6679 -0.1917 -0.1533
16401TIP3    H170618   0.604   4.351  14.317  0.7093 -0.9239  0.0027
16401TIP3    H270619   0.730   4.267  14.326  1.4855 -0.0732 -2.3979
16402TIP3   OH270620   3.148   4.978  16.443  0.1339 -0.1046  0.1156
16402TIP3    H170621   3.219   4.981  16.379  1.5946  1.4329  1.7016
16402TIP3    H270622   3.106   5.063  16.436 -0.9210 -0.6276 -0.0850
16403TIP3   OH270623   1.585   1.541  14.940 -0.4859 -0.1051  0.2907
16403TIP3    H170624   1.598   1.558  14.847 -0.8802  0.7620  0.3837
16403TIP3    H270625   1.622   1.617  14.984  0.0763 -0.7052  0.8684
16404TIP3   OH270626   5.170   0.012   6.453  0.3835  0.4249 -0.2130
16404TIP3    H170627   5.089  -0.029   6.425  0.3629  0.9184 -0.8897
16404TIP3    H270628   5.237  -0.024   6.394  0.5045  0.7125 -0.2505
16405TIP3   OH270629   5.615   2.230   0.143  0.4849  0.0578  0.1644
16405TIP3    H170630   5.584   2.140   0.154 -0.4256  0.3013 -0.3122
16405TIP3    H270631   5.590   2.274   0.225 -0.0774  0.1538 -0.0569
16406TIP3   OH270632   5.347   6.794   1.862 -0.1605 -0.2080  0.5280
16406TIP3    H170633   5.308   6.716   1.901 -1.9562 -0.3500 -1.3720
16406TIP3    H270634   5.304   6.868   1.905 -1.4767 -0.3546 -0.4629
16407TIP3   OH270635   5.356   6.214  16.309 -0.4758  0.4418  0.1120
16407TIP3    H170636   5.332   6.211  16.401  0.7486  0.7686  0.4651
16407TIP3    H270637   5.341   6.125  16.278 -1.2368  0.4188  0.5317
16408TIP3   OH270638   3.891   2.334  14.504 -0.0544  0.4443 -0.7161
16408TIP3    H170639   3.881   2.416  14.457 -4.4648  1.7063  1.9022
16408TIP3    H270640   3.819   2.279  14.473  1.0535 -1.3298 -0.2806
16409TIP3   OH270641   0.345   1.931   2.578  0.4525 -0.2034 -0.0094
16409TIP3    H170642   0.409   1.861   2.563  0.0065 -0.8753  1.0444
16409TIP3    H270643   0.398   2.006   2.606  0.8690 -0.4225 -0.2021
16410TIP3   OH270644   2.536   1.317   4.354 -0.1367  0.1670 -0.2592
16410TIP3    H170645   2.583   1.341   4.433 -0.0675  0.5134 -0.4067
16410TIP3    H270646   2.604   1.295   4.290 -0.1647  0.8555 -0.5325
16411TIP3   OH270647   1.448   3.529   1.662 -0.3864 -0.9756 -0.6867
16411TIP3    H170648   1.459   3.438   1.637 -2.5779 -1.2370 -0.9152
16411TIP3    H270649   1.461   3.529   1.757  0.9952 -1.2420 -0.8556
16412TIP3   OH270650   1.740   5.335  13.186  0.4712  0.2057  0.4140
16412TIP3    H170651   1.828   5.333  13.222  0.8571  0.3926 -0.4887
16412TIP3    H270652   1.746   5.390  13.108 -0.0577 -1.0978 -0.6066
16413TIP3   OH270653   2.044   5.707   3.771  0.4831 -0.0752 -0.1032
16413TIP3    H170654   1.958   5.740   3.798  0.7226  0.3032  0.2131
16413TIP3    H270655   2.040   5.704   3.675 -0.0438 -0.5139 -0.0736
16414TIP3   OH270656   1.079   5.609  12.131 -0.0891  0.1528 -0.2722
16414TIP3    H170657   1.017   5.536  12.133  0.3753 -0.2468  0.9008
16414TIP3    H270658   1.115   5.609  12.042 -1.0286 -0.2415 -0.6550
16415TIP3   OH270659   5.648   3.234   5.123  0.5474 -0.5830  0.1531
16415TIP3    H170660   5.628   3.141   5.112  1.1042 -0.5929 -0.9072
16415TIP3    H270661   5.737   3.244   5.089  0.6965  0.2482  0.7450
16416TIP3   OH270662   3.145   5.105  13.215  0.4134 -0.0304  0.6009
16416TIP3    H170663   3.163   5.024  13.264  1.6547 -0.4194 -0.4479
16416TIP3    H270664   3.090   5.077  13.142  0.6376  0.1083  0.3770
16417TIP3   OH270665   6.227   3.351   3.835 -0.2992 -0.1554  0.2265
16417TIP3    H170666   6.172   3.374   3.910 -1.3966  1.7699 -1.0561
16417TIP3    H270667   6.301   3.412   3.840 -0.1474 -0.3195 -0.0120
16418TIP3   OH270668   4.141   3.699   4.866 -0.3247  0.2070  0.1621
16418TIP3    H170669   4.058   3.723   4.825  0.5300 -0.0178 -1.7971
16418TIP3    H270670   4.184   3.643   4.802  0.6055 -1.1301  1.8655
16419TIP3   OH270671   3.436   5.132  12.677 -0.2224 -0.1738  0.0881
16419TIP3    H170672   3.497   5.141  12.750 -0.2509  2.3827 -0.1167
16419TIP3    H270673   3.361   5.186  12.701  0.0286  1.2247 -2.0180
16420TIP3   OH270674   1.534   2.723  16.289 -0.4118 -0.1807 -0.0634
16420TIP3    H170675   1.602   2.697  16.352  0.0442  1.8607  0.3391
16420TIP3    H270676   1.563   2.685  16.206  0.8715  0.0809  0.2386
16421TIP3   OH270677   1.949   4.394   3.363 -0.7050  0.2669 -0.0262
16421TIP3    H170678   2.006   4.390   3.440  0.9910  3.3402 -0.9633
16421TIP3    H270679   1.977   4.320   3.309 -0.4636 -0.6651  1.3316
16422TIP3   OH270680   2.600   5.005  15.494  0.0090  0.1121  0.0809
16422TIP3    H170681   2.695   4.992  15.500 -0.0538 -0.2169  0.4088
16422TIP3    H270682   2.585   5.035  15.404  0.2229 -1.5709 -0.5499
16423TIP3   OH270683   5.444   5.024  12.315  0.0699  0.1924 -0.2789
16423TIP3    H170684   5.432   5.025  12.220 -0.1999 -1.6411 -0.3011
16423TIP3    H270685   5.537   5.040  12.328  0.2868 -0.4970 -0.9179
16424TIP3   OH270686   3.481   6.028  12.296  0.1453  0.1935  0.4049
16424TIP3    H170687   3.557   6.078  12.266 -0.0258  0.5837  0.6114
16424TIP3    H270688   3.417   6.036  12.224 -0.9387  2.5977  1.5301
16425TIP3   OH270689   1.685   1.996  12.076 -0.0779 -0.3807  0.0213
16425TIP3    H170690   1.653   1.937  12.143  0.0663  0.2727  0.6798
16425TIP3    H270691   1.749   2.052  12.121  1.2425 -0.9819 -1.0093
16426TIP3   OH270692   5.412   6.445   0.328 -0.1132 -0.5367  0.8516
16426TIP3    H170693   5.358   6.496   0.268  2.4560  2.0222  0.4706
16426TIP3    H270694   5.429   6.504   0.401  2.3713 -1.0150  0.7658
16427TIP3   OH270695   3.930   3.462  16.975  0.3600  0.3719 -0.0597
16427TIP3    H170696   4.011   3.433  17.018  0.1098 -2.0746 -1.0631
16427TIP3    H270697   3.874   3.384  16.975 -2.8283  2.4567  2.2760
16428TIP3   OH270698   1.936   2.594  12.788  0.1278 -0.2307  0.4655
16428TIP3    H170699   1.895   2.511  12.814 -2.7158  1.0512  0.4692
16428TIP3    H270700   1.980   2.573  12.706 -1.9673 -1.4554 -0.4513
16429TIP3   OH270701   0.971   5.944   6.215 -0.3760  0.1218 -0.0803
16429TIP3    H170702   0.908   6.016   6.219 -1.8088 -0.9461 -2.0733
16429TIP3    H270703   0.918   5.865   6.224  0.9055 -0.7740 -0.1299
16430TIP3   OH270704   5.422   2.763  11.498  0.0661  0.1024 -0.3177
16430TIP3    H170705   5.327   2.753  11.506 -0.0592  1.1317 -0.4433
16430TIP3    H270706   5.448   2.812  11.576  0.4430  0.1310 -0.4569
16431TIP3   OH270707   1.879   6.722  13.999  0.1916 -0.4870  0.1055
16431TIP3    H170708   1.888   6.801  14.053  2.5607 -0.3480 -0.3814
16431TIP3    H270709   1.794   6.685  14.025 -1.0141  2.1874  0.3431
16432TIP3   OH270710   0.917   5.130  10.877  0.3145 -0.0840  0.0743
16432TIP3    H170711   0.904   5.105  10.969 -1.1503 -1.9458 -0.5574
16432TIP3    H270712   0.841   5.185  10.857 -1.0301 -2.1142 -0.7453
16433TIP3   OH270713   5.489   6.111  12.618  0.7612 -0.0124 -0.4946
16433TIP3    H170714   5.522   6.169  12.687  0.5720 -0.5766  0.0850
16433TIP3    H270715   5.557   6.111  12.551  1.7023 -0.7221  0.4260
16434TIP3   OH270716   0.923   3.440   1.505 -0.1928 -0.0655  0.7086
16434TIP3    H170717   0.955   3.410   1.420 -0.2790 -0.1502  0.7054
16434TIP3    H270718   1.001   3.472   1.550 -0.1536  0.0192  0.5817
16435TIP3   OH270719   5.579   3.565  15.977 -0.7997  0.0695  0.4889
16435TIP3    H170720   5.485   3.550  15.988 -1.2159  0.2905 -2.1094
16435TIP3    H270721   5.611   3.485  15.934 -0.1064  0.5695  0.0506
16436TIP3   OH270722   5.755   0.246   5.707 -0.3535  0.2699 -0.5121
16436TIP3    H170723   5.674   0.233   5.758  0.3355 -0.9365  0.3215
16436TIP3    H270724   5.779   0.337   5.725 -0.2074 -0.0775  1.2581
16437TIP3   OH270725   5.995   0.961   5.825 -0.7235  0.1057 -0.3245
16437TIP3    H170726   5.902   0.973   5.846  0.0872 -0.1662  4.4221
16437TIP3    H270727   6.022   0.886   5.878  2.4834  0.8709 -0.6650
16438TIP3   OH270728   0.669   6.361  13.726 -0.0906  0.1189 -0.3106
16438TIP3    H170729   0.597   6.330  13.671  0.5321  1.2668 -1.8521
16438TIP3    H270730   0.746   6.354  13.670  0.7295  0.3952  0.7726
16439TIP3   OH270731   6.519   0.487  15.229  0.4592  0.0370 -0.0003
16439TIP3    H170732   6.512   0.552  15.160 -1.8101 -0.9869 -0.8354
16439TIP3    H270733   6.468   0.523  15.301 -0.8125 -0.7613 -0.4682
16440TIP3   OH270734   2.015   3.997   3.466 -0.1419 -0.0516 -0.4825
16440TIP3    H170735   2.075   4.047   3.521 -0.7578 -0.8538  0.9826
16440TIP3    H270736   2.015   3.909   3.505 -1.6230 -0.2864 -0.9701
16441TIP3   OH270737   1.051   0.270   0.010 -0.1261  0.1247  0.0361
16441TIP3    H170738   1.114   0.274  -0.062  2.3521  1.3651  2.1068
16441TIP3    H270739   1.061   0.182   0.046  0.2010  0.2191  0.1759
16442TIP3   OH270740   5.503   5.886  16.900  0.2175  0.3442  0.0396
16442TIP3    H170741   5.567   5.828  16.941  0.0453  1.4145  1.9364
16442TIP3    H270742   5.543   5.909  16.816  1.3127 -0.7135  0.2349
16443TIP3   OH270743   3.820   6.252   2.780 -0.6484 -0.4190  0.2596
16443TIP3    H170744   3.740   6.300   2.803 -0.1690  0.9113 -0.6615
16443TIP3    H270745   3.814   6.170   2.828 -0.8529  1.1168  3.1086
16444TIP3   OH270746   6.512   6.097   5.261 -0.2632 -0.4611  0.2692
16444TIP3    H170747   6.505   6.173   5.203  0.8372  1.9708  3.0823
16444TIP3    H270748   6.584   6.045   5.224 -0.5598  0.1800 -1.3020
16445TIP3   OH270749   0.051   2.846   6.117  0.3617  0.7518  0.1150
16445TIP3    H170750   0.135   2.891   6.132  1.1789  0.2796 -2.5545
16445TIP3    H270751   0.073   2.774   6.059 -1.4803 -1.2040  1.7023
16446TIP3   OH270752   6.479   2.738   5.477 -0.1124 -0.6811  0.2438
16446TIP3    H170753   6.453   2.660   5.525 -0.2236 -0.3836  0.6810
16446TIP3    H270754   6.515   2.796   5.545 -0.7702 -0.0368  0.0501
16447TIP3   OH270755   1.863   4.025  11.698 -0.0645 -0.1031 -0.0752
16447TIP3    H170756   1.943   4.048  11.744  0.7229  0.9890 -1.8542
16447TIP3    H270757   1.799   4.090  11.727  0.5748  0.9120 -0.8713
16448TIP3   OH270758   0.404   0.410  14.996  0.1257 -0.2365  0.1225
16448TIP3    H170759   0.470   0.390  14.930 -1.0843 -0.5165 -1.0415
16448TIP3    H270760   0.349   0.332  15.001 -1.1376  0.6095 -0.1913
16449TIP3   OH270761   3.431   4.655   4.298  0.4352 -0.0156 -0.1881
16449TIP3    H170762   3.428   4.608   4.214 -0.5952  0.3528 -0.3757
16449TIP3    H270763   3.389   4.596   4.360 -1.8856  1.0313 -0.6500
16450TIP3   OH270764   5.286   3.873  14.889  0.0495  0.2874 -0.6418
16450TIP3    H170765   5.380   3.874  14.907  0.0571  0.0786 -0.6679
16450TIP3    H270766   5.248   3.927  14.958  0.0671 -0.6022  0.0897
16451TIP3   OH270767   2.314   4.614   0.149  0.5729 -0.5380 -0.7665
16451TIP3    H170768   2.380   4.580   0.209 -0.1096  1.2123  1.0653
16451TIP3    H270769   2.361   4.677   0.095  0.4580  0.7180  0.5472
16452TIP3   OH270770   2.051   4.072  13.436 -0.5941  0.0452 -0.0075
16452TIP3    H170771   1.965   4.110  13.453 -0.9229 -0.8810  0.4430
16452TIP3    H270772   2.081   4.115  13.356 -0.0249  2.7964  1.5513
16453TIP3   OH270773   2.785   3.739   2.926  0.3228  0.2672  0.0227
16453TIP3    H170774   2.795   3.747   3.021 -1.0668 -0.3132  0.2452
16453TIP3    H270775   2.860   3.685   2.899  0.0361 -0.6559  0.9901
16454TIP3   OH270776   2.753   1.809  15.775  0.0886  0.1329 -0.1795
16454TIP3    H170777   2.781   1.897  15.748 -2.6361  0.7241 -1.4541
16454TIP3    H270778   2.783   1.752  15.704 -0.3313  0.4650 -0.6341
16455TIP3   OH270779   1.283   6.077   0.184 -0.4289 -0.7707  0.1737
16455TIP3    H170780   1.257   6.164   0.153  1.8732  0.2578  0.9341
16455TIP3    H270781   1.204   6.042   0.226 -1.0889  1.4601  0.9499
16456TIP3   OH270782   5.099   0.766   2.428 -0.1247  0.2091  0.4319
16456TIP3    H170783   5.018   0.775   2.378 -0.6439 -0.4314  1.1300
16456TIP3    H270784   5.123   0.856   2.450  1.0222  0.6603 -2.3186
16457TIP3   OH270785   3.658   4.299  13.144 -0.3911  0.7793  0.2850
16457TIP3    H170786   3.707   4.225  13.110 -0.1151  1.5376 -1.0581
16457TIP3    H270787   3.686   4.308  13.235 -0.1475 -0.5104  0.3471
16458TIP3   OH270788   4.995   1.325   1.467 -0.0478 -0.2520 -0.5307
16458TIP3    H170789   5.061   1.393   1.456  0.1196 -0.2454  0.4031
16458TIP3    H270790   4.996   1.306   1.561 -1.6799  0.0500 -0.4233
16459TIP3   OH270791   2.662   0.220   3.410 -0.1740 -0.0187 -0.3890
16459TIP3    H170792   2.708   0.279   3.350 -1.5671 -0.7436 -2.2842
16459TIP3    H270793   2.705   0.135   3.398 -1.5578 -0.5840 -1.8033
16460TIP3   OH270794   1.365   2.373  15.929 -0.6999 -0.1105  0.3036
16460TIP3    H170795   1.292   2.396  15.987  0.6407 -0.4652  2.2196
16460TIP3    H270796   1.443   2.400  15.978  0.5113 -0.8081 -1.1882
16461TIP3   OH270797   3.464   5.361  15.067 -0.2506 -0.3102  0.8715
16461TIP3    H170798   3.471   5.269  15.043  1.1948 -0.3672  1.4240
16461TIP3    H270799   3.441   5.360  15.160 -0.2325 -0.1213  0.8796
16462TIP3   OH270800   4.656   5.420  10.767 -0.3249  0.0268  0.2706
16462TIP3    H170801   4.727   5.448  10.709 -0.0102 -1.2166  0.0326
16462TIP3    H270802   4.577   5.433  10.715 -0.2066  0.6151  0.2266
16463TIP3   OH270803   2.572   5.967   0.684  0.1567  0.0255 -0.6167
16463TIP3    H170804   2.662   5.999   0.686  0.0492  0.3152  0.5417
16463TIP3    H270805   2.571   5.901   0.615  1.2064  0.1742 -0.7864
16464TIP3   OH270806   0.342   1.465   0.202  0.0888 -0.0988 -0.7274
16464TIP3    H170807   0.303   1.465   0.114 -1.2118 -1.3693 -0.1926
16464TIP3    H270808   0.271   1.439   0.260 -0.1161  4.1250  1.2616
16465TIP3   OH270809   6.494   2.048  14.583 -0.0220 -0.2471  0.3326
16465TIP3    H170810   6.583   2.043  14.549 -0.1522 -0.8538  0.0576
16465TIP3    H270811   6.466   2.138  14.564 -0.2057 -0.6451 -1.5091
16466TIP3   OH270812   0.305   5.135   1.057  0.2732 -0.2768 -0.5751
16466TIP3    H170813   0.324   5.195   1.128  2.1373  1.7022 -2.5868
16466TIP3    H270814   0.226   5.171   1.015  0.7585  0.1676 -1.1231
16467TIP3   OH270815   2.656   1.991  13.294  0.0767  0.1310 -0.1229
16467TIP3    H170816   2.652   2.030  13.382  0.5971  0.9068 -0.4305
16467TIP3    H270817   2.749   1.983  13.276  0.0072 -2.2273  0.3227
16468TIP3   OH270818   5.596   4.201  13.027 -0.4382 -0.2371 -0.7763
16468TIP3    H170819   5.660   4.267  13.055 -0.5182  1.5131 -4.0818
16468TIP3    H270820   5.648   4.135  12.982 -0.7578  0.6651 -2.5714
16469TIP3   OH270821   5.739   5.614  11.687 -0.8063  0.0517  0.0551
16469TIP3    H170822   5.752   5.519  11.679 -1.1652  0.0647 -0.7088
16469TIP3    H270823   5.796   5.639  11.760 -1.2536 -0.8597  0.7346
16470TIP3   OH270824   3.317   5.958   1.457 -0.0311  0.5711 -0.0672
16470TIP3    H170825   3.228   5.990   1.451  0.4066  1.6710 -1.2673
16470TIP3    H270826   3.323   5.890   1.390  0.1308  0.7717 -0.2590
16471TIP3   OH270827   1.764   0.701  16.930  0.2879  0.2491  0.2281
16471TIP3    H170828   1.817   0.739  16.999  2.5473 -1.0451 -0.6801
16471TIP3    H270829   1.741   0.774  16.873  1.5155  0.8063  0.4193
16472TIP3   OH270830   0.252   1.025   0.366  0.5368 -0.1551  0.6848
16472TIP3    H170831   0.329   1.053   0.416  0.0777  0.5948  0.9923
16472TIP3    H270832   0.233   0.937   0.398  0.0074  0.4622  2.1520
16473TIP3   OH270833   1.387   0.451  13.356  0.1126 -0.2541  0.2557
16473TIP3    H170834   1.458   0.400  13.395  1.3042  0.1649 -1.2757
16473TIP3    H270835   1.423   0.483  13.274 -1.3149  1.3426  0.2050
16474TIP3   OH270836   5.170   4.564   4.995  0.0011  0.7093 -0.3551
16474TIP3    H170837   5.250   4.516   5.017 -1.6537 -2.1453 -0.0624
16474TIP3    H270838   5.151   4.538   4.905 -1.1211  0.5087 -0.0691
16475TIP3   OH270839   2.093   2.232  15.183  0.3971  0.4451  0.0442
16475TIP3    H170840   2.065   2.297  15.118 -0.2365  1.4359  1.2646
16475TIP3    H270841   2.033   2.245  15.256  1.9855  0.3385  1.4048
16476TIP3   OH270842   2.437   5.008  15.709 -0.3085 -0.0488 -0.4343
16476TIP3    H170843   2.352   4.966  15.694 -1.2227  1.6651 -0.3054
16476TIP3    H270844   2.482   5.001  15.625 -0.9346 -0.2204 -0.7655
16477TIP3   OH270845   6.505   2.313   0.370 -0.3759 -0.3332  0.1494
16477TIP3    H170846   6.507   2.324   0.275  2.4407 -2.4233 -0.1473
16477TIP3    H270847   6.455   2.389   0.401 -0.1570  1.2274 -2.8752
16478TIP3   OH270848   6.689   4.872   0.888 -0.1115  0.4163 -0.3164
16478TIP3    H170849   6.707   4.807   0.819  0.8816 -0.3752  0.6460
16478TIP3    H270850   6.597   4.893   0.877 -0.4230 -1.0230 -0.7906
16479TIP3   OH270851   5.412   1.527   3.296 -0.2088  0.5078 -0.5772
16479TIP3    H170852   5.458   1.512   3.213 -2.6345 -0.8058 -1.7605
16479TIP3    H270853   5.390   1.620   3.294  1.0174  0.8242 -0.6638
16480TIP3   OH270854   1.660   4.783   2.130 -0.2483  1.1687 -0.6038
16480TIP3    H170855   1.754   4.799   2.142 -0.2875  0.5534  0.7831
16480TIP3    H270856   1.618   4.857   2.175 -0.4167  0.8704 -0.2667
16481TIP3   OH270857   2.823   5.204  12.068  0.0750 -0.0518  0.2370
16481TIP3    H170858   2.782   5.275  12.019  1.0569  0.4304  0.1066
16481TIP3    H270859   2.787   5.124  12.028 -0.1158  0.3484 -0.4086
16482TIP3   OH270860   0.849   2.591  13.126 -0.6905 -0.1315  0.5443
16482TIP3    H170861   0.866   2.526  13.058  0.4561 -0.3813  1.0500
16482TIP3    H270862   0.936   2.620  13.154 -1.1687  0.7202  1.1893
16483TIP3   OH270863   4.707   4.044   5.605 -0.6633 -0.1908 -0.2552
16483TIP3    H170864   4.718   4.079   5.516 -0.5635  0.7157  0.1042
16483TIP3    H270865   4.706   4.121   5.661 -0.8812 -0.7490  0.5229
16484TIP3   OH270866   2.906   4.786   3.888 -0.1112 -0.3304 -0.3321
16484TIP3    H170867   2.982   4.834   3.923 -0.1891 -0.9579  0.7224
16484TIP3    H270868   2.868   4.847   3.824  0.6637  0.4187 -0.1090
16485TIP3   OH270869   5.424   2.123   5.894 -0.3547  0.2919  0.2810
16485TIP3    H170870   5.510   2.137   5.855 -0.3060  0.5671  0.4813
16485TIP3    H270871   5.441   2.102   5.985 -0.5165  0.8061  0.4333
16486TIP3   OH270872   6.120   3.995   5.464  0.1979 -0.6313  0.2793
16486TIP3    H170873   6.132   3.917   5.518  2.2808 -1.3444 -1.0791
16486TIP3    H270874   6.090   4.062   5.525 -0.7736 -2.2419  1.6453
16487TIP3   OH270875   0.558   1.630  10.762 -0.5465  0.4099 -0.3120
16487TIP3    H170876   0.559   1.678  10.845 -0.8406 -0.8943  0.4746
16487TIP3    H270877   0.648   1.599  10.752 -0.7929 -0.5075  0.1889
16488TIP3   OH270878   2.307   6.415   5.049 -0.0097 -0.0127 -0.0835
16488TIP3    H170879   2.227   6.395   5.099 -0.7674 -0.3073 -1.3623
16488TIP3    H270880   2.303   6.356   4.974  0.2340  1.5557 -1.3688
16489TIP3   OH270881   5.956   1.587  12.740  0.5070 -0.0422 -0.1876
16489TIP3    H170882   5.888   1.525  12.711  0.1563 -0.5967  1.7004
16489TIP3    H270883   5.924   1.672  12.711  0.5073 -0.6050 -1.9705
16490TIP3   OH270884   1.827   5.083  11.791 -0.2024  0.1250  0.6358
16490TIP3    H170885   1.884   5.013  11.759  0.3533 -0.1180  2.0917
16490TIP3    H270886   1.863   5.163  11.754 -0.1933 -0.2397 -0.1597
16491TIP3   OH270887   4.559   1.979  11.458  0.1960  0.6314  0.1216
16491TIP3    H170888   4.540   1.920  11.385  1.3278 -0.5032  0.7040
16491TIP3    H270889   4.475   1.993  11.500  0.0870 -1.9314  0.9374
16492TIP3   OH270890   6.465   5.583   4.552  0.1265  0.9442  0.2410
16492TIP3    H170891   6.511   5.581   4.636  0.5195  0.0309  0.0159
16492TIP3    H270892   6.413   5.503   4.552 -3.2065  2.8952  1.4165
16493TIP3   OH270893   3.475   4.470   0.855 -0.0618  0.1809  1.0759
16493TIP3    H170894   3.569   4.453   0.849 -0.0463  0.5078  0.2644
16493TIP3    H270895   3.468   4.553   0.902  0.0053 -0.3137  1.9837
16494TIP3   OH270896   3.944   0.161  13.273 -0.4099 -0.1717 -0.2342
16494TIP3    H170897   3.950   0.097  13.343 -0.4999 -0.6126 -0.6221
16494TIP3    H270898   3.877   0.223  13.302  0.0573  0.0546  0.3813
16495TIP3   OH270899   5.318   0.780   3.909  0.0554 -0.3355 -0.2592
16495TIP3    H170900   5.247   0.724   3.879 -0.9106  1.1845 -0.9451
16495TIP3    H270901   5.290   0.812   3.995  1.5660 -2.4943  1.1296
16496TIP3   OH270902   6.739   3.126   6.121  0.1390 -0.0870  0.1774
16496TIP3    H170903   6.748   3.098   6.212 -1.7647 -0.7798  0.1960
16496TIP3    H270904   6.765   3.050   6.070  0.5298  0.0694  0.1376
16497TIP3   OH270905   3.791   1.030  13.279 -0.7065  0.1746  0.1319
16497TIP3    H170906   3.701   1.016  13.307 -0.2914 -4.9703 -0.1325
16497TIP3    H270907   3.844   1.011  13.357  0.1719 -0.8354 -0.6752
16498TIP3   OH270908   2.061   0.695   4.884 -0.2652  0.7490 -0.3862
16498TIP3    H170909   2.091   0.732   4.801 -0.8435  0.6385 -0.6547
16498TIP3    H270910   2.050   0.602   4.866 -1.9395  0.9700 -0.6705
16499TIP3   OH270911   3.685   2.849  15.668 -0.0156 -0.3181  0.2070
16499TIP3    H170912   3.730   2.775  15.628 -0.1147  0.4906 -1.4894
16499TIP3    H270913   3.593   2.821  15.673  0.1241 -0.7171  0.6052
16500TIP3   OH270914   2.811   3.555  13.470 -0.7512  0.1007 -0.5795
16500TIP3    H170915   2.716   3.567  13.467 -0.5778  1.4785 -1.1575
16500TIP3    H270916   2.836   3.538  13.379 -0.4727 -0.6344 -0.3766
16501TIP3   OH270917   1.391   5.388  13.066  0.4784  0.6056 -0.3076
16501TIP3    H170918   1.431   5.455  13.011 -1.0088  0.3469 -1.7971
16501TIP3    H270919   1.398   5.422  13.155  0.4363  2.3883 -0.9496
16502TIP3   OH270920   4.209   0.120   4.503 -0.0372 -0.4830  0.1263
16502TIP3    H170921   4.245   0.031   4.510 -2.9220 -2.0879 -2.7929
16502TIP3    H270922   4.193   0.132   4.410 -0.6904  2.7583  0.5532
16503TIP3   OH270923   0.638   2.611   1.011 -0.3411  0.1990  0.5738
16503TIP3    H170924   0.565   2.656   0.968  0.2810  0.1050 -0.6170
16503TIP3    H270925   0.688   2.572   0.939  0.7598  0.0714  1.3839
16504TIP3   OH270926   3.575   2.508  14.434 -0.2216 -0.3030 -0.2894
16504TIP3    H170927   3.552   2.519  14.526  1.4310 -1.1867  0.2718
16504TIP3    H270928   3.495   2.531  14.386 -0.8535  0.9900  1.3113
16505TIP3   OH270929   6.612   0.145  15.083 -0.0278  0.5842 -0.6319
16505TIP3    H170930   6.657   0.204  15.144 -0.0232 -0.8139  0.7666
16505TIP3    H270931   6.539   0.197  15.050 -1.0915  0.8694  1.9491
16506TIP3   OH270932   5.264   2.902   1.287 -0.2963  0.8149 -0.1249
16506TIP3    H170933   5.261   2.963   1.361  0.3789  1.9495 -0.9898
16506TIP3    H270934   5.337   2.933   1.233 -0.5471 -0.1948 -1.0945
16507TIP3   OH270935   0.052   4.914   3.681  0.2640 -0.1828 -0.2104
16507TIP3    H170936   0.017   4.981   3.739 -0.2410 -0.5811 -0.0485
16507TIP3    H270937  -0.020   4.852   3.670  0.2858 -0.0227 -1.3958
16508TIP3   OH270938   0.034   0.696   2.039 -0.2739  0.3795 -0.4520
16508TIP3    H170939   0.066   0.782   2.065 -1.1854  0.3063  1.0339
16508TIP3    H270940  -0.046   0.684   2.090  1.2094 -2.4727  1.4848
16509TIP3   OH270941   0.239   4.098  14.592  0.4061  0.1225 -0.4459
16509TIP3    H170942   0.331   4.082  14.610  0.3629  0.2954 -0.0419
16509TIP3    H270943   0.208   4.018  14.550  0.6336 -0.1172 -0.1632
16510TIP3   OH270944   4.499   5.792   3.957 -0.4509 -0.1625 -0.0844
16510TIP3    H170945   4.582   5.839   3.960 -1.7376  2.5724 -2.7154
16510TIP3    H270946   4.505   5.738   3.879 -1.6183  1.2062 -1.1682
16511TIP3   OH270947   6.430   0.088   0.792 -0.4748  0.1854 -0.1541
16511TIP3    H170948   6.461   0.177   0.781  0.7240 -0.4279 -2.0870
16511TIP3    H270949   6.407   0.082   0.885  0.8656  2.0348  0.3476
16512TIP3   OH270950   1.381   0.008  14.093  0.3719  0.0395 -0.0646
16512TIP3    H170951   1.303  -0.026  14.138  0.4826  0.6449  0.6019
16512TIP3    H270952   1.386  -0.043  14.012 -0.3498 -0.4495  0.1876
16513TIP3   OH270953   5.710   2.007   1.426 -0.3698  0.5359  0.6722
16513TIP3    H170954   5.626   1.962   1.437 -1.5374  2.4788  0.0580
16513TIP3    H270955   5.733   2.038   1.513 -1.4178  1.8608  0.5080
16514TIP3   OH270956   5.702   1.283   2.744 -0.3960 -0.0857  0.2069
16514TIP3    H170957   5.646   1.292   2.821 -0.5961  0.4990 -0.0029
16514TIP3    H270958   5.678   1.199   2.706 -0.9717  0.0611  0.2435
16515TIP3   OH270959   0.168   5.657   4.939  0.2295 -0.6742  0.5608
16515TIP3    H170960   0.152   5.723   5.006 -1.7163 -1.8020  1.3098
16515TIP3    H270961   0.106   5.679   4.869  0.2658 -1.1224  0.3863
16516TIP3   OH270962   4.071   4.546  12.615 -0.7836  0.4615  0.0044
16516TIP3    H170963   3.993   4.600  12.627 -1.0421 -0.2945  2.3046
16516TIP3    H270964   4.094   4.518  12.704  2.4550  1.1023 -0.5115
16517TIP3   OH270965   5.110   6.132  12.935 -0.6124 -0.1115  0.6968
16517TIP3    H170966   5.103   6.133  12.839  1.2507  2.6856  0.4611
16517TIP3    H270967   5.169   6.060  12.954  1.3377  1.0479 -0.5999
16518TIP3   OH270968   3.722   2.578   3.437  0.1140  0.2171  0.8445
16518TIP3    H170969   3.722   2.487   3.407  0.3552  0.5488 -0.2192
16518TIP3    H270970   3.682   2.575   3.524  1.5022 -1.0969  1.4728
16519TIP3   OH270971   3.957   5.571  10.359  0.2820  0.1876  0.1699
16519TIP3    H170972   4.008   5.519  10.421  0.3798  1.6123  1.3198
16519TIP3    H270973   3.963   5.661  10.392 -1.7428  0.6129 -0.5040
16520TIP3   OH270974   2.744   2.718  17.029  0.3582 -0.1736  0.2602
16520TIP3    H170975   2.674   2.664  17.066  0.7473  0.3506  1.8334
16520TIP3    H270976   2.771   2.671  16.950 -0.2804 -1.5220  0.8152
16521TIP3   OH270977   4.312   4.146   3.410  0.1045 -0.6291 -0.1151
16521TIP3    H170978   4.382   4.122   3.471  0.1052 -2.3990 -0.7706
16521TIP3    H270979   4.358   4.188   3.337  0.2527  0.1630  0.4237
16522TIP3   OH270980   1.946   2.347   2.628 -0.0686 -0.7818 -0.1545
16522TIP3    H170981   1.867   2.393   2.657  0.2455 -1.7506  2.5231
16522TIP3    H270982   2.014   2.415   2.626 -0.0633 -0.6703  1.7551
16523TIP3   OH270983   0.435   6.313  16.894  0.2847  0.0455 -0.0557
16523TIP3    H170984   0.483   6.277  16.820 -0.4447  0.9780 -1.0166
16523TIP3    H270985   0.348   6.272  16.890 -0.1334  0.9260 -0.4183
16524TIP3   OH270986   2.222   0.875  16.401 -0.2674  0.1456  0.1354
16524TIP3    H170987   2.172   0.814  16.455 -2.2143  0.2073 -1.4839
16524TIP3    H270988   2.234   0.830  16.317 -0.7107  1.5053 -0.6885
16525TIP3   OH270989   0.199   2.980   2.492  0.2696 -0.1487  0.0049
16525TIP3    H170990   0.263   2.986   2.563  0.1969  1.0097 -0.0014
16525TIP3    H270991   0.114   2.976   2.536  0.3240 -2.0931  0.0245
16526TIP3   OH270992   2.942   4.494   1.251 -0.4031 -0.1365  0.2223
16526TIP3    H170993   2.863   4.527   1.207 -0.1547 -0.8127 -0.7557
16526TIP3    H270994   2.921   4.403   1.272  0.0217 -0.2387  0.1986
16527TIP3   OH270995   6.268   3.432   0.728  0.4185 -0.1606 -0.0316
16527TIP3    H170996   6.262   3.527   0.719 -0.7209 -0.2700 -0.5253
16527TIP3    H270997   6.292   3.402   0.640  1.0583 -0.3155  0.1918
16528TIP3   OH270998   0.025   0.125   1.933  0.3152  0.2517  0.2811
16528TIP3    H170999   0.058   0.197   1.987 -0.1832  0.9410 -0.3169
16528TIP3    H271000   0.103   0.079   1.904  0.7962  1.8808 -1.1524
16529TIP3   OH271001   6.442   4.690  15.365 -0.2234  0.1447 -0.0012
16529TIP3    H171002   6.536   4.700  15.378  0.2560 -1.3573 -1.8476
16529TIP3    H271003   6.411   4.647  15.445  0.7648  0.0936  0.3647
16530TIP3   OH271004   1.758   4.619   6.542  0.4531 -0.2795  0.2861
16530TIP3    H171005   1.707   4.699   6.557 -0.1979 -0.6437  0.0525
16530TIP3    H271006   1.849   4.650   6.535  0.7445  0.0783  3.7845
16531TIP3   OH271007   3.505   1.973  16.961 -1.0708 -0.2684 -1.1080
16531TIP3    H171008   3.465   1.961  16.875 -3.7182 -0.2075  0.0112
16531TIP3    H271009   3.433   2.005  17.016  0.7600  0.6055  0.9215
16532TIP3   OH271010   5.445   1.315   4.000  0.1588  0.0141 -0.0443
16532TIP3    H171011   5.362   1.267   4.002  1.0931 -1.6552  2.0157
16532TIP3    H271012   5.432   1.389   4.060  0.7180 -1.3685  1.8685
16533TIP3   OH271013   3.084   1.523   2.015  0.0969 -0.5022 -0.1724
16533TIP3    H171014   3.067   1.467   2.091 -1.3546 -0.0457 -0.1290
16533TIP3    H271015   3.010   1.583   2.013  1.9988  1.9927  0.2650
16534TIP3   OH271016   4.844   6.595  14.341  0.0867 -1.2244 -0.2254
16534TIP3    H171017   4.896   6.642  14.406  1.8954 -1.3870 -1.4660
16534TIP3    H271018   4.769   6.561  14.389 -0.7263  1.8907  0.9970
16535TIP3   OH271019   3.963   2.001   6.657  0.0571 -0.0908  0.0552
16535TIP3    H171020   3.915   1.947   6.593 -2.3605  1.4843  0.4006
16535TIP3    H271021   4.049   2.014   6.617 -1.3142  0.7674 -2.9403
16536TIP3   OH271022   1.607   1.866   0.954 -0.2303 -0.2991 -0.1814
16536TIP3    H171023   1.651   1.906   0.879 -1.6389  0.4392 -0.6462
16536TIP3    H271024   1.557   1.793   0.917 -0.4021 -0.3506  0.1446
16537TIP3   OH271025   0.817   5.169  15.006  0.1091  0.7200 -0.2483
16537TIP3    H171026   0.847   5.189  15.094 -0.5208 -0.1637  0.1824
16537TIP3    H271027   0.895   5.141  14.959  0.1464 -0.5571  0.5519
16538TIP3   OH271028   4.927   5.667  13.475  0.3968 -0.2176 -0.1832
16538TIP3    H171029   4.951   5.589  13.527 -0.2155 -0.8705 -0.8555
16538TIP3    H271030   4.859   5.636  13.416  0.3564  0.7732 -0.6738
16539TIP3   OH271031   2.094   4.219   1.315 -0.3604 -0.3867  0.1764
16539TIP3    H171032   2.134   4.306   1.324  1.2357 -1.0402 -0.3129
16539TIP3    H271033   2.138   4.165   1.379 -1.4469 -0.8338  0.5769
16540TIP3   OH271034   5.768   1.892   6.301 -0.0701 -0.0375 -0.2003
16540TIP3    H171035   5.807   1.805   6.308  0.7353  0.3831  1.0906
16540TIP3    H271036   5.775   1.928   6.390 -1.4655  0.8940 -0.4345
16541TIP3   OH271037   5.282   1.562   4.123 -0.0077  0.2724  0.4200
16541TIP3    H171038   5.344   1.564   4.196 -0.9097 -1.5467  1.3187
16541TIP3    H271039   5.196   1.570   4.165 -0.6009 -1.6471 -0.3047
16542TIP3   OH271040   0.391   5.181   3.975 -0.5907  0.7089 -0.0425
16542TIP3    H171041   0.371   5.254   3.916 -2.2211 -0.3966 -0.9307
16542TIP3    H271042   0.319   5.181   4.038 -1.0286 -0.5616 -0.5131
16543TIP3   OH271043   1.918   6.699   1.570  0.2284  0.4227 -0.2868
16543TIP3    H171044   1.934   6.792   1.556  1.6886  0.4609  1.3366
16543TIP3    H271045   1.964   6.678   1.651 -1.2128 -1.4281  0.1323
16544TIP3   OH271046   4.747   3.672  12.786 -0.0439  0.0575 -0.1652
16544TIP3    H171047   4.793   3.727  12.723  1.5174  0.5428  1.3020
16544TIP3    H271048   4.804   3.596  12.798 -0.5732 -0.2843  0.2572
16545TIP3   OH271049   4.639   3.641  16.096  1.2332 -0.0802  0.4362
16545TIP3    H171050   4.715   3.665  16.042  0.6907 -0.4064 -0.4881
16545TIP3    H271051   4.629   3.715  16.156  1.2579  0.7594 -0.5625
16546TIP3   OH271052   3.383   4.722   0.019 -0.0416  1.0525  0.2505
16546TIP3    H171053   3.467   4.728   0.065  0.8324  3.1404 -1.4403
16546TIP3    H271054   3.399   4.764  -0.066 -2.4168  0.1726 -0.7147
16547TIP3   OH271055   6.355   0.398   6.075  0.1473  0.0717 -0.1040
16547TIP3    H171056   6.437   0.384   6.121  1.6996  2.1130 -2.0175
16547TIP3    H271057   6.339   0.493   6.081 -3.4114 -0.4625  2.1911
16548TIP3   OH271058   2.161   3.632   2.987 -0.0224 -0.1697 -0.8785
16548TIP3    H171059   2.078   3.629   2.940  0.0161  2.2670 -1.2469
16548TIP3    H271060   2.225   3.597   2.925 -0.2155  1.5363 -2.1118
16549TIP3   OH271061   2.190   5.176   1.834  0.0098  0.4627  0.2295
16549TIP3    H171062   2.149   5.102   1.790 -0.2380  0.3864  0.5880
16549TIP3    H271063   2.155   5.253   1.789 -0.4156  0.3927  0.4410
16550TIP3   OH271064   0.164   2.385  15.298  0.4205  0.1262 -0.2429
16550TIP3    H171065   0.189   2.384  15.206  1.5559 -1.1704  0.0476
16550TIP3    H271066   0.083   2.333  15.301  0.7376 -0.3792 -0.4189
16551TIP3   OH271067   1.410   2.854   0.357 -0.6320 -0.0828 -0.4579
16551TIP3    H171068   1.452   2.810   0.431  1.0416 -0.8977 -1.8408
16551TIP3    H271069   1.381   2.938   0.392  0.6595 -0.2038  0.9811
16552TIP3   OH271070   3.847   0.527   5.420  0.0206  0.6744  0.1584
16552TIP3    H171071   3.834   0.574   5.338  0.7094 -0.5954 -0.6998
16552TIP3    H271072   3.773   0.468   5.426  0.6002 -0.1020 -0.1767
16553TIP3   OH271073   5.207   5.711   4.050  0.6805 -0.4092  0.3131
16553TIP3    H171074   5.151   5.701   4.127 -0.7841  2.7907 -0.1838
16553TIP3    H271075   5.163   5.659   3.982 -1.0141  0.9483  0.3009
16554TIP3   OH271076   2.286   2.837  14.874 -0.0023  0.2214 -0.3685
16554TIP3    H171077   2.249   2.816  14.788  0.8768  2.2393 -1.2905
16554TIP3    H271078   2.220   2.806  14.936  0.2554 -3.2621 -1.5756
16555TIP3   OH271079   4.278   1.176   0.827 -0.1478  0.3264 -0.0224
16555TIP3    H171080   4.185   1.195   0.812 -0.1411 -0.6326 -1.3986
16555TIP3    H271081   4.293   1.092   0.784  1.2441  0.1964  0.6640
16556TIP3   OH271082   1.102   0.015  14.696 -0.4085  0.4175 -0.6662
16556TIP3    H171083   1.103   0.106  14.725  1.6909 -0.2914  1.8512
16556TIP3    H271084   1.067   0.019  14.607 -0.4295  3.6610 -0.6386
16557TIP3   OH271085   2.308   4.011  12.839  0.3485  0.1517  0.1745
16557TIP3    H171086   2.316   4.057  12.755  0.2836  2.1636  1.2177
16557TIP3    H271087   2.218   4.029  12.868  0.2098 -0.9357  0.4705
16558TIP3   OH271088   1.595   3.401   5.177 -0.3134  0.2821 -0.2258
16558TIP3    H171089   1.587   3.474   5.238  0.9469  0.4496 -0.2457
16558TIP3    H271090   1.671   3.423   5.123 -0.5395 -0.5591 -0.9105
16559TIP3   OH271091   4.366   4.510  14.139 -0.3060  0.2282 -0.0339
16559TIP3    H171092   4.361   4.435  14.080  0.2861  0.1941 -0.0503
16559TIP3    H271093   4.335   4.584  14.087 -0.3262  0.0948 -0.2102
16560TIP3   OH271094   2.029   3.981  12.850  0.2969  0.0033  0.1917
16560TIP3    H171095   2.043   3.945  12.937 -0.8775 -0.5258  0.1785
16560TIP3    H271096   1.936   3.998  12.846 -0.1634 -2.3491 -1.8164
16561TIP3   OH271097   5.652   5.431  13.904  0.2760  0.2348  0.1462
16561TIP3    H171098   5.728   5.437  13.845  0.4899  0.8867  0.4819
16561TIP3    H271099   5.633   5.522  13.928 -0.5547  0.0683  0.1420
16562TIP3   OH271100   3.479   0.614  12.782  0.2411 -0.4863 -0.3490
16562TIP3    H171101   3.535   0.580  12.713  0.4355 -0.7833 -0.0469
16562TIP3    H271102   3.534   0.675  12.831  0.5798 -1.4293  0.4810
16563TIP3   OH271103   6.157   6.394  16.606 -0.1869  1.0151  0.1448
16563TIP3    H171104   6.125   6.462  16.665  2.1320  0.7665  1.8505
16563TIP3    H271105   6.183   6.322  16.663  1.4499  0.4420 -1.2214
16564TIP3   OH271106   4.803   2.047   6.131 -0.6735 -0.2181 -0.0826
16564TIP3    H171107   4.766   1.962   6.107 -0.1099 -0.5362  0.1650
16564TIP3    H271108   4.735   2.110   6.107 -0.9460 -0.7023 -0.6111
16565TIP3   OH271109   2.731   0.729   0.803  0.0941  0.1122 -0.0328
16565TIP3    H171110   2.671   0.768   0.866  0.8832  1.1686  0.0703
16565TIP3    H271111   2.705   0.767   0.719  0.9177  0.9413  0.0797
16566TIP3   OH271112   0.838   1.687  17.169 -0.6059  0.4021  0.2400
16566TIP3    H171113   0.752   1.687  17.211 -0.5892  2.5390  0.3770
16566TIP3    H271114   0.857   1.779  17.154  3.0427  0.3399  3.0694
16567TIP3   OH271115   4.147   3.842   0.784 -0.5147 -0.1496  0.3397
16567TIP3    H171116   4.107   3.860   0.870 -0.7493 -0.1662  0.2347
16567TIP3    H271117   4.073   3.841   0.723 -0.4344 -0.8388  0.2420
16568TIP3   OH271118   5.846   0.639   1.066  0.7918 -0.1507  0.0690
16568TIP3    H171119   5.886   0.723   1.045  0.5484  0.4231  1.7108
16568TIP3    H271120   5.861   0.628   1.160  0.3132 -1.6748  0.0060
16569TIP3   OH271121   5.298   4.575   2.140 -0.4874  0.4357  0.2114
16569TIP3    H171122   5.295   4.662   2.180 -0.8865 -0.0757  1.3209
16569TIP3    H271123   5.218   4.532   2.169 -0.2892 -0.3173 -0.3156
16570TIP3   OH271124   5.781   5.448   0.700  0.8204 -0.2387 -0.1895
16570TIP3    H171125   5.720   5.377   0.685  0.3455  0.4137 -1.4938
16570TIP3    H271126   5.727   5.519   0.736  0.8222  0.2821 -1.1885
16571TIP3   OH271127   0.054   5.310  15.772  0.1198  0.3891  0.4471
16571TIP3    H171128  -0.033   5.308  15.813  0.4354  0.5128  1.1298
16571TIP3    H271129   0.077   5.219  15.758  0.2989  0.3196  1.1693
16572TIP3   OH271130   3.737   6.158   4.644  0.5173  0.5053  0.2763
16572TIP3    H171131   3.818   6.199   4.613  0.2017  0.0474 -1.2310
16572TIP3    H271132   3.671   6.186   4.582 -0.3111  0.1274  0.9695
16573TIP3   OH271133   6.631   6.041   1.619  0.7199 -0.0898 -0.2338
16573TIP3    H171134   6.706   5.982   1.629  1.3957  0.5592 -1.2925
16573TIP3    H271135   6.645   6.110   1.683  1.6722  0.6604 -1.2204
16574TIP3   OH271136   3.961   1.964  16.414 -0.5362 -0.1563 -0.0715
16574TIP3    H171137   3.963   1.915  16.497 -1.7367 -1.9527 -1.0398
16574TIP3    H271138   3.880   1.936  16.372  0.3984  0.1561 -2.1921
16575TIP3   OH271139   2.905   2.312  10.711  0.8406  0.0391 -0.1876
16575TIP3    H171140   2.914   2.234  10.766  3.6019 -0.6119 -1.3997
16575TIP3    H271141   2.980   2.367  10.734  1.2831  0.3867 -2.2232
16576TIP3   OH271142   2.478   1.799  15.699 -0.2261  0.6530  0.0705
16576TIP3    H171143   2.441   1.719  15.735 -0.9159  1.6249  1.6282
16576TIP3    H271144   2.567   1.803  15.734 -0.8256  1.4905  1.5776
16577TIP3   OH271145   2.823   4.735  11.898  0.1824 -0.6147 -0.5766
16577TIP3    H171146   2.897   4.698  11.946 -0.1620 -0.8933 -0.2581
16577TIP3    H271147   2.860   4.811  11.852 -0.1612  1.8759  2.9267
16578TIP3   OH271148   2.798   0.952   4.275 -0.0140  0.7532 -0.2529
16578TIP3    H171149   2.725   0.962   4.336  0.1743  1.0379 -0.0744
16578TIP3    H271150   2.840   0.870   4.300 -1.3644 -0.3817 -1.5087
16579TIP3   OH271151   3.928   5.193  11.570  0.2142  0.1009 -0.5728
16579TIP3    H171152   3.979   5.261  11.528 -2.3786  0.9144 -2.7270
16579TIP3    H271153   3.883   5.237  11.642  0.8394 -0.0775 -0.0710
16580TIP3   OH271154   4.907   4.213   3.568  0.2911  0.0433  0.4273
16580TIP3    H171155   4.950   4.295   3.592  1.3863 -0.7625  1.3540
16580TIP3    H271156   4.888   4.222   3.475 -0.4384  1.6980  0.7018
16581TIP3   OH271157   0.698   1.565   5.717  0.2821  0.7356  0.1736
16581TIP3    H171158   0.661   1.580   5.804  1.5605 -0.2345  0.9221
16581TIP3    H271159   0.749   1.484   5.726  0.1058  0.3937 -1.5911
16582TIP3   OH271160   5.871   4.249   4.740  0.7150  0.1329  0.0573
16582TIP3    H171161   5.853   4.217   4.829  0.7457 -0.3339 -0.0986
16582TIP3    H271162   5.801   4.311   4.722  0.6705  0.1805  0.3847
16583TIP3   OH271163   3.744   6.270   3.885  0.6714  0.2549  0.5648
16583TIP3    H171164   3.739   6.350   3.832  0.7195  0.5459  0.9969
16583TIP3    H271165   3.662   6.270   3.935  1.1607  0.6025  1.3719
16584TIP3   OH271166   4.746   5.952   5.514  0.4201 -0.1283  0.2018
16584TIP3    H171167   4.840   5.958   5.500  0.0299  0.4430 -2.9538
16584TIP3    H271168   4.726   5.859   5.508  0.7957 -0.2594  0.9876
16585TIP3   OH271169   3.278   6.649   1.437 -0.5373 -0.7218 -0.9070
16585TIP3    H171170   3.208   6.670   1.375 -1.4838 -2.9456 -0.6608
16585TIP3    H271171   3.233   6.620   1.516  0.6808 -0.0326  0.0911
16586TIP3   OH271172   5.090   4.499  16.017 -0.6888  0.5291  0.1632
16586TIP3    H171173   5.159   4.495  15.950 -1.0715 -2.0457 -0.1773
16586TIP3    H271174   5.018   4.544  15.973 -0.5979 -0.2835 -0.8569
16587TIP3   OH271175   4.867   5.432   5.865 -0.6097  0.1637 -0.3087
16587TIP3    H171176   4.925   5.501   5.897 -0.4559  1.9383 -3.8352
16587TIP3    H271177   4.796   5.428   5.929  0.1460  2.6004  0.8045
16588TIP3   OH271178   0.645   3.999  16.989 -0.5335  0.7424  0.0670
16588TIP3    H171179   0.695   3.925  17.025 -0.4303  0.5976 -0.3604
16588TIP3    H271180   0.637   3.978  16.896 -0.8725  1.0657  0.0244
16589TIP3   OH271181   4.330   4.189  16.341 -0.3702 -0.3809  0.0408
16589TIP3    H171182   4.402   4.146  16.388  0.5984 -0.0332 -1.0645
16589TIP3    H271183   4.351   4.282  16.345 -0.8599 -0.2620 -0.1216
16590TIP3   OH271184   2.012   5.416   5.502 -0.3866  0.3081 -0.3913
16590TIP3    H171185   1.949   5.347   5.479 -0.2633 -0.7223  2.0681
16590TIP3    H271186   2.062   5.379   5.575  0.9622  2.3165 -0.2410
16591TIP3   OH271187   6.496   3.049  15.439  0.2062 -0.0134 -0.0771
16591TIP3    H171188   6.557   3.063  15.511 -0.9893  0.2471  0.9167
16591TIP3    H271189   6.457   2.963  15.455  0.7535 -0.4687 -1.0611
16592TIP3   OH271190   2.894   4.704   5.229  0.2376  0.2137  0.1347
16592TIP3    H171191   2.904   4.654   5.310 -1.4063 -2.9769 -1.4315
16592TIP3    H271192   2.799   4.705   5.213  0.4794  1.2036 -1.4775
16593TIP3   OH271193   0.971   1.801  16.457  0.3101 -0.4082 -0.2155
16593TIP3    H171194   0.895   1.858  16.461  0.7938  0.2995 -0.8586
16593TIP3    H271195   0.983   1.784  16.363  1.2564 -0.0715 -0.1672
16594TIP3   OH271196   6.082   4.985   2.665  0.8777  0.4249  0.2587
16594TIP3    H171197   6.164   4.961   2.619 -0.3004 -2.1647 -0.7274
16594TIP3    H271198   6.031   5.031   2.599  0.9554  0.7255  0.4084
16595TIP3   OH271199   1.649   3.327  15.288  0.6632  0.2645 -0.1294
16595TIP3    H171200   1.737   3.316  15.253  0.5009 -0.6944 -0.2459
16595TIP3    H271201   1.662   3.353  15.379  1.0724  1.7048 -0.5675
16596TIP3   OH271202   0.134   6.208  14.866  0.0389 -0.5741  0.2333
16596TIP3    H171203   0.164   6.298  14.880  0.0730 -0.1088 -2.3675
16596TIP3    H271204   0.040   6.215  14.856  0.1053 -0.7315 -0.5395
16597TIP3   OH271205   0.291   4.572  13.559 -0.3019  0.6937 -0.3791
16597TIP3    H171206   0.362   4.529  13.512  1.9327  2.5714  1.0789
16597TIP3    H271207   0.259   4.639  13.498  0.1959  0.8231 -0.4996
16598TIP3   OH271208   5.883   0.111   4.612  0.3624  0.1064 -0.2711
16598TIP3    H171209   5.926   0.045   4.557  0.8839  0.5714 -0.4367
16598TIP3    H271210   5.852   0.177   4.550  1.1896  0.7685  0.0020
16599TIP3   OH271211   3.613   5.234   0.667  0.1490  0.1495 -0.1595
16599TIP3    H171212   3.689   5.188   0.702  0.3710 -0.6716 -1.6117
16599TIP3    H271213   3.557   5.250   0.743  0.4004 -1.9149  0.5259
16600TIP3   OH271214   0.770   5.236   2.892 -0.5242  0.1395  0.4183
16600TIP3    H171215   0.778   5.305   2.826 -0.2148  0.4078  0.7261
16600TIP3    H271216   0.776   5.154   2.843 -2.4402  0.2920 -0.1526
16601TIP3   OH271217   1.852   1.162  13.531  0.5598 -0.0523 -0.3145
16601TIP3    H171218   1.774   1.124  13.571  0.4785 -0.8967 -1.2299
16601TIP3    H271219   1.850   1.131  13.440  2.3389 -0.6885 -0.1753
16602TIP3   OH271220   2.830   4.509   0.721  0.4213  0.4616 -0.4194
16602TIP3    H171221   2.876   4.446   0.775  0.3179 -0.3939 -1.3000
16602TIP3    H271222   2.737   4.495   0.741  0.4582  1.4819  0.5941
16603TIP3   OH271223   3.505   6.145   2.663  0.4044 -0.8923 -0.3361
16603TIP3    H171224   3.504   6.117   2.754  0.8171 -1.6762 -0.5693
16603TIP3    H271225   3.415   6.132   2.633  0.2092 -0.4040  0.0217
16604TIP3   OH271226   6.154   2.267   4.852 -0.4304 -0.3035  0.0216
16604TIP3    H171227   6.061   2.242   4.845  0.1059 -2.1179 -1.5594
16604TIP3    H271228   6.180   2.238   4.939 -1.2482 -0.1934  0.3094
16605TIP3   OH271229   6.474   4.552  12.774 -0.1208  1.0712 -0.0829
16605TIP3    H171230   6.532   4.479  12.797 -1.7085  0.5005  2.4542
16605TIP3    H271231   6.450   4.535  12.683  1.2866 -0.3324 -0.2372
16606TIP3   OH271232   3.312   1.084  12.968 -0.4617  0.4204  0.3003
16606TIP3    H171233   3.354   1.169  12.982 -1.1993  0.8741 -0.1828
16606TIP3    H271234   3.353   1.050  12.888  1.6558 -0.8574  1.8161
16607TIP3   OH271235   4.333   1.485  11.254  0.3135  0.4421 -0.2368
16607TIP3    H171236   4.249   1.441  11.251  0.7040 -0.3895  0.6605
16607TIP3    H271237   4.312   1.577  11.268 -0.4224  0.0674  1.3045
16608TIP3   OH271238   2.163   1.683   2.971 -0.0626  0.0326  0.2672
16608TIP3    H171239   2.191   1.691   2.879 -0.9825  1.0186  0.0443
16608TIP3    H271240   2.218   1.745   3.018 -0.0772  0.0468  0.2655
16609TIP3   OH271241   1.918   1.910   1.780  0.5583  0.2906  0.7622
16609TIP3    H171242   1.969   1.989   1.766  1.7269 -0.6611 -0.6255
16609TIP3    H271243   1.911   1.871   1.693 -3.8667  1.1051  0.5001
16610TIP3   OH271244   6.309   6.129   3.423  0.2728  0.1050 -0.0564
16610TIP3    H171245   6.238   6.097   3.368 -0.4910  3.1666 -1.0483
16610TIP3    H271246   6.380   6.147   3.362  1.0510 -0.6382  0.6068
16611TIP3   OH271247   5.688   5.377   4.492 -0.0889 -0.5449  0.0928
16611TIP3    H171248   5.709   5.284   4.502 -2.6272 -1.0454  1.4093
16611TIP3    H271249   5.636   5.382   4.411 -0.9407 -0.4813  0.6332
16612TIP3   OH271250   5.420   3.342  12.022  0.0467  0.1720  0.4842
16612TIP3    H171251   5.382   3.426  11.997  0.8470  0.4144  0.0639
16612TIP3    H271252   5.415   3.289  11.942  0.4693  0.1571  0.4688
16613TIP3   OH271253   5.230   3.021  15.314 -0.5650  0.0554 -0.2162
16613TIP3    H171254   5.217   3.074  15.392 -1.7662 -2.1879  1.2419
16613TIP3    H271255   5.187   2.938  15.335  1.4091 -1.5946 -2.2226
16614TIP3   OH271256   6.543   5.873   1.842 -1.2222  0.3222 -0.0388
16614TIP3    H171257   6.602   5.886   1.768 -1.0977 -0.3294 -0.0633
16614TIP3    H271258   6.473   5.818   1.807 -0.9628 -0.3100  0.4183
16615TIP3   OH271259   4.627   2.812   5.297 -0.0298  0.1349  0.2213
16615TIP3    H171260   4.649   2.772   5.381 -2.0396 -0.5607  0.4622
16615TIP3    H271261   4.576   2.890   5.320 -1.3973 -0.5598 -0.3201
16616TIP3   OH271262   1.778   4.341   0.691 -0.7848  0.0517  0.3491
16616TIP3    H171263   1.856   4.390   0.719  1.0284 -2.1115 -0.5397
16616TIP3    H271264   1.778   4.263   0.747 -0.9781 -1.0515 -1.1209
16617TIP3   OH271265   2.041   2.413  15.411  0.4072  0.2557  0.3474
16617TIP3    H171266   1.995   2.469  15.348  0.1351  0.3201  0.6032
16617TIP3    H271267   1.972   2.379  15.467  0.6192 -0.0293  0.4354
16618TIP3   OH271268   3.271   5.382  16.778  0.1629  0.1194 -0.3259
16618TIP3    H171269   3.327   5.459  16.785 -0.6402  0.7557 -0.7468
16618TIP3    H271270   3.274   5.342  16.865 -1.1286  1.8519  0.5538
16619TIP3   OH271271   1.224   4.470  15.548 -0.6350  0.7442 -0.1779
16619TIP3    H171272   1.155   4.521  15.506  0.1375 -0.3774 -3.0989
16619TIP3    H271273   1.304   4.495  15.502  0.4952  0.1284  1.3527
16620TIP3   OH271274   4.908   3.705   2.066 -0.8677  0.0267  0.5203
16620TIP3    H171275   4.973   3.656   2.116 -0.5343  1.1591  1.2462
16620TIP3    H271276   4.856   3.639   2.021  0.1122 -0.9368  0.7813
16621TIP3   OH271277   1.028   4.930  12.154 -0.2459  0.4618 -0.5108
16621TIP3    H171278   0.981   5.010  12.176  1.3159  1.0615  0.8630
16621TIP3    H271279   1.032   4.882  12.237  0.6433 -0.0493 -0.8390
16622TIP3   OH271280   5.650   3.407  12.494  0.5883 -0.0102  0.3319
16622TIP3    H171281   5.630   3.423  12.401 -0.1952  0.1817  0.5237
16622TIP3    H271282   5.734   3.449  12.508  0.1960  0.9165 -0.0245
16623TIP3   OH271283   5.884   0.597   6.013  0.6549 -0.0188 -0.4602
16623TIP3    H171284   5.971   0.603   5.972  0.1186 -1.3337 -1.8577
16623TIP3    H271285   5.826   0.641   5.952 -0.0428 -1.3486 -0.7881
16624TIP3   OH271286   4.859   0.530   5.376  0.1683  0.1845  0.3170
16624TIP3    H171287   4.824   0.443   5.355 -0.1768  0.9971 -3.1394
16624TIP3    H271288   4.952   0.524   5.353  0.3413  0.5170  0.9062
16625TIP3   OH271289   5.811   3.974   5.316  0.3319  0.3326 -0.4847
16625TIP3    H171290   5.885   3.913   5.307  0.6416  0.5755  0.3161
16625TIP3    H271291   5.837   4.032   5.387 -0.9283 -0.0109  0.2928
16626TIP3   OH271292   5.986   6.227  11.795  0.2877  0.1072 -0.1414
16626TIP3    H171293   5.950   6.194  11.712  2.0234  0.6389 -1.1708
16626TIP3    H271294   6.079   6.205  11.791  0.4090  0.1093  1.7152
16627TIP3   OH271295   2.371   1.034   0.972 -0.2068  0.6762  0.2255
16627TIP3    H171296   2.295   0.989   1.008  0.2212 -1.4015 -1.3003
16627TIP3    H271297   2.340   1.068   0.887  0.6710 -0.7251 -0.6964
16628TIP3   OH271298   6.264   5.804   0.318  0.3174 -0.3169 -0.3194
16628TIP3    H171299   6.359   5.803   0.308  0.5627 -0.1521  1.6857
16628TIP3    H271300   6.249   5.802   0.412 -1.6163  2.0053 -0.4584
16629TIP3   OH271301   2.094   3.147   1.921 -0.2668  0.0773 -0.3439
16629TIP3    H171302   2.124   3.177   1.835 -0.3830 -1.3876 -0.9206
16629TIP3    H271303   2.166   3.095   1.955  0.3144  1.6956  1.0656
16630TIP3   OH271304   0.200   3.852  14.506 -0.5403 -0.2894  0.4695
16630TIP3    H171305   0.118   3.867  14.552 -1.6729 -1.5247 -1.0460
16630TIP3    H271306   0.174   3.823  14.418  1.5276  0.9386 -0.6204
16631TIP3   OH271307   5.139   6.691   2.777  0.2404  0.2647  0.3371
16631TIP3    H171308   5.171   6.772   2.737 -1.2886 -0.0255 -1.6280
16631TIP3    H271309   5.143   6.627   2.706 -2.2269 -0.3807  0.7027
16632TIP3   OH271310   5.086   6.024   2.725  0.5183 -0.3797  0.5548
16632TIP3    H171311   5.150   5.960   2.755 -0.1684 -1.0735  0.5701
16632TIP3    H271312   5.058   6.069   2.805  0.5913 -0.4474  0.6184
16633TIP3   OH271313   3.944   4.661  14.635 -0.1831 -0.1874 -0.5936
16633TIP3    H171314   4.031   4.627  14.657  1.0949  1.2200 -3.0262
16633TIP3    H271315   3.892   4.584  14.614  0.6458 -1.0168  0.2806
16634TIP3   OH271316   1.365   1.938  11.522 -0.0273 -0.1907  0.6745
16634TIP3    H171317   1.446   1.966  11.479  1.0100 -0.4815  2.3832
16634TIP3    H271318   1.355   1.998  11.596  0.7860 -2.5499  2.8118
16635TIP3   OH271319   6.165   0.762  12.934  0.0736  0.5557 -0.1496
16635TIP3    H171320   6.220   0.752  13.012  0.7792  1.7365 -0.4782
16635TIP3    H271321   6.083   0.718  12.957  0.6730 -0.0917  0.8350
16636TIP3   OH271322   4.046   1.981   3.844 -0.6747 -0.4793  0.1495
16636TIP3    H171323   4.099   1.912   3.882  0.4399  0.1577 -0.2046
16636TIP3    H271324   4.077   2.062   3.886 -0.0292  0.1303 -1.4363
16637TIP3   OH271325   4.665   3.605  16.572 -0.4527 -0.1626  0.7758
16637TIP3    H171326   4.576   3.630  16.596 -1.6196 -3.0299 -0.1520
16637TIP3    H271327   4.692   3.544  16.640  0.5619  0.1208  0.6466
16638TIP3   OH271328   6.501   6.673   1.610 -0.7207  0.1296 -0.5810
16638TIP3    H171329   6.525   6.735   1.540 -1.8341  1.8246  0.4650
16638TIP3    H271330   6.524   6.718   1.691 -2.9828 -0.1184  0.2791
16639TIP3   OH271331   2.720   1.066  16.621 -0.4540  0.2488 -0.5392
16639TIP3    H171332   2.674   1.090  16.540 -2.4456  0.4096  0.5908
16639TIP3    H271333   2.711   1.143  16.677 -0.8871 -0.6065  0.5938
16640TIP3   OH271334   6.630   0.721   4.486  0.4384  0.0466  0.1299
16640TIP3    H171335   6.664   0.760   4.406  2.7575 -0.5596  0.7478
16640TIP3    H271336   6.593   0.795   4.535  0.5997  0.6999 -0.7125
16641TIP3   OH271337   2.563   4.606  10.904 -0.4364  0.2037 -0.4616
16641TIP3    H171338   2.505   4.529  10.898 -1.6588  0.9361  1.0270
16641TIP3    H271339   2.650   4.569  10.917 -0.7895 -0.9421 -1.1967
16642TIP3   OH271340   0.777   2.812   5.860 -0.3354 -0.3463 -0.1263
16642TIP3    H171341   0.783   2.907   5.845  0.7757 -0.2817  0.6633
16642TIP3    H271342   0.729   2.804   5.942 -1.5657 -0.5285 -0.8390
16643TIP3   OH271343   0.001   4.295   0.494 -0.1454 -0.4727  0.3105
16643TIP3    H171344  -0.035   4.344   0.567 -0.3132 -0.1538  0.0171
16643TIP3    H271345   0.049   4.360   0.443 -1.2073 -0.3933 -0.6306
16644TIP3   OH271346   5.925   2.625   5.523 -0.5680 -0.0075  0.0828
16644TIP3    H171347   5.872   2.548   5.542 -0.7999  0.3047  0.7444
16644TIP3    H271348   5.888   2.661   5.443 -0.2242 -0.7816 -0.4390
16645TIP3   OH271349   2.108   1.093   0.264  0.2614 -0.1051  0.2207
16645TIP3    H171350   2.062   1.157   0.209  0.2748 -0.8635 -0.7078
16645TIP3    H271351   2.125   1.139   0.346 -1.1582  0.5567  0.1747
16646TIP3   OH271352   4.296   1.836   5.500 -0.1753  0.0035  0.0127
16646TIP3    H171353   4.216   1.784   5.507  0.2897 -0.5272  1.6763
16646TIP3    H271354   4.340   1.801   5.423 -0.3583 -1.3917  0.5194
16647TIP3   OH271355   3.641   2.064  12.646  0.3640  0.2830  0.2041
16647TIP3    H171356   3.603   2.044  12.560  0.1891 -0.1260  0.3721
16647TIP3    H271357   3.631   1.983  12.696  1.1429  0.2821  0.3694
16648TIP3   OH271358   1.682   1.108  11.783  0.1215  0.2456 -0.0542
16648TIP3    H171359   1.748   1.177  11.784 -0.8059  1.1724  1.3422
16648TIP3    H271360   1.632   1.122  11.863 -1.7171 -0.4623 -1.0214
16649TIP3   OH271361   3.063   5.825  12.811  0.0642 -0.0657  0.2663
16649TIP3    H171362   2.979   5.854  12.847  0.0648  0.1403  0.1055
16649TIP3    H271363   3.047   5.735  12.781  0.1927 -0.4101  1.2044
16650TIP3   OH271364   5.440   5.723  11.262  0.0561  0.4059 -0.0872
16650TIP3    H171365   5.445   5.659  11.192  0.1779 -0.1388  0.4110
16650TIP3    H271366   5.397   5.677  11.334 -1.9433  1.5660 -0.4543
16651TIP3   OH271367   4.473   3.949   2.380  0.5616  0.2748 -0.2196
16651TIP3    H171368   4.449   3.997   2.301 -2.7981  1.0406  1.0756
16651TIP3    H271369   4.562   3.977   2.400  0.1870  2.8228 -1.7457
16652TIP3   OH271370   3.384   3.326  14.468  0.3261  0.8105 -0.2230
16652TIP3    H171371   3.460   3.269  14.480  1.0423  1.7141 -0.3539
16652TIP3    H271372   3.309   3.270  14.488  1.1247  0.5259  2.3934
16653TIP3   OH271373   5.419   6.259  12.279 -0.2752 -0.0743  0.7640
16653TIP3    H171374   5.460   6.213  12.206  0.2726  1.4069  0.0894
16653TIP3    H271375   5.388   6.190  12.337 -0.3919 -1.2887 -0.6868
16654TIP3   OH271376   4.769   4.819  11.965  0.2751  0.1208 -0.0476
16654TIP3    H171377   4.836   4.874  12.005  1.6260 -1.0163 -0.6826
16654TIP3    H271378   4.704   4.880  11.932  0.9894  1.2515  0.5996
16655TIP3   OH271379   0.781   3.945  12.783  0.4140  0.5381 -0.1420
16655TIP3    H171380   0.760   3.925  12.692 -0.7419 -1.9896  0.5919
16655TIP3    H271381   0.869   3.911  12.796  1.2533  2.3653 -0.6671
16656TIP3   OH271382   4.343   3.373  16.747 -0.1809  0.7294 -0.0804
16656TIP3    H171383   4.269   3.430  16.766 -0.3687  0.0316  1.4154
16656TIP3    H271384   4.308   3.284  16.754  0.1115  0.3668 -2.3536
16657TIP3   OH271385   0.698   1.961  13.200  0.2893  0.3427  0.6623
16657TIP3    H171386   0.782   1.914  13.202 -0.6987 -1.5202  2.0238
16657TIP3    H271387   0.691   1.995  13.111  1.2861 -1.7730 -0.2866
16658TIP3   OH271388   2.891   4.383  11.417 -0.5964  0.0101 -0.0210
16658TIP3    H171389   2.970   4.394  11.364 -0.1513 -1.6007  0.2575
16658TIP3    H271390   2.920   4.399  11.507 -1.0521  1.3672 -0.0859
16659TIP3   OH271391   3.872   0.553   1.242  0.1247  0.3248  0.2409
16659TIP3    H171392   3.908   0.567   1.154  0.2296  0.7283  0.3433
16659TIP3    H271393   3.791   0.605   1.243  0.3922  0.7495  0.5508
16660TIP3   OH271394   5.805   4.765   0.610  0.2677 -0.0154  0.4001
16660TIP3    H171395   5.813   4.762   0.705 -0.5635  1.2784  0.5404
16660TIP3    H271396   5.849   4.686   0.580  2.8985  0.7886  1.7015
16661TIP3   OH271397   0.679   1.457   3.271 -0.1503  0.2114 -0.1601
16661TIP3    H171398   0.638   1.435   3.354 -1.5111 -2.5243 -1.4341
16661TIP3    H271399   0.608   1.493   3.218 -0.1888 -1.4291 -1.2801
16662TIP3   OH271400   4.607   0.670  15.501  0.2198 -0.3964 -0.2012
16662TIP3    H171401   4.646   0.750  15.536  0.4840 -1.2376  1.5366
16662TIP3    H271402   4.665   0.644  15.429  0.2771  0.8021 -0.6098
16663TIP3   OH271403   5.759   3.194  16.089 -0.1539  0.0753 -0.0215
16663TIP3    H171404   5.749   3.163  16.179 -0.4094  0.2738  0.0197
16663TIP3    H271405   5.704   3.135  16.037 -0.6489  0.4702  0.0579
16664TIP3   OH271406   0.376   5.702   3.930 -0.1639 -0.3193  0.1195
16664TIP3    H171407   0.354   5.691   4.023  1.4225 -1.4492  0.3977
16664TIP3    H271408   0.291   5.706   3.886 -0.9537 -1.8320  1.4016
16665TIP3   OH271409   0.946   0.734  15.699  0.0977  0.0226 -0.6052
16665TIP3    H171410   0.880   0.803  15.693 -0.2032 -0.3528 -2.1521
16665TIP3    H271411   1.008   0.755  15.628  0.1107 -1.1659 -0.9644
16666TIP3   OH271412   0.070   2.299   2.847  0.2438  0.2644 -0.9206
16666TIP3    H171413   0.097   2.233   2.783 -0.4591  0.6027 -1.5830
16666TIP3    H271414   0.131   2.372   2.833 -0.4959  0.7169 -1.8728
16667TIP3   OH271415   0.937   3.582   3.088 -0.0091  0.3006 -0.9142
16667TIP3    H171416   0.952   3.488   3.078  0.5627  0.1415  1.0077
16667TIP3    H271417   0.998   3.623   3.026  0.3318 -0.5778 -1.1701
16668TIP3   OH271418   5.589   0.299  16.543  0.2564  0.1162  0.1465
16668TIP3    H171419   5.536   0.330  16.470  0.5212 -1.4661 -0.7610
16668TIP3    H271420   5.530   0.242  16.593  0.9615 -1.3819 -0.6754
16669TIP3   OH271421   1.320   3.096  16.423 -0.1965 -0.6783 -0.1077
16669TIP3    H171422   1.355   3.039  16.355  1.6868 -0.8774  0.9384
16669TIP3    H271423   1.374   3.176  16.416  0.3314 -0.8780  1.3900
16670TIP3   OH271424   5.227   5.893  16.643  0.4302 -0.1004  0.0541
16670TIP3    H171425   5.216   5.819  16.703 -0.6063 -1.1184 -1.3162
16670TIP3    H271426   5.204   5.970  16.694 -1.6295 -1.0520  0.6578
16671TIP3   OH271427   0.874   6.175  14.363 -0.2700  0.2423  0.1734
16671TIP3    H171428   0.894   6.268  14.352 -0.6572  0.4153  0.8754
16671TIP3    H271429   0.802   6.159  14.302 -1.1648  0.7563  1.0579
16672TIP3   OH271430   3.640   1.946   2.081 -0.0433 -0.3392  0.4288
16672TIP3    H171431   3.544   1.944   2.084 -0.1634  0.5576 -1.6199
16672TIP3    H271432   3.662   1.902   1.999  1.4712 -2.8338  2.0294
16673TIP3   OH271433   4.873   0.188   0.921  0.2908 -0.5346  0.2488
16673TIP3    H171434   4.923   0.270   0.918 -0.0167 -0.3165  0.9884
16673TIP3    H271435   4.938   0.120   0.903  0.6575 -0.1746  0.1828
16674TIP3   OH271436   2.647   5.914  15.568 -0.3094  0.1584  0.1853
16674TIP3    H171437   2.731   5.890  15.529  0.5160 -0.8997  2.4408
16674TIP3    H271438   2.666   5.991  15.621 -0.5749 -0.4458  1.1987
16675TIP3   OH271439   5.096   4.145   4.307  0.3439 -0.0524  0.3486
16675TIP3    H171440   5.186   4.147   4.275  0.4430  0.0866  0.6359
16675TIP3    H271441   5.047   4.197   4.243  0.4713 -0.1065  0.2067
16676TIP3   OH271442   4.100   2.946  15.742  0.2285 -0.0452  0.2549
16676TIP3    H171443   4.042   3.002  15.795 -0.4581  0.7485 -1.2886
16676TIP3    H271444   4.094   2.981  15.654  0.5883 -1.9475 -0.5779
16677TIP3   OH271445   4.627   0.628   1.726  0.0201 -0.0672  0.3350
16677TIP3    H171446   4.563   0.649   1.658  1.3041 -0.0907 -0.9330
16677TIP3    H271447   4.652   0.538   1.708  0.1329 -0.1868  1.0641
16678TIP3   OH271448   6.069   1.495  10.398 -0.3921  0.2581  0.5095
16678TIP3    H171449   5.984   1.453  10.406 -0.2434  0.2503  2.8178
16678TIP3    H271450   6.051   1.581  10.360 -0.7994 -1.3689 -3.4878
16679TIP3   OH271451   2.303   1.266  12.905 -0.4298 -0.1965  0.1365
16679TIP3    H171452   2.361   1.210  12.956  0.4637  0.2729 -0.3384
16679TIP3    H271453   2.220   1.265  12.953  0.4977  0.5869  1.8645
16680TIP3   OH271454   6.461   4.611  13.233  0.4670 -0.0480  0.0928
16680TIP3    H171455   6.473   4.524  13.271  0.9457  0.5654  1.3840
16680TIP3    H271456   6.549   4.640  13.210  0.3652  0.2964  0.1322
16681TIP3   OH271457   3.074   4.757   2.693 -0.4515  0.1135 -0.4460
16681TIP3    H171458   3.038   4.842   2.719 -0.1540 -0.1894  1.0624
16681TIP3    H271459   3.119   4.774   2.611 -0.9451  1.2817 -0.4890
16682TIP3   OH271460   3.829   3.387  13.944  0.0610 -0.1144 -0.0328
16682TIP3    H171461   3.886   3.459  13.970  0.5183 -0.0455 -1.1765
16682TIP3    H271462   3.799   3.349  14.027 -1.3465  2.2596  0.6547
16683TIP3   OH271463   5.409   6.251  16.855 -0.3164 -0.1754  0.4275
16683TIP3    H171464   5.381   6.311  16.923 -0.3964  1.5627 -1.0599
16683TIP3    H271465   5.333   6.194  16.840 -0.8061  0.3723  0.7984
16684TIP3   OH271466   1.437   1.444  14.256  0.2751  0.6363 -0.0965
16684TIP3    H171467   1.450   1.352  14.280  1.0285  0.1917 -2.0353
16684TIP3    H271468   1.345   1.450  14.231 -0.2480  0.8680  1.7142
16685TIP3   OH271469   1.014   0.129  13.297 -0.2637 -0.2436 -0.1302
16685TIP3    H171470   0.938   0.159  13.248 -0.8258  2.3003  2.0873
16685TIP3    H271471   1.087   0.180  13.261 -0.2634 -0.0659  0.1199
16686TIP3   OH271472   5.023   5.957  15.617 -1.2193 -0.3870  0.5583
16686TIP3    H171473   4.994   6.031  15.564  0.7701  1.1687  1.4948
16686TIP3    H271474   5.094   5.917  15.566  0.5169  0.9500  1.7954
16687TIP3   OH271475   0.289   3.838  15.800  0.0612 -0.0606 -0.2206
16687TIP3    H171476   0.366   3.838  15.743  0.9423  1.0003  0.8999
16687TIP3    H271477   0.325   3.849  15.888 -1.4337  1.8214  0.2115
16688TIP3   OH271478   3.711   1.760   0.049 -0.6413 -0.2771 -0.0119
16688TIP3    H171479   3.779   1.736  -0.014 -0.4639  0.7197 -0.2054
16688TIP3    H271480   3.740   1.843   0.086 -1.7428  0.1497 -0.0804
16689TIP3   OH271481   6.589   3.073   0.843 -0.1403  0.4658 -0.1693
16689TIP3    H171482   6.664   3.090   0.787 -1.2099 -0.6830 -2.0649
16689TIP3    H271483   6.513   3.084   0.785 -1.4206  0.9850  1.5166
16690TIP3   OH271484   1.920   6.236  13.736 -0.2683  0.2644  0.3846
16690TIP3    H171485   1.883   6.149  13.719 -1.8089  1.0822 -0.7100
16690TIP3    H271486   1.955   6.263  13.651  0.8144  0.4740  0.8772
16691TIP3   OH271487   0.411   4.800   4.003  0.8920 -0.3373 -0.0647
16691TIP3    H171488   0.480   4.844   4.053  1.4877 -0.8473 -0.4269
16691TIP3    H271489   0.330   4.837   4.037  1.3238 -0.0895  0.7150
16692TIP3   OH271490   0.114   5.501   4.295 -0.2934  0.3014  0.3133
16692TIP3    H171491   0.111   5.422   4.350 -0.0873  0.9428  1.2574
16692TIP3    H271492   0.028   5.542   4.307 -1.4096 -1.0596 -2.1678
16693TIP3   OH271493   3.587   5.717  13.858  0.5705  0.1422 -0.2799
16693TIP3    H171494   3.544   5.660  13.921  1.9435 -0.5859  0.0358
16693TIP3    H271495   3.652   5.764  13.909  1.3966 -0.1322 -1.0647
16694TIP3   OH271496   0.863   2.942  11.719 -0.5470 -0.2196  0.2305
16694TIP3    H171497   0.843   2.969  11.629 -0.8963  0.3150  0.4639
16694TIP3    H271498   0.912   2.860  11.709  1.3509  0.9637 -0.5126
16695TIP3   OH271499   3.440   0.480  10.453 -0.5521  0.2087  0.1534
16695TIP3    H171500   3.436   0.384  10.454  0.3923 -0.0250 -3.4088
16695TIP3    H271501   3.394   0.505  10.373 -1.7578  2.8789  1.5557
16696TIP3   OH271502   1.001   0.903  16.746  0.5620  0.4707 -0.3132
16696TIP3    H171503   0.924   0.866  16.703  0.5925 -0.6795  0.5743
16696TIP3    H271504   1.062   0.830  16.753  0.5772  0.6245  1.6193
16697TIP3   OH271505   3.576   2.381   5.822  0.3104 -0.0298  0.2473
16697TIP3    H171506   3.656   2.360   5.870  1.3760  0.1795 -1.3589
16697TIP3    H271507   3.601   2.454   5.765 -0.7253 -0.6163 -1.0071
16698TIP3   OH271508   4.858   5.240  13.324  0.1182 -0.7998 -0.1360
16698TIP3    H171509   4.788   5.290  13.366  1.1965 -0.9927  2.0915
16698TIP3    H271510   4.815   5.190  13.255 -1.7204 -0.0421  0.3998
16699TIP3   OH271511   2.495   4.253  14.235  0.0247  0.7869 -0.6846
16699TIP3    H171512   2.564   4.231  14.297  2.0985 -1.2505 -3.4449
16699TIP3    H271513   2.423   4.286  14.289  1.5874 -0.9325  2.7333
16700TIP3   OH271514   4.650   6.728  15.313  0.4468  0.0016 -0.3278
16700TIP3    H171515   4.596   6.713  15.235  0.9030  0.5097 -0.7454
16700TIP3    H271516   4.625   6.657  15.373 -3.7089  2.3750  1.1798
16701TIP3   OH271517   2.088   4.507   1.379 -0.4034 -0.5641  0.1277
16701TIP3    H171518   2.068   4.586   1.429  0.2197 -0.1039 -0.3433
16701TIP3    H271519   2.013   4.495   1.321 -1.3173 -1.3108  1.3876
16702TIP3   OH271520   6.776   2.477   2.247  0.2341 -0.0668  0.6199
16702TIP3    H171521   6.797   2.520   2.164  1.1068  1.7746  1.7348
16702TIP3    H271522   6.758   2.386   2.223 -0.0864  0.5425 -1.6416
16703TIP3   OH271523   0.359   1.279   4.362  0.1740 -0.3296 -0.1302
16703TIP3    H171524   0.344   1.224   4.439  0.3860  0.0968  0.2225
16703TIP3    H271525   0.279   1.331   4.353  0.5334  0.3297  0.4009
16704TIP3   OH271526   2.933   2.196   2.682  0.2377  0.0204  0.1006
16704TIP3    H171527   2.987   2.226   2.755 -0.4666 -2.4483  1.7408
16704TIP3    H271528   2.993   2.148   2.625  0.0278 -2.1794  1.6034
16705TIP3   OH271529   1.408   2.970  12.440  0.0682 -0.0222  0.2171
16705TIP3    H171530   1.436   2.992  12.529  0.3975  0.1037  0.0841
16705TIP3    H271531   1.489   2.965  12.390  0.2270 -3.2386  0.5833
16706TIP3   OH271532   6.738   6.576   5.510  0.6449  0.0548 -0.0242
16706TIP3    H171533   6.822   6.604   5.474 -0.5298  1.2526 -2.0584
16706TIP3    H271534   6.720   6.639   5.580  2.2022 -1.3153  1.7252
16707TIP3   OH271535   3.092   0.329  13.807  0.2004 -0.1575  0.5969
16707TIP3    H171536   3.124   0.403  13.755  0.5142  0.3188  1.4525
16707TIP3    H271537   3.165   0.309  13.866 -0.0677 -0.8357  0.7013
16708TIP3   OH271538   0.131   6.033   4.304 -1.0920 -0.1160  0.3834
16708TIP3    H171539   0.120   6.028   4.209  0.4469 -0.9635  0.2131
16708TIP3    H271540   0.217   5.994   4.320 -0.8222  1.0426  2.0207
16709TIP3   OH271541   3.049   5.977   3.767 -0.3331 -0.2788 -0.8152
16709TIP3    H171542   3.089   5.917   3.703  0.1974 -0.1473 -0.6162
16709TIP3    H271543   2.955   5.960   3.761 -0.0997 -2.3629  0.4246
16710TIP3   OH271544   6.473   5.126  13.829 -0.4634 -0.6204 -0.0062
16710TIP3    H171545   6.564   5.100  13.842 -0.5248 -1.0747 -0.4609
16710TIP3    H271546   6.451   5.094  13.741 -0.3816  1.4252 -0.8347
16711TIP3   OH271547   3.633   5.135  15.338 -0.2265 -0.2725 -0.6561
16711TIP3    H171548   3.601   5.134  15.248  1.8531 -2.7940 -1.5215
16711TIP3    H271549   3.717   5.181  15.333 -0.9158  1.1758  0.4091
16712TIP3   OH271550   0.305   1.942  13.317  0.1531  0.0393  0.3340
16712TIP3    H171551   0.380   1.998  13.337 -0.5536  0.9780  0.4291
16712TIP3    H271552   0.248   1.950  13.393  0.8627 -2.3076  1.1955
16713TIP3   OH271553   0.436   2.920  13.092  0.0237  0.0710  0.0496
16713TIP3    H171554   0.444   3.002  13.141  0.4153  0.6921 -1.0179
16713TIP3    H271555   0.351   2.927  13.047  0.0302 -0.1417  0.0037
16714TIP3   OH271556   5.259   3.120  12.932 -0.6896 -0.0524  0.0551
16714TIP3    H171557   5.261   3.208  12.969  1.4817 -0.1060  0.2221
16714TIP3    H271558   5.336   3.077  12.969 -1.3785 -1.8454 -0.4717
16715TIP3   OH271559   3.513   3.598   5.170 -0.7025  0.1843 -0.0426
16715TIP3    H171560   3.554   3.562   5.248  1.0477 -0.2862 -1.1183
16715TIP3    H271561   3.486   3.686   5.195 -2.8645 -0.9433  1.9253
16716TIP3   OH271562   0.167   1.400  12.882  0.4069  0.1012 -0.1138
16716TIP3    H171563   0.096   1.428  12.939  1.5130  2.7669  0.1083
16716TIP3    H271564   0.226   1.350  12.938 -0.5312 -0.8456  0.0486
16717TIP3   OH271565   0.410   0.837  12.268 -0.2615  0.6381 -0.6373
16717TIP3    H171566   0.354   0.882  12.330 -0.5647 -1.5298  0.7730
16717TIP3    H271567   0.493   0.824  12.314 -0.2442 -0.3689 -0.9089
16718TIP3   OH271568   5.633   5.094   0.299 -0.3505 -0.1094 -0.3545
16718TIP3    H171569   5.609   5.042   0.223 -1.5283 -0.2755  0.1100
16718TIP3    H271570   5.549   5.123   0.336  0.2549  1.5346 -0.2002
16719TIP3   OH271571   0.047   4.367  17.162  0.0536 -0.2176 -0.2854
16719TIP3    H171572   0.119   4.381  17.224 -0.3730  1.6619 -0.1533
16719TIP3    H271573   0.084   4.310  17.095  1.1381 -0.6674  0.6577
16720TIP3   OH271574   1.682   0.251  16.993  0.3073  0.1084 -0.2496
16720TIP3    H171575   1.726   0.336  16.987 -0.4401  0.4176 -1.6259
16720TIP3    H271576   1.603   0.261  16.940 -0.7072 -0.8969  1.0049
16721TIP3   OH271577   2.456   4.107  12.002 -0.1340 -0.4239 -0.2582
16721TIP3    H171578   2.538   4.153  12.016 -0.9649  0.8235  0.6785
16721TIP3    H271579   2.409   4.160  11.937 -0.9085 -0.1533  0.4963
16722TIP3   OH271580   1.896   3.872   5.841 -0.2100 -0.5957 -0.3154
16722TIP3    H171581   1.830   3.826   5.789 -0.2680 -1.5366  0.5603
16722TIP3    H271582   1.965   3.807   5.855  0.7831  0.2782 -0.9570
16723TIP3   OH271583   5.332   4.832   0.383  0.4439  0.5806 -0.3431
16723TIP3    H171584   5.403   4.842   0.447  1.7506 -0.7340 -1.5027
16723TIP3    H271585   5.253   4.830   0.436  1.1086  3.2188  0.9161
16724TIP3   OH271586   3.336   5.306  16.109 -0.3250 -0.4143 -0.1320
16724TIP3    H171587   3.342   5.399  16.129 -2.1378 -0.2306 -0.3565
16724TIP3    H271588   3.379   5.298  16.023  0.1577  0.1426  0.0492
16725TIP3   OH271589   6.272   3.097  12.836  0.4772 -0.0794  0.0052
16725TIP3    H171590   6.212   3.023  12.848  1.3508 -0.6537  0.9457
16725TIP3    H271591   6.259   3.123  12.745 -0.1003 -1.1779 -0.2467
16726TIP3   OH271592   1.497   2.742   0.128 -0.4659 -0.0622  0.1550
16726TIP3    H171593   1.463   2.787   0.206 -1.0744 -0.0546 -0.1057
16726TIP3    H271594   1.463   2.794   0.054 -0.8963 -0.7447 -0.1388
16727TIP3   OH271595   5.019   1.907  12.087 -0.0061 -0.1933  0.2729
16727TIP3    H171596   5.010   1.972  12.018 -0.8482  0.3709  0.8908
16727TIP3    H271597   4.929   1.885  12.111  0.2483  0.0949  1.6073
16728TIP3   OH271598   3.517   4.728   3.459  0.2578  0.1487  0.0940
16728TIP3    H171599   3.548   4.682   3.537  0.0959 -0.0436  0.0461
16728TIP3    H271600   3.560   4.813   3.463  0.6531 -0.0464  0.1237
16729TIP3   OH271601   4.740   6.474  14.678 -0.7684  0.2497  0.2021
16729TIP3    H171602   4.809   6.411  14.697 -0.6742  0.6324  1.1950
16729TIP3    H271603   4.667   6.422  14.646 -0.3407 -0.2479  0.0253
16730TIP3   OH271604   0.587   3.288   1.634  0.2039  0.1540  0.0542
16730TIP3    H171605   0.671   3.320   1.667  1.4699 -1.4063 -1.4310
16730TIP3    H271606   0.600   3.194   1.623 -1.9897 -0.2409  0.3890
16731TIP3   OH271607   4.074   6.737  11.387  0.2641 -0.2555  0.9124
16731TIP3    H171608   4.156   6.745  11.435  0.2318 -2.7313  1.4931
16731TIP3    H271609   4.010   6.710  11.452 -0.9533  1.1496  0.3669
16732TIP3   OH271610   5.079   3.081   1.689 -0.4082  0.1399  0.1700
16732TIP3    H171611   5.119   3.064   1.604  0.7248 -2.5397  1.1507
16732TIP3    H271612   4.985   3.089   1.670 -0.6192 -3.5584 -1.0807
16733TIP3   OH271613   0.290   2.354  16.908  0.8398  0.0009  0.1846
16733TIP3    H171614   0.371   2.353  16.857  1.3615  0.2214  0.9846
16733TIP3    H271615   0.245   2.273  16.885  1.0760  0.0915 -0.5986
16734TIP3   OH271616   3.078   3.429  12.752 -0.2375 -0.3473  0.8118
16734TIP3    H171617   3.052   3.506  12.701 -1.1428 -1.3278 -0.2796
16734TIP3    H271618   3.055   3.451  12.842  1.8471  1.6231  0.9507
16735TIP3   OH271619   3.653   0.696   1.199  0.3569 -0.3520 -0.1819
16735TIP3    H171620   3.665   0.724   1.108  1.2677 -2.2495 -0.6822
16735TIP3    H271621   3.562   0.718   1.219  0.7609  2.1844 -0.7499
16736TIP3   OH271622   0.761   0.992  14.331 -0.2078 -0.3244  0.2205
16736TIP3    H171623   0.741   1.029  14.417  3.2650  0.2920  0.9149
16736TIP3    H271624   0.802   1.064  14.283 -1.0537 -0.9867 -1.6010
16737TIP3   OH271625   4.252   3.294  11.805  0.2859  0.3611  0.3833
16737TIP3    H171626   4.202   3.305  11.886  0.8000  1.6116  0.5549
16737TIP3    H271627   4.323   3.234  11.828 -0.2462 -0.2122  0.5424
16738TIP3   OH271628   3.607   1.952   3.550 -0.1363 -0.1065 -1.0758
16738TIP3    H171629   3.657   1.873   3.569  1.6247  0.3071 -3.4907
16738TIP3    H271630   3.636   2.016   3.615 -0.2773 -0.9026 -0.2046
16739TIP3   OH271631   1.358   6.336  12.610  0.0614 -0.1967  0.2998
16739TIP3    H171632   1.422   6.356  12.541 -1.6327 -0.2413 -1.3626
16739TIP3    H271633   1.411   6.320  12.688  1.9407  2.3283 -0.3407
16740TIP3   OH271634   6.021   1.161  16.424 -0.2107  0.1974 -0.2972
16740TIP3    H171635   6.112   1.135  16.438 -0.7357 -3.4921 -2.2901
16740TIP3    H271636   6.026   1.229  16.356  1.0727  0.4922  0.0685
16741TIP3   OH271637   0.828   4.905   3.773 -0.0597  0.5794 -0.4723
16741TIP3    H171638   0.819   4.920   3.867  1.1313  0.1673 -0.2669
16741TIP3    H271639   0.825   4.992   3.735  0.5534  0.8497  0.0701
16742TIP3   OH271640   0.111   5.926   2.055  0.2004 -0.7582 -0.5545
16742TIP3    H171641   0.199   5.946   2.023  0.4854 -0.5497  0.3372
16742TIP3    H271642   0.085   6.003   2.106 -1.2562 -0.0219 -2.3014
16743TIP3   OH271643   0.911   1.814   0.739 -0.4368  0.0079 -0.2581
16743TIP3    H171644   0.896   1.734   0.789 -0.5281 -0.8107 -1.5553
16743TIP3    H271645   0.986   1.794   0.684  0.8695  1.5520  0.8660
16744TIP3   OH271646   6.299   4.034  12.020 -0.3623  0.4625  0.4408
16744TIP3    H171647   6.384   3.998  11.996  0.7502  1.2960  2.7614
16744TIP3    H271648   6.312   4.129  12.017 -1.2205  0.5995  0.7681
16745TIP3   OH271649   5.065   4.405   2.227 -0.1332 -0.2037  0.0110
16745TIP3    H171650   5.068   4.375   2.137 -2.2101 -0.7241  0.0767
16745TIP3    H271651   5.036   4.329   2.277  2.1691 -0.3016  1.3610
16746TIP3   OH271652   4.561   1.278   1.570 -0.4959  0.0821 -0.5270
16746TIP3    H171653   4.589   1.370   1.567  0.7858 -0.2831 -0.6932
16746TIP3    H271654   4.481   1.278   1.621  0.2075  1.1370  0.6207
16747TIP3   OH271655   3.348   2.098   3.471  0.1812  0.6246  0.1284
16747TIP3    H171656   3.260   2.062   3.483  0.2790 -0.0181 -0.9710
16747TIP3    H271657   3.406   2.031   3.509  0.2132  0.9349  0.6322
16748TIP3   OH271658   3.456   5.068  15.143  0.1339 -0.5536 -0.1723
16748TIP3    H171659   3.467   4.993  15.085 -1.4248 -0.6768 -0.3562
16748TIP3    H271660   3.364   5.064  15.170 -0.3775  1.9959 -1.2248
16749TIP3   OH271661   3.659   5.459  16.762  0.0810 -0.0813  0.6731
16749TIP3    H171662   3.637   5.377  16.807  1.2197 -0.8813 -0.1655
16749TIP3    H271663   3.742   5.486  16.801  0.0207  0.3447  0.5109
16750TIP3   OH271664   4.845   1.448  16.703  0.2079 -0.0267  0.2838
16750TIP3    H171665   4.812   1.522  16.653  1.1438 -0.6141 -1.3193
16750TIP3    H271666   4.767   1.404  16.736 -0.4186  0.7417 -0.1419
16751TIP3   OH271667   4.860   3.743   4.189 -0.2631 -0.4455 -0.0174
16751TIP3    H171668   4.880   3.653   4.213 -1.8149 -1.2381 -1.4282
16751TIP3    H271669   4.848   3.789   4.272 -1.0128 -1.9371  0.7371
16752TIP3   OH271670   1.106   0.421   3.507  0.2204  0.2396 -0.3729
16752TIP3    H171671   1.092   0.332   3.474 -2.1127  0.1404  0.6378
16752TIP3    H271672   1.075   0.477   3.437  2.1984  0.3273 -1.2305
16753TIP3   OH271673   6.708   5.599  13.709  0.0522 -0.1823  0.1690
16753TIP3    H171674   6.786   5.609  13.655  0.8818 -0.1908  1.3059
16753TIP3    H271675   6.721   5.514  13.752 -0.0136  0.3268  1.2243
16754TIP3   OH271676   3.766   4.589   2.330 -0.4783 -0.2185  0.5873
16754TIP3    H171677   3.834   4.552   2.273  0.3010 -0.3523  1.5948
16754TIP3    H271678   3.798   4.575   2.419 -0.9719  1.3485  1.0392
16755TIP3   OH271679   5.953   2.067   4.649  0.6808  0.4160 -0.0399
16755TIP3    H171680   5.972   2.104   4.563  0.6190  0.8868  0.1424
16755TIP3    H271681   5.944   1.973   4.634 -1.6356  0.7162 -0.9608
16756TIP3   OH271682   1.702   0.680   2.189  0.6460 -0.3117  0.2056
16756TIP3    H171683   1.720   0.590   2.162 -0.8878 -0.9668  1.2047
16756TIP3    H271684   1.787   0.714   2.216  1.1100 -1.7924  0.7385
16757TIP3   OH271685   1.493   0.165   0.265  0.0481  0.3172 -0.6351
16757TIP3    H171686   1.546   0.177   0.187 -1.0303  1.4005 -1.2395
16757TIP3    H271687   1.554   0.130   0.330  1.6786  2.1083 -1.0977
16758TIP3   OH271688   3.339   1.679  17.059  0.4112 -0.5154 -0.4122
16758TIP3    H171689   3.283   1.733  17.003  1.7971  0.0821 -1.3096
16758TIP3    H271690   3.347   1.729  17.140 -0.5834 -0.7626 -0.1499
16759TIP3   OH271691   4.887   5.714  16.152 -0.0218  0.5264 -0.0203
16759TIP3    H171692   4.814   5.660  16.184  2.2538 -2.6873  0.2791
16759TIP3    H271693   4.947   5.719  16.226  1.2831  0.7541 -1.0526
16760TIP3   OH271694   5.103   1.872   1.868 -0.1819 -0.0812  0.0348
16760TIP3    H171695   5.195   1.885   1.845 -0.6937  2.0785 -0.9742
16760TIP3    H271696   5.102   1.871   1.964  0.5611  3.4240  0.2010
16761TIP3   OH271697   2.295   6.724   1.527  0.7594 -0.0786 -0.7026
16761TIP3    H171698   2.266   6.642   1.569 -1.0694  0.9280  0.1249
16761TIP3    H271699   2.268   6.714   1.435 -2.3167  0.7327 -0.0132
16762TIP3   OH271700   0.286   0.722  12.789 -0.1613 -0.0097  0.0056
16762TIP3    H171701   0.281   0.727  12.884 -1.8754  0.7618 -0.0832
16762TIP3    H271702   0.202   0.757  12.759  0.8068  0.8883 -1.8185
16763TIP3   OH271703   2.856   2.541   4.973 -0.1926 -0.0416 -0.5435
16763TIP3    H171704   2.870   2.613   4.911 -0.2047  0.4650  0.0413
16763TIP3    H271705   2.944   2.508   4.991 -0.2591 -0.7962 -1.5397
16764TIP3   OH271706   2.173   1.781  12.653 -0.2611  0.1676  0.1610
16764TIP3    H171707   2.161   1.867  12.611  0.6054 -0.6350 -1.8635
16764TIP3    H271708   2.265   1.781  12.680 -0.5921  0.3386  1.3261
16765TIP3   OH271709   1.680   0.090   0.473  0.1899 -0.3924 -0.8584
16765TIP3    H171710   1.731   0.030   0.528  0.1610 -0.7947 -1.2664
16765TIP3    H271711   1.703   0.177   0.505 -0.0003 -0.6274 -0.0510
16766TIP3   OH271712   6.064   0.166  12.574 -0.6535  0.0419  0.0735
16766TIP3    H171713   6.014   0.089  12.601 -1.3000  0.4267 -0.0266
16766TIP3    H271714   6.021   0.240  12.617 -0.0794  0.3597  0.1098
16767TIP3   OH271715   1.957   2.073  15.604 -0.3375  0.1864 -0.1042
16767TIP3    H171716   2.046   2.108  15.605 -0.2160 -0.1262  0.3496
16767TIP3    H271717   1.922   2.095  15.691 -0.5542 -0.0580 -0.1280
16768TIP3   OH271718   1.566   2.409   0.425 -0.1399 -0.2156 -0.1962
16768TIP3    H171719   1.476   2.384   0.449 -0.9083  0.9000 -1.7038
16768TIP3    H271720   1.599   2.334   0.376 -1.2397  0.3161 -1.8695
16769TIP3   OH271721   0.530   5.991   4.019 -1.0279  0.1201 -0.1643
16769TIP3    H171722   0.553   5.963   3.930 -1.1178  3.4908 -1.3866
16769TIP3    H271723   0.613   5.988   4.067 -0.3730  0.8696 -1.1886
16770TIP3   OH271724   1.293   4.248  16.554  0.2482 -0.4155  0.2130
16770TIP3    H171725   1.362   4.307  16.585  0.2327 -0.1857 -0.1826
16770TIP3    H271726   1.317   4.162  16.590  1.4132 -0.5933 -0.9333
16771TIP3   OH271727   3.807   2.608  15.829 -0.2287 -0.0786  0.0641
16771TIP3    H171728   3.883   2.649  15.788  0.5114 -1.2225  0.2585
16771TIP3    H271729   3.763   2.680  15.875  1.5454  0.3630  1.1679
16772TIP3   OH271730   1.761   6.754  16.215 -0.0705  0.2881  0.0494
16772TIP3    H171731   1.679   6.726  16.255 -0.3212  1.6805  0.5592
16772TIP3    H271732   1.741   6.757  16.121 -1.4544  3.0892  0.3378
16773TIP3   OH271733   3.689   3.445   0.047 -0.1792  0.0353  0.3861
16773TIP3    H171734   3.670   3.533   0.016  1.7376  0.2777 -0.2485
16773TIP3    H271735   3.713   3.396  -0.032  1.1562 -0.3470  0.9948
16774TIP3   OH271736   5.823   2.953  12.158  0.7108 -0.2783  0.5162
16774TIP3    H171737   5.807   2.914  12.244 -0.3453  0.2626  0.5848
16774TIP3    H271738   5.815   2.880  12.097 -2.7887 -0.0528  0.4794
16775TIP3   OH271739   6.573   6.148  15.619 -0.4079 -0.3628  0.6593
16775TIP3    H171740   6.504   6.206  15.589 -0.3642 -0.8350 -0.3694
16775TIP3    H271741   6.652   6.203  15.621 -0.8902  0.3704  2.5080
16776TIP3   OH271742   6.555   1.097  13.827 -0.1317 -0.2491  0.5420
16776TIP3    H171743   6.550   1.180  13.875  0.2971  0.2829 -0.3020
16776TIP3    H271744   6.624   1.111  13.762 -2.8274  0.2942 -2.4991
16777TIP3   OH271745   1.734   1.168   6.779 -0.3714 -0.3083 -0.5074
16777TIP3    H171746   1.775   1.097   6.730  1.0249  1.3136 -1.8523
16777TIP3    H271747   1.805   1.230   6.795 -1.1165 -0.0546  2.3391
16778TIP3   OH271748   4.797   0.554   4.232 -0.0437 -0.0584  0.1467
16778TIP3    H171749   4.821   0.481   4.176  0.8262  0.1704  0.2009
16778TIP3    H271750   4.708   0.535   4.261 -0.7640  0.1346 -1.8278
16779TIP3   OH271751   2.536   2.185  13.097  0.0324 -0.2701 -0.0786
16779TIP3    H171752   2.494   2.253  13.148  0.2114 -0.0971 -0.1618
16779TIP3    H271753   2.570   2.123  13.162  1.1409  0.4592  0.0586
16780TIP3   OH271754   3.042   4.107   4.695 -0.1939 -0.0271  0.7193
16780TIP3    H171755   2.988   4.122   4.772 -1.9253  2.7866 -0.8384
16780TIP3    H271756   3.110   4.174   4.700  0.1208 -0.2948  0.1624
16781TIP3   OH271757   0.531   5.257   0.154  0.4689  0.5315  0.9477
16781TIP3    H171758   0.448   5.244   0.199 -0.3999  3.7032  0.4872
16781TIP3    H271759   0.545   5.351   0.156  2.1861  0.4898 -2.2228
16782TIP3   OH271760   1.139   1.817  14.555  0.2017 -0.0882 -0.2888
16782TIP3    H171761   1.215   1.791  14.503 -0.0075  0.5040 -0.9038
16782TIP3    H271762   1.120   1.741  14.610  0.8349 -0.4763 -0.5998
16783TIP3   OH271763   5.729   0.196  12.421  0.4412 -0.0635 -0.1718
16783TIP3    H171764   5.752   0.288  12.428  0.6326 -0.1010 -0.3013
16783TIP3    H271765   5.796   0.150  12.473  0.2075 -0.1095  0.0908
16784TIP3   OH271766   2.111   4.941  13.456 -0.0862 -0.7014  0.0357
16784TIP3    H171767   2.126   4.915  13.365  0.5539  0.0053 -0.0728
16784TIP3    H271768   2.031   4.896  13.482 -0.2009 -1.0043 -0.8388
16785TIP3   OH271769   4.743   2.290  16.576  0.5373  0.4386  0.1841
16785TIP3    H171770   4.731   2.352  16.504  0.4194  0.3655  0.1402
16785TIP3    H271771   4.760   2.206  16.534 -2.7383 -0.3362  0.1287
16786TIP3   OH271772   6.770   2.892   4.663 -0.2849  0.2749 -0.0231
16786TIP3    H171773   6.731   2.917   4.579  0.1255  1.8749  0.2387
16786TIP3    H271774   6.848   2.842   4.639 -1.2439 -1.0432 -0.5580
16787TIP3   OH271775   3.175   0.858  13.929 -0.1595 -0.0388 -0.0323
16787TIP3    H171776   3.175   0.945  13.968  1.4671  0.3589 -0.8276
16787TIP3    H271777   3.107   0.861  13.862  0.4071  0.9101 -0.5924
16788TIP3   OH271778   5.180   6.329   4.641 -0.5973 -0.2472  0.2694
16788TIP3    H171779   5.108   6.266   4.642  0.0174 -1.0958 -2.1047
16788TIP3    H271780   5.259   6.276   4.629 -0.0760  0.9374 -2.0323
16789TIP3   OH271781   0.372   5.347   3.441  0.1125  0.0435  0.6397
16789TIP3    H171782   0.405   5.381   3.357 -0.5843 -2.7470 -0.8752
16789TIP3    H271783   0.451   5.338   3.495  1.2216 -1.6664 -1.1086
16790TIP3   OH271784   5.185   6.366   4.953 -0.1860 -0.0328 -0.1435
16790TIP3    H171785   5.100   6.365   4.908  0.2420  1.3235 -1.0371
16790TIP3    H271786   5.195   6.456   4.983  1.4846  0.1726 -1.1770
16791TIP3   OH271787   4.914   5.388   1.331  0.3100 -0.2329 -0.6658
16791TIP3    H171788   4.910   5.483   1.342 -0.0901 -0.0283 -2.2123
16791TIP3    H271789   4.896   5.353   1.418 -1.5817  1.1095 -0.4326
16792TIP3   OH271790   1.346   0.675   1.698 -0.1496  0.6857 -0.5876
16792TIP3    H171791   1.397   0.753   1.676  0.6638  0.5850  0.7681
16792TIP3    H271792   1.381   0.648   1.783 -2.1984  0.3596  0.1979
16793TIP3   OH271793   3.355   3.354   3.120  0.4149  0.4456  0.4999
16793TIP3    H171794   3.391   3.434   3.082  1.0273 -0.0896 -0.0568
16793TIP3    H271795   3.316   3.383   3.203 -2.5227  1.9744 -1.2230
16794TIP3   OH271796   4.600   4.546   2.352  0.1556 -0.1410  0.2657
16794TIP3    H171797   4.530   4.504   2.402  0.2676 -1.8254 -0.8803
16794TIP3    H271798   4.589   4.640   2.369 -1.0323 -0.5107  1.7976
16795TIP3   OH271799   2.252   6.034   6.197 -0.2856 -0.2792  0.1606
16795TIP3    H171800   2.326   6.075   6.242  0.3198  0.0594 -1.0861
16795TIP3    H271801   2.265   5.940   6.210  0.5406 -0.2361 -0.2837
16796TIP3   OH271802   4.339   4.155  12.604  0.0008  0.0972  0.4597
16796TIP3    H171803   4.435   4.160  12.610  0.2983 -2.3441 -0.8638
16796TIP3    H271804   4.322   4.065  12.576 -2.6864  0.5839  0.2998
16797TIP3   OH271805   0.158   3.900  16.779  0.4418  0.0105  0.0577
16797TIP3    H171806   0.105   3.839  16.728  0.3395  0.2157 -0.0858
16797TIP3    H271807   0.111   3.908  16.862  0.3924 -0.0164  0.0328
16798TIP3   OH271808   0.064   5.837  12.299  0.6510  0.7367 -0.1173
16798TIP3    H171809   0.088   5.780  12.372 -0.6038  0.2524 -0.0505
16798TIP3    H271810  -0.021   5.873  12.324  0.7725  1.5217 -0.8021
16799TIP3   OH271811   0.167   6.596   0.058 -0.6449 -0.1991 -0.5222
16799TIP3    H171812   0.227   6.552  -0.002 -1.8221  0.4216 -2.2354
16799TIP3    H271813   0.121   6.660   0.003 -2.0890  0.1075  0.9586
16800TIP3   OH271814   5.195   2.537   2.068 -0.1325  0.0917 -0.4220
16800TIP3    H171815   5.232   2.467   2.122  1.4400  1.9761  1.0880
16800TIP3    H271816   5.108   2.552   2.105  0.3798  0.4080  0.6947
16801TIP3   OH271817   2.590   3.914  12.899 -0.5550 -0.1464 -0.8041
16801TIP3    H171818   2.499   3.889  12.881 -0.2302 -0.9816 -1.3703
16801TIP3    H271819   2.585   3.964  12.980 -1.5844  0.2511 -1.0925
16802TIP3   OH271820   1.136   4.456   1.546 -0.0104 -0.2558 -0.0535
16802TIP3    H171821   1.228   4.428   1.543  0.0202 -0.5365  1.8988
16802TIP3    H271822   1.090   4.394   1.491  0.6021 -1.8925  1.1879
16803TIP3   OH271823   5.815   1.223  14.907 -0.2361 -0.1508  0.4953
16803TIP3    H171824   5.889   1.283  14.915 -0.7314  0.3920  1.1044
16803TIP3    H271825   5.761   1.261  14.838  0.3901 -0.9295 -0.4554
16804TIP3   OH271826   2.707   5.890   5.850 -0.0577 -0.1154  0.3154
16804TIP3    H171827   2.662   5.807   5.864 -1.4939  0.4970 -0.5040
16804TIP3    H271828   2.658   5.953   5.903  0.9925  0.2413  0.8949
16805TIP3   OH271829   0.553   2.316  13.192 -0.0192 -0.0412 -0.1450
16805TIP3    H171830   0.503   2.299  13.272  1.8407 -1.2587  0.8192
16805TIP3    H271831   0.540   2.409  13.174 -1.1784  0.0503  1.0564
16806TIP3   OH271832   0.398   0.293  13.696 -0.2131 -0.3387  0.3048
16806TIP3    H171833   0.465   0.360  13.684  1.0659 -1.4102  1.3131
16806TIP3    H271834   0.368   0.304  13.786 -1.2591 -0.0142 -0.0667
16807TIP3   OH271835   4.628   3.321  12.216 -0.2250 -0.1649  0.5642
16807TIP3    H171836   4.712   3.283  12.191 -0.8402 -0.6148 -0.9485
16807TIP3    H271837   4.614   3.392  12.152 -1.6464 -1.0469 -0.1426
16808TIP3   OH271838   0.861   4.973   1.869  0.4299 -0.6310  0.0011
16808TIP3    H171839   0.901   4.975   1.783  0.5303  1.5265  0.0435
16808TIP3    H271840   0.767   4.959   1.852  0.0765  2.0348 -0.6960
16809TIP3   OH271841   1.816   5.135   5.512 -0.0046 -0.0604  0.0020
16809TIP3    H171842   1.840   5.046   5.540 -1.8108 -0.7358 -0.4358
16809TIP3    H271843   1.866   5.149   5.432  0.7243 -0.4579  0.3792
16810TIP3   OH271844   3.788   5.732   5.425 -0.0373  0.5389 -0.0249
16810TIP3    H171845   3.769   5.758   5.515  0.2323  0.9215 -0.0740
16810TIP3    H271846   3.800   5.815   5.379  0.7099  0.3265 -0.2176
16811TIP3   OH271847   4.967   3.139   4.609  0.4221 -0.4573 -0.1846
16811TIP3    H171848   5.006   3.084   4.677 -0.2002  0.0017  0.5575
16811TIP3    H271849   4.920   3.207   4.657  0.5984  0.3173 -1.0874
16812TIP3   OH271850   0.709   2.911  10.469 -0.4241 -0.6242  0.3005
16812TIP3    H171851   0.804   2.916  10.462 -0.5337  0.7783 -0.4395
16812TIP3    H271852   0.684   2.983  10.526 -1.0882 -0.6329  0.0407
16813TIP3   OH271853   0.564   3.435  14.846 -0.6455  0.2051  0.7155
16813TIP3    H171854   0.579   3.477  14.762 -0.6120  0.1000  0.6685
16813TIP3    H271855   0.498   3.489  14.889 -0.2144  0.6104  0.8797
16814TIP3   OH271856   0.644   3.087   5.612 -0.3450 -0.1110 -0.0774
16814TIP3    H171857   0.682   3.123   5.533 -0.7874  0.3270 -0.0950
16814TIP3    H271858   0.613   3.000   5.587  2.0990 -1.2032  0.3416
16815TIP3   OH271859   2.280   3.829  13.789  0.1673  0.6472  0.3471
16815TIP3    H171860   2.348   3.804  13.852  1.4357 -1.2191 -1.6061
16815TIP3    H271861   2.256   3.747  13.746 -0.2478  1.9040 -1.9681
16816TIP3   OH271862   0.835   6.590   5.618  0.7649  0.2922  0.4326
16816TIP3    H171863   0.900   6.521   5.608 -0.7031 -0.8005 -2.7458
16816TIP3    H271864   0.763   6.549   5.667  1.1171  0.5510  1.1906
16817TIP3   OH271865   4.797   2.849  16.163 -0.2049 -0.0899 -0.5065
16817TIP3    H171866   4.817   2.782  16.228  2.0319 -0.6812 -1.7125
16817TIP3    H271867   4.810   2.932  16.208  1.0098 -0.4923 -0.0906
16818TIP3   OH271868   4.542   3.791   1.124  0.0623  0.1813 -0.4388
16818TIP3    H171869   4.596   3.741   1.062 -2.6411 -1.4159 -1.6676
16818TIP3    H271870   4.515   3.726   1.189 -0.2036  1.0024  0.2890
16819TIP3   OH271871   2.677   0.918   0.602 -0.0188  0.0854  0.0245
16819TIP3    H171872   2.650   1.002   0.638  3.1481  0.6446  1.3506
16819TIP3    H271873   2.642   0.918   0.513  0.7733  3.2693 -0.3948
16820TIP3   OH271874   1.367   5.032  13.714  0.1907  0.4416 -0.4722
16820TIP3    H171875   1.308   4.959  13.726  1.8186 -1.6243 -3.5826
16820TIP3    H271876   1.334   5.100  13.773 -0.4939 -3.1915  3.8490
16821TIP3   OH271877   1.993   3.631   2.002  0.2114  0.3143  0.6152
16821TIP3    H171878   1.927   3.574   1.963  1.3342  0.6295 -1.9258
16821TIP3    H271879   1.966   3.639   2.094 -2.2019 -1.0507  0.1186
16822TIP3   OH271880   3.213   5.460  14.954 -0.8708 -0.7877 -0.3695
16822TIP3    H171881   3.206   5.384  14.897 -0.2879  0.8847 -2.8615
16822TIP3    H271882   3.279   5.436  15.018 -2.1519 -3.0576  0.2164
16823TIP3   OH271883   5.610   2.148   1.076 -0.2120  0.7610  0.3498
16823TIP3    H171884   5.577   2.072   1.124 -0.4384  1.1650  0.8418
16823TIP3    H271885   5.679   2.183   1.132  0.4715  0.4375 -0.2661
16824TIP3   OH271886   3.011   4.909  13.820  0.3405 -0.7326  0.7462
16824TIP3    H171887   3.089   4.894  13.872  1.8887 -0.4464 -1.3317
16824TIP3    H271888   2.987   5.000  13.839  0.8204 -0.6610  1.0296
16825TIP3   OH271889   0.192   4.867   1.950  0.4176 -0.2044 -0.0258
16825TIP3    H171890   0.116   4.851   1.894  1.1046 -1.9582 -0.5415
16825TIP3    H271891   0.175   4.815   2.029 -0.9334  2.8668  1.9134
16826TIP3   OH271892   1.020   6.312   0.750  0.2165 -0.5021 -0.0366
16826TIP3    H171893   1.069   6.287   0.671  1.1496 -0.4341  0.5100
16826TIP3    H271894   0.950   6.369   0.717  1.9445  1.4030 -0.6069
16827TIP3   OH271895   3.435   6.455  12.734 -0.1594 -0.4119  0.3460
16827TIP3    H171896   3.420   6.518  12.664  0.8527  0.3798  0.8188
16827TIP3    H271897   3.479   6.382  12.690 -0.4241 -0.3539 -0.0226
16828TIP3   OH271898   4.095   5.081   4.244  0.3473  0.1298  0.4321
16828TIP3    H171899   4.063   5.153   4.297  0.9527 -0.4535  1.6212
16828TIP3    H271900   4.101   5.117   4.155  2.3048  2.0826  1.2713
16829TIP3   OH271901   0.837   5.953   6.824 -0.2646 -0.2038 -0.1075
16829TIP3    H171902   0.766   5.901   6.786  0.7071 -0.9673 -0.9099
16829TIP3    H271903   0.891   5.889   6.871 -0.1898  0.3973  0.6397
16830TIP3   OH271904   6.229   1.815  13.695 -0.0043 -0.3880 -0.3817
16830TIP3    H171905   6.163   1.763  13.649  0.8143  0.0829 -2.1912
16830TIP3    H271906   6.214   1.904  13.664 -0.0021  0.1132  1.0058
16831TIP3   OH271907   3.617   5.246  11.173  0.1121  0.1844  0.2692
16831TIP3    H171908   3.695   5.296  11.150  0.4088 -0.4679 -0.1651
16831TIP3    H271909   3.605   5.184  11.100  1.3402 -2.2863  2.0340
16832TIP3   OH271910   5.803   5.141   5.519 -0.1876 -0.5294 -0.1845
16832TIP3    H171911   5.846   5.110   5.599 -2.6968 -0.0959  1.4351
16832TIP3    H271912   5.814   5.236   5.521  2.1388 -0.6952 -1.8945
16833TIP3   OH271913   2.292   1.710   2.387 -0.1948 -0.0461  0.0529
16833TIP3    H171914   2.317   1.621   2.362  0.4091 -0.1396  0.9318
16833TIP3    H271915   2.197   1.714   2.375  0.0819  0.1138 -2.7931
16834TIP3   OH271916   1.395   0.048  15.636 -0.0864 -0.0177  0.1802
16834TIP3    H171917   1.453   0.121  15.656 -0.9514  0.4336  1.1366
16834TIP3    H271918   1.454  -0.027  15.624  0.8510  0.9291 -1.4301
16835TIP3   OH271919   6.342   1.571  11.906  0.2347 -0.2741 -0.3181
16835TIP3    H171920   6.391   1.576  11.823 -1.4369 -3.6467 -1.7475
16835TIP3    H271921   6.278   1.642  11.900  0.6264  0.0135 -1.5925
16836TIP3   OH271922   4.082   4.710  11.922 -0.4802 -0.3689 -0.4535
16836TIP3    H171923   4.072   4.619  11.895 -1.0210 -0.6556  0.6379
16836TIP3    H271924   4.005   4.727  11.977  0.0038  0.5073 -0.0249
16837TIP3   OH271925   0.161   5.996  14.379  0.6250 -0.0124 -0.0151
16837TIP3    H171926   0.117   6.013  14.296  0.8833  0.9212  0.0278
16837TIP3    H271927   0.247   6.038  14.370  1.9000 -2.4748 -0.4127
16838TIP3   OH271928   2.265   5.925   3.563  0.5592  0.5691  0.1451
16838TIP3    H171929   2.321   5.996   3.593 -0.5529  0.8203  1.8164
16838TIP3    H271930   2.267   5.861   3.635 -1.2267  0.5911  0.2783
16839TIP3   OH271931   3.621   3.298  13.543  0.4767 -0.1622  0.1108
16839TIP3    H171932   3.696   3.244  13.519  0.1577 -0.1667 -0.9278
16839TIP3    H271933   3.652   3.388  13.532  0.8374 -0.1338  1.3039
16840TIP3   OH271934   4.318   5.690  13.643 -0.4889 -0.4454 -0.0944
16840TIP3    H171935   4.373   5.747  13.589  0.0521  0.4188  1.3049
16840TIP3    H271936   4.357   5.603  13.633 -0.3935 -0.2932 -1.0746
16841TIP3   OH271937   2.476   6.340   3.837  0.3827  0.1695  0.0083
16841TIP3    H171938   2.402   6.400   3.844  0.2662 -0.0191  0.4213
16841TIP3    H271939   2.552   6.396   3.829  0.0979  0.3809 -1.7174
16842TIP3   OH271940   1.126   5.428  13.495 -0.1912 -0.1288  0.2405
16842TIP3    H171941   1.118   5.337  13.525  0.5618 -0.3676 -0.2671
16842TIP3    H271942   1.088   5.428  13.407 -1.4910  0.3616  0.7839
16843TIP3   OH271943   0.769   3.353   5.270  0.0981  0.1135  0.3264
16843TIP3    H171944   0.815   3.304   5.337  0.9218  0.6733  0.1813
16843TIP3    H271945   0.707   3.407   5.318 -0.4905 -0.7094  0.5149
16844TIP3   OH271946   6.616   3.509  14.098  0.4575 -0.5429  0.1833
16844TIP3    H171947   6.633   3.524  14.191  0.8602 -0.3990  0.0873
16844TIP3    H271948   6.579   3.592  14.067  1.3307 -0.2163 -0.0214
16845TIP3   OH271949   4.593   6.568   3.225 -0.1136  0.2358 -0.4246
16845TIP3    H171950   4.550   6.626   3.161  0.5412  1.5737  0.3042
16845TIP3    H271951   4.556   6.593   3.309 -1.0580 -1.5978 -0.2399
16846TIP3   OH271952   1.242   0.429   5.639  0.2528  0.3773  0.0647
16846TIP3    H171953   1.251   0.441   5.544  0.9731 -0.4486  0.0167
16846TIP3    H271954   1.214   0.514   5.671 -0.3340  0.5793 -0.9345
16847TIP3   OH271955   6.337   1.459  13.706  0.5032 -0.3296  0.1517
16847TIP3    H171956   6.306   1.454  13.615 -0.3183  0.0388  0.4040
16847TIP3    H271957   6.260   1.485  13.756  1.3466  1.1011  0.7418
16848TIP3   OH271958   3.534   0.061   0.239  0.3072 -0.2037  0.4695
16848TIP3    H171959   3.459   0.013   0.203  0.1735 -1.8849  2.7312
16848TIP3    H271960   3.501   0.149   0.253 -0.2992 -0.1122 -1.2775
16849TIP3   OH271961   0.079   5.560  15.904  0.2613 -0.6314  0.0555
16849TIP3    H171962   0.156   5.597  15.863  1.0292 -0.4483  1.5796
16849TIP3    H271963   0.079   5.468  15.876  0.9136 -0.5805 -0.1298
16850TIP3   OH271964   0.018   4.153   2.068  0.3542  0.5959 -0.1582
16850TIP3    H171965  -0.064   4.169   2.021 -0.5032  1.0890  1.4678
16850TIP3    H271966  -0.008   4.113   2.150  1.8656 -0.6373 -0.2221
16851TIP3   OH271967   3.039   0.913   4.778 -0.2807  0.3465  0.2815
16851TIP3    H171968   3.012   0.893   4.867  0.5315 -1.8982  0.0998
16851TIP3    H271969   3.135   0.914   4.781 -0.2255 -0.3451 -0.6343
16852TIP3   OH271970   3.064   6.540  14.493 -0.5985 -0.2783  0.1848
16852TIP3    H171971   3.010   6.561  14.569 -1.3866  1.8411 -0.8508
16852TIP3    H271972   3.138   6.600  14.500  0.8624 -2.0646  0.7442
16853TIP3   OH271973   5.458   1.767  16.742 -0.0116  0.2218  0.3762
16853TIP3    H171974   5.478   1.858  16.721  1.3482 -0.2372 -0.4522
16853TIP3    H271975   5.516   1.746  16.815  0.1644 -0.1633  0.1291
16854TIP3   OH271976   4.300   3.561  12.526 -0.3069  0.2954  0.3281
16854TIP3    H171977   4.390   3.528  12.534 -0.4457  0.2597  2.2221
16854TIP3    H271978   4.309   3.644  12.478  0.5947 -0.1839 -0.3710
16855TIP3   OH271979   2.173   0.694   3.400  0.5147 -0.0684  0.3098
16855TIP3    H171980   2.148   0.612   3.357 -2.7531 -0.3710  2.4251
16855TIP3    H271981   2.124   0.761   3.353 -1.8872 -0.2268  2.3799
16856TIP3   OH271982   1.082   4.034   4.572 -0.1458 -0.3947 -0.0544
16856TIP3    H171983   1.015   4.101   4.578 -0.4374 -0.7255  0.5132
16856TIP3    H271984   1.056   3.968   4.636  1.5422  0.2092  1.3605
16857TIP3   OH271985   6.614   3.439  12.208  0.6665  0.4294 -0.2741
16857TIP3    H171986   6.575   3.397  12.284  0.0321  1.0720 -0.2310
16857TIP3    H271987   6.603   3.375  12.137 -0.1258  0.4399 -0.1706
16858TIP3   OH271988   4.060   6.785   1.326 -0.1679  1.4430 -0.1681
16858TIP3    H171989   4.012   6.709   1.293 -1.4264  1.3368  1.7664
16858TIP3    H271990   3.995   6.836   1.374  1.3138  2.1292  1.1888
16859TIP3   OH271991   0.698   5.301  11.783  0.0542  0.1729 -0.2919
16859TIP3    H171992   0.690   5.393  11.759  0.0085 -0.0338 -1.1045
16859TIP3    H271993   0.645   5.292  11.862  0.4974  0.9552  0.1021
16860TIP3   OH271994   2.419   6.656  10.591  0.0718  0.2827  0.5553
16860TIP3    H171995   2.394   6.601  10.666 -1.3786  1.4673  0.9680
16860TIP3    H271996   2.338   6.694  10.560  0.8170  0.7709 -0.8987
16861TIP3   OH271997   4.447   4.841  16.145 -0.3722 -0.1272 -0.6532
16861TIP3    H171998   4.365   4.883  16.120 -1.3099 -1.6767 -0.3189
16861TIP3    H271999   4.494   4.829  16.063 -1.1157 -0.4830 -1.0419
16862TIP3   OH272000   6.409   2.045   3.694 -0.2053 -0.4917  0.2688
16862TIP3    H172001   6.468   2.041   3.769  0.7529  0.4575 -0.4108
16862TIP3    H272002   6.448   2.110   3.636 -1.9898  0.2836 -0.1482
16863TIP3   OH272003   5.102   1.774  15.630 -0.3182  0.1816  0.3093
16863TIP3    H172004   5.147   1.754  15.548 -1.3805 -0.8050 -0.0630
16863TIP3    H272005   5.024   1.823  15.604 -0.7647 -0.3015  0.7016
16864TIP3   OH272006   5.708   5.062   4.488 -0.3640  0.1047 -0.2020
16864TIP3    H172007   5.765   5.004   4.538  0.1078 -0.1791 -1.0441
16864TIP3    H272008   5.743   5.059   4.399 -0.3474  1.6779 -0.2784
16865TIP3   OH272009   6.201   1.834   0.023 -0.1069  0.6406 -0.0537
16865TIP3    H172010   6.263   1.896  -0.015 -0.1997  0.3450 -0.7114
16865TIP3    H272011   6.239   1.809   0.107 -0.0415  1.5353  0.1835
16866TIP3   OH272012   5.056   1.274   3.348  0.0158 -0.7747 -0.2617
16866TIP3    H172013   5.019   1.229   3.425  0.4526 -0.8422 -0.0899
16866TIP3    H272014   5.151   1.262   3.357  0.2362  1.1329  0.3955
16867TIP3   OH272015   3.973   6.460  16.274 -1.0098 -0.2065 -0.0015
16867TIP3    H172016   3.985   6.543  16.320 -0.4016 -1.4431  2.1983
16867TIP3    H272017   3.884   6.463  16.240 -1.4712  0.7863  1.2581
16868TIP3   OH272018   6.256   0.385   3.225 -0.0361 -0.7739 -0.4225
16868TIP3    H172019   6.316   0.401   3.298 -0.1184 -2.1209 -0.0298
16868TIP3    H272020   6.295   0.311   3.179  0.1292  0.1945 -1.9018
16869TIP3   OH272021   1.740   0.043   4.703  0.2402  0.5291  0.5038
16869TIP3    H172022   1.660   0.092   4.723  0.4136  0.6372  0.9373
16869TIP3    H272023   1.767   0.005   4.787  1.8124  2.2282  0.8259
16870TIP3   OH272024   2.462   0.472  16.111  0.9544 -0.2348 -0.0853
16870TIP3    H172025   2.489   0.493  16.021 -0.4664 -1.6780 -0.9016
16870TIP3    H272026   2.394   0.537  16.131  1.8864  0.6376  0.2991
16871TIP3   OH272027   0.138   6.741  13.634 -0.1871 -0.3813  0.3079
16871TIP3    H172028   0.099   6.685  13.568  1.4262 -1.1391 -0.0599
16871TIP3    H272029   0.140   6.687  13.714 -1.7359  0.3782  0.8850
16872TIP3   OH272030   4.663   1.776   4.036 -0.0761  0.4019  0.4585
16872TIP3    H172031   4.623   1.863   4.033 -0.0889  0.3805 -0.3322
16872TIP3    H272032   4.736   1.781   3.975  0.3217  0.0446  0.8977
16873TIP3   OH272033   2.816   6.111   3.624  0.0584  0.5237  0.1460
16873TIP3    H172034   2.886   6.151   3.676  0.0948  1.0937 -0.3239
16873TIP3    H272035   2.758   6.184   3.603 -0.0295  0.2788 -0.4853
16874TIP3   OH272036   1.652   1.024  14.592 -0.2014 -0.0850 -0.1650
16874TIP3    H172037   1.582   1.031  14.527 -0.5612 -1.3727  0.0688
16874TIP3    H272038   1.661   0.930  14.609  0.8134  0.1351  0.6496
16875TIP3   OH272039   2.958   2.318  17.001 -0.1024  0.6440 -0.1372
16875TIP3    H172040   2.905   2.393  17.029 -0.8114  0.6566 -1.4299
16875TIP3    H272041   3.040   2.328  17.048 -0.0607  2.4358 -0.5205
16876TIP3   OH272042   4.901   3.875  14.614  0.5894 -0.0458  0.0373
16876TIP3    H172043   4.993   3.857  14.634  0.2691 -0.5736  1.1450
16876TIP3    H272044   4.889   3.844  14.524  1.4145 -0.2718 -0.0005
16877TIP3   OH272045   1.206   3.222  14.577 -0.5654 -0.2180  0.3194
16877TIP3    H172046   1.146   3.225  14.503 -0.0228  1.5353 -0.0883
16877TIP3    H272047   1.286   3.264  14.545 -0.2801  0.4787  1.8490
16878TIP3   OH272048   1.218   4.191   2.808 -0.2522  0.1562 -0.1233
16878TIP3    H172049   1.285   4.157   2.749 -1.1855 -0.3645 -0.9091
16878TIP3    H272050   1.182   4.113   2.851  1.5167  0.6196  2.4141
16879TIP3   OH272051   6.469   3.093   4.770  0.1260 -0.0336 -0.1604
16879TIP3    H172052   6.524   3.146   4.712 -0.0860 -0.2508 -0.5668
16879TIP3    H272053   6.440   3.153   4.838 -0.7857  0.5694 -1.0635
16880TIP3   OH272054   0.798   2.276  13.089  0.2034 -0.8305  0.0767
16880TIP3    H172055   0.723   2.287  13.147 -1.5575 -1.4994 -1.9430
16880TIP3    H272056   0.761   2.279  13.001  2.3580 -2.5199 -0.9876
16881TIP3   OH272057   6.098   6.331   3.486  0.1996 -0.2281 -0.2186
16881TIP3    H172058   6.168   6.391   3.460  0.0672  0.7144  1.3921
16881TIP3    H272059   6.131   6.244   3.464  2.2635  0.1063  1.2166
16882TIP3   OH272060   5.322   4.091  10.388 -0.1204 -0.5925  0.4150
16882TIP3    H172061   5.407   4.090  10.343 -1.0246 -0.8050 -1.3624
16882TIP3    H272062   5.280   4.172  10.357 -0.7775 -0.7527  0.8824
16883TIP3   OH272063   1.600   2.312   1.335  0.2876 -0.3771 -0.1955
16883TIP3    H172064   1.628   2.231   1.293 -0.2452 -0.6146 -0.0978
16883TIP3    H272065   1.618   2.298   1.428  0.2814 -0.3432 -0.1891
16884TIP3   OH272066   3.727   0.943  11.074  0.9981 -0.2055  0.2087
16884TIP3    H172067   3.743   0.919  10.983 -1.7832  0.0874 -0.4461
16884TIP3    H272068   3.715   0.859  11.119 -2.2710 -0.3470 -0.7388
16885TIP3   OH272069   0.521   0.844   3.536  0.0046 -0.3997 -0.4943
16885TIP3    H172070   0.470   0.771   3.502 -0.6747  0.1634 -0.6960
16885TIP3    H272071   0.499   0.846   3.630 -2.1167  1.2061 -0.9495
16886TIP3   OH272072   2.801   5.032   5.727 -0.3870 -0.2113 -0.2874
16886TIP3    H172073   2.857   5.000   5.798 -0.5327 -1.0232 -0.5264
16886TIP3    H272074   2.818   4.973   5.654 -2.0352 -0.9162 -0.1555
16887TIP3   OH272075   1.326   1.035  13.126 -0.2179 -0.1057  0.4039
16887TIP3    H172076   1.335   0.941  13.142  0.9372  0.0039  0.4995
16887TIP3    H272077   1.385   1.076  13.190 -0.7976  0.6899  0.4449
16888TIP3   OH272078   0.547   2.832   5.200 -0.0701 -0.0423 -0.3358
16888TIP3    H172079   0.557   2.738   5.186 -1.3133  0.1473 -3.0636
16888TIP3    H272080   0.627   2.870   5.166  0.3861 -0.0668  0.6690
16889TIP3   OH272081   0.462   2.163  14.740 -0.4718  0.6367  0.3270
16889TIP3    H172082   0.469   2.095  14.808  0.2086  0.2227 -0.1415
16889TIP3    H272083   0.460   2.114  14.658 -1.5776  1.1234  0.0510
16890TIP3   OH272084   2.453   6.414   2.649  0.1716  0.1457 -0.2217
16890TIP3    H172085   2.465   6.391   2.557 -0.1875 -0.6685 -0.0673
16890TIP3    H272086   2.399   6.344   2.685  1.9488 -0.6354  1.0931
16891TIP3   OH272087   2.603   5.056  13.699  0.0829  0.2446 -0.3236
16891TIP3    H172088   2.684   5.090  13.736 -0.2520  3.0754 -1.8870
16891TIP3    H272089   2.629   4.977  13.652  1.2840 -0.7632  1.9180
16892TIP3   OH272090   2.453   1.166   5.527  0.0757 -0.0913 -0.2287
16892TIP3    H172091   2.372   1.115   5.524  0.6695 -1.0552 -0.3287
16892TIP3    H272092   2.473   1.176   5.620 -1.1265  1.7713 -0.1204
16893TIP3   OH272093   0.802   3.298   2.028 -0.1113 -0.2304 -0.7793
16893TIP3    H172094   0.736   3.361   1.998  0.5818 -0.3456 -2.6560
16893TIP3    H272095   0.885   3.338   2.006  0.5131 -0.1611  1.4263
16894TIP3   OH272096   6.316   6.419  12.573  0.9520 -0.3781 -0.2384
16894TIP3    H172097   6.338   6.340  12.622  0.1911 -1.3382 -1.3611
16894TIP3    H272098   6.400   6.452  12.541  1.1453 -2.0999 -1.7050
16895TIP3   OH272099   4.551   1.613   2.273  0.1868 -0.4469  0.1279
16895TIP3    H172100   4.517   1.524   2.286  3.5464 -2.2435 -1.8114
16895TIP3    H272101   4.601   1.632   2.352 -1.5121  0.3428  1.0730
16896TIP3   OH272102   3.339   4.128  13.668  0.2154  0.1084  0.2239
16896TIP3    H172103   3.326   4.051  13.723 -0.3981 -1.1474 -1.5640
16896TIP3    H272104   3.367   4.092  13.583 -0.0262  1.8524 -0.6382
16897TIP3   OH272105   3.027   5.383   4.664  0.0906  0.2174 -0.1154
16897TIP3    H172106   2.993   5.462   4.706  0.2524  0.0735  0.2942
16897TIP3    H272107   2.971   5.313   4.696 -2.7687  0.6090 -3.6200
16898TIP3   OH272108   4.754   2.949  14.945 -0.4768  0.3729  0.8221
16898TIP3    H172109   4.721   3.000  15.019 -2.0946  1.3007 -0.4538
16898TIP3    H272110   4.720   2.861  14.959 -1.6986  0.8026  0.6567
16899TIP3   OH272111   0.981   6.191  15.043  0.2693  0.6886  0.0010
16899TIP3    H172112   1.012   6.256  14.979  0.1602  1.8050  1.0582
16899TIP3    H272113   0.984   6.108  14.995  0.1856  1.4890 -1.4565
16900TIP3   OH272114   3.188   6.389  13.238 -0.0462  0.1482 -0.5809
16900TIP3    H172115   3.237   6.372  13.158 -0.5124 -2.0558 -0.4503
16900TIP3    H272116   3.208   6.315  13.295  0.6311  1.8516  1.5849
16901TIP3   OH272117   2.963   3.588   4.742  0.2314  0.3244 -0.2843
16901TIP3    H172118   2.920   3.564   4.659 -0.9611  2.3217 -0.3202
16901TIP3    H272119   2.959   3.684   4.743  1.4648  0.3829  1.4650
16902TIP3   OH272120   0.789   2.863   0.806 -0.2258 -0.1020  0.1308
16902TIP3    H172121   0.730   2.918   0.754  1.0089  0.4461 -0.7484
16902TIP3    H272122   0.759   2.773   0.789 -0.9540  0.1789 -0.1045
16903TIP3   OH272123   4.723   1.578  16.073  0.2219  0.4179 -0.0421
16903TIP3    H172124   4.780   1.603  16.000 -2.2052  1.7139 -1.6016
16903TIP3    H272125   4.766   1.615  16.151  0.0173  4.1886 -1.5188
16904TIP3   OH272126   2.641   0.013  14.728  0.1262  0.3591 -0.0994
16904TIP3    H172127   2.725   0.039  14.691  0.6571 -0.3297  0.5876
16904TIP3    H272128   2.594  -0.026  14.654  1.4916 -1.7592  0.0328
16905TIP3   OH272129   2.159   4.305  16.717  0.6945  0.0206  0.1988
16905TIP3    H172130   2.081   4.269  16.759 -0.8901  2.6553 -0.2262
16905TIP3    H272131   2.160   4.265  16.630 -0.0374 -0.2904  0.3234
16906TIP3   OH272132   0.403   5.895   5.832  0.1436 -0.0093  0.4893
16906TIP3    H172133   0.462   5.928   5.900  0.5744 -0.3917  0.2973
16906TIP3    H272134   0.354   5.973   5.804  0.5048  0.2952  0.6962
16907TIP3   OH272135   6.672   1.700  11.262 -0.4259  0.0051 -0.1912
16907TIP3    H172136   6.660   1.696  11.167 -1.1229  0.0143 -0.1088
16907TIP3    H272137   6.683   1.794  11.281  0.0215 -0.0211 -0.2882
16908TIP3   OH272138   6.668   3.800   4.445 -0.3322 -0.2408 -0.2360
16908TIP3    H172139   6.708   3.882   4.472  1.9180 -2.2406  3.2288
16908TIP3    H272140   6.700   3.786   4.356  2.0019  1.0828  0.3078
16909TIP3   OH272141   3.149   2.762   3.200 -0.0458  0.1600 -0.1285
16909TIP3    H172142   3.158   2.851   3.234  0.5738  1.0320 -2.4248
16909TIP3    H272143   3.236   2.739   3.169 -0.6410 -0.4684 -1.3791
16910TIP3   OH272144   5.564   2.049   6.182  0.2514 -0.1637 -0.3604
16910TIP3    H172145   5.593   2.132   6.144  1.3487 -0.8036 -0.9443
16910TIP3    H272146   5.641   2.013   6.226 -0.0052 -1.2330 -0.7494
16911TIP3   OH272147   6.133   1.426   2.312  0.2374  0.0559  0.2250
16911TIP3    H172148   6.089   1.481   2.377 -0.6358  0.1744 -0.4454
16911TIP3    H272149   6.166   1.488   2.247  0.9456 -0.0760  0.4549
16912TIP3   OH272150   3.016   3.687  17.067 -0.2294 -1.0430 -0.3182
16912TIP3    H172151   3.050   3.611  17.115 -0.4783  0.0739  1.7035
16912TIP3    H272152   3.091   3.746  17.059 -1.2577  1.2589  3.8216
16913TIP3   OH272153   0.376   1.715  13.455  0.5812 -0.0699  0.0832
16913TIP3    H172154   0.370   1.789  13.395 -0.0969  0.4588  0.7799
16913TIP3    H272155   0.469   1.711  13.478  0.5679  0.8124  0.3341
16914TIP3   OH272156   2.122   5.715  14.214  0.1687  0.3437  0.5303
16914TIP3    H172157   2.195   5.753  14.165 -0.5906  1.6966  0.3817
16914TIP3    H272158   2.048   5.719  14.153 -0.7768  1.9972  1.7152
16915TIP3   OH272159   5.596   0.221  13.074 -0.5620  0.1052 -0.2284
16915TIP3    H172160   5.580   0.292  13.137 -0.4708 -0.1816  0.1197
16915TIP3    H272161   5.549   0.146  13.110  1.0868 -0.6191  0.5656
16916TIP3   OH272162   5.603   4.483  14.421  0.7812  0.5510 -0.0922
16916TIP3    H172163   5.647   4.553  14.470 -0.6509  1.3975  0.0470
16916TIP3    H272164   5.544   4.529  14.361 -1.1704 -0.4998  0.9221
16917TIP3   OH272165   6.541   0.142  11.140 -0.4707 -0.2236  0.0311
16917TIP3    H172166   6.592   0.063  11.124  0.4501 -0.0267  1.6663
16917TIP3    H272167   6.482   0.149  11.066 -1.5234 -3.1853  0.4674
16918TIP3   OH272168   0.667   5.255   0.500  0.2855 -0.3378 -0.5460
16918TIP3    H172169   0.692   5.219   0.585 -0.7769  0.9487  0.3649
16918TIP3    H272170   0.711   5.340   0.495 -1.8680  0.8955  0.0537
16919TIP3   OH272171   1.955   3.583  11.735  0.2235  0.4191  0.4994
16919TIP3    H172172   1.869   3.610  11.702  0.7056 -0.1393 -1.3474
16919TIP3    H272173   2.006   3.664  11.738 -0.2808  0.7109  1.3452
16920TIP3   OH272174   0.215   1.832   1.890 -0.9606 -0.2614 -0.0817
16920TIP3    H172175   0.238   1.894   1.959 -0.2274  0.3900 -0.8959
16920TIP3    H272176   0.134   1.866   1.852  0.6707  1.6231 -2.1335
16921TIP3   OH272177   3.097   0.169   4.487 -0.4456 -0.2127 -0.3320
16921TIP3    H172178   3.012   0.181   4.531 -0.3541  3.4975 -0.8299
16921TIP3    H272179   3.161   0.165   4.558 -0.7841  0.2163  0.0033
16922TIP3   OH272180   5.821   4.613   6.601 -0.2290  0.0972  0.3707
16922TIP3    H172181   5.839   4.706   6.615  0.1619  0.2490 -1.0257
16922TIP3    H272182   5.907   4.573   6.588 -0.3954 -0.4706  0.9445
16923TIP3   OH272183   1.472   3.343  12.697  0.3806  0.2204  0.3760
16923TIP3    H172184   1.515   3.330  12.781  2.1753  0.6615 -0.4290
16923TIP3    H272185   1.485   3.436  12.677 -2.6039  0.8493  0.9284
16924TIP3   OH272186   3.575   5.656   1.726  0.9166  0.3128  0.0435
16924TIP3    H172187   3.504   5.714   1.753 -0.6193 -1.0571 -0.9030
16924TIP3    H272188   3.595   5.605   1.805 -3.4100 -3.5332 -0.9236
16925TIP3   OH272189   5.966   2.057   5.240 -0.4446 -0.2065 -0.1665
16925TIP3    H172190   6.014   2.122   5.188  0.7847  0.4642  1.7152
16925TIP3    H272191   6.023   1.980   5.240 -0.8678 -0.5224 -0.5530
16926TIP3   OH272192   5.623   4.884  15.014  0.3853 -0.0383 -0.3447
16926TIP3    H172193   5.689   4.882  15.084 -1.9693 -1.9117  2.0239
16926TIP3    H272194   5.540   4.876  15.060 -1.3213 -1.4258 -3.4192
16927TIP3   OH272195   4.136   5.376  11.512 -0.1606 -0.4818 -0.5516
16927TIP3    H172196   4.086   5.456  11.525  0.1725 -0.2619 -0.6099
16927TIP3    H272197   4.207   5.382  11.575 -0.6596 -1.1725  0.0925
16928TIP3   OH272198   0.744   4.225   1.493  0.6269  0.2895 -0.0074
16928TIP3    H172199   0.792   4.298   1.452  2.3667 -0.8506 -0.0979
16928TIP3    H272200   0.696   4.265   1.565  2.1442  1.4273  0.4158
16929TIP3   OH272201   3.813   2.959  16.968  0.5010  0.4183  0.1146
16929TIP3    H172202   3.730   2.916  16.948  0.9554 -0.3215 -0.1982
16929TIP3    H272203   3.853   2.904  17.036  1.7446 -0.4982 -1.2987
16930TIP3   OH272204   1.158   6.081  11.011 -0.2555 -0.2650  0.2960
16930TIP3    H172205   1.247   6.095  10.979  0.2714 -0.0976  1.8071
16930TIP3    H272206   1.107   6.152  10.973  0.2912 -0.2278 -0.3841
16931TIP3   OH272207   2.811   2.435   3.538  0.2468  0.0960 -0.1265
16931TIP3    H172208   2.820   2.515   3.485 -0.1205  0.4280  0.2999
16931TIP3    H272209   2.830   2.464   3.627  0.1768 -0.3117  0.0217
16932TIP3   OH272210   4.277   3.098  16.867 -0.2667 -0.1688  0.0227
16932TIP3    H172211   4.279   3.166  16.934 -0.1627  1.7142 -1.7899
16932TIP3    H272212   4.197   3.049  16.884  0.4772 -0.6577  2.3406
16933TIP3   OH272213   0.925   6.590  15.988 -0.5052  0.4508  0.2042
16933TIP3    H172214   1.004   6.606  16.040 -0.3225 -1.2111  0.5008
16933TIP3    H272215   0.898   6.677  15.958  0.6051  1.2157  1.2961
16934TIP3   OH272216   0.518   6.169   5.996 -0.8333 -0.1976  0.0041
16934TIP3    H172217   0.478   6.254   6.013 -0.4756  0.0078 -0.1591
16934TIP3    H272218   0.465   6.107   6.046 -1.9010 -0.0574 -0.9072
16935TIP3   OH272219   4.996   3.234   4.189  0.4459  0.2333  0.2374
16935TIP3    H172220   5.008   3.140   4.186  2.1514  0.3739  1.2748
16935TIP3    H272221   4.907   3.246   4.224 -0.5964 -0.9332 -1.7984
16936TIP3   OH272222   4.729   6.483  12.204 -0.3753 -0.4215 -0.3265
16936TIP3    H172223   4.680   6.558  12.171 -1.1962 -1.0906 -0.6489
16936TIP3    H272224   4.793   6.464  12.135  0.6702  0.7164  0.2779
16937TIP3   OH272225   6.474   5.224   2.108 -0.0170  0.3762 -0.0139
16937TIP3    H172226   6.473   5.289   2.038  0.1230  1.8676  1.3248
16937TIP3    H272227   6.520   5.149   2.070 -2.4357 -0.0316 -2.4743
16938TIP3   OH272228   0.292   0.620  17.045  0.1622 -1.1047  0.2917
16938TIP3    H172229   0.226   0.658  17.103  0.2893 -1.4681  0.6859
16938TIP3    H272230   0.375   0.636  17.090  0.3895 -0.2704 -0.4130
16939TIP3   OH272231   5.275   0.111   3.194 -0.0216 -0.2718  0.0918
16939TIP3    H172232   5.346   0.121   3.130  0.2545 -1.0068  0.2729
16939TIP3    H272233   5.196   0.140   3.148  0.0898 -1.2615 -0.7631
16940TIP3   OH272234   5.860   5.582   2.883 -0.2236 -0.2812 -0.0100
16940TIP3    H172235   5.904   5.661   2.852 -0.3967 -0.2551 -0.1957
16940TIP3    H272236   5.826   5.541   2.803  0.2697 -0.7910  0.0393
16941TIP3   OH272237   1.899   1.274   3.215  0.5771 -0.5061 -0.2243
16941TIP3    H172238   1.906   1.230   3.300  1.2894 -0.3674 -0.2040
16941TIP3    H272239   1.964   1.344   3.219  1.1820 -0.9900 -1.1783
16942TIP3   OH272240   3.487   5.574  11.254 -0.8771 -0.8003  0.5582
16942TIP3    H172241   3.460   5.570  11.162  0.1019 -1.8039  0.2850
16942TIP3    H272242   3.405   5.575  11.303 -1.4352  0.9955 -0.3366
16943TIP3   OH272243   4.904   0.213  11.217 -0.0092  0.1253 -0.1599
16943TIP3    H172244   4.854   0.190  11.295 -1.7960 -1.5276 -1.6960
16943TIP3    H272245   4.897   0.308  11.211 -3.7958 -0.0259 -0.7103
16944TIP3   OH272246   4.798   3.843  16.531  0.3049  0.3106 -0.3034
16944TIP3    H172247   4.751   3.760  16.540 -1.8380  1.3060 -1.5459
16944TIP3    H272248   4.738   3.909  16.564  0.7759  1.6575 -1.9588
16945TIP3   OH272249   1.377   4.030  16.676  0.3942 -0.1630  0.0311
16945TIP3    H172250   1.384   3.936  16.659  0.8057 -0.3697  1.2953
16945TIP3    H272251   1.341   4.037  16.764 -0.2126  0.8765 -0.2733
16946TIP3   OH272252   0.269   3.962  12.779  0.4316  0.1662  0.6057
16946TIP3    H172253   0.343   3.924  12.731 -0.6471 -1.8895  0.4530
16946TIP3    H272254   0.297   3.962  12.870  1.1572  0.7998  0.4002
16947TIP3   OH272255   3.234   0.476   1.996  0.8630 -0.1341  0.5295
16947TIP3    H172256   3.257   0.400   2.049  2.9299  0.7038  0.9275
16947TIP3    H272257   3.208   0.543   2.060 -2.0545 -0.7433  0.1398
16948TIP3   OH272258   4.997   6.248   0.428 -0.4416 -0.5991  0.1098
16948TIP3    H172259   5.009   6.220   0.519  0.8560 -1.5556 -0.3284
16948TIP3    H272260   5.086   6.259   0.394 -0.8715 -1.6499 -1.4593
16949TIP3   OH272261   5.559   3.149   0.268  0.3217  0.1091  0.2069
16949TIP3    H172262   5.494   3.145   0.198 -1.6970 -0.4181  2.0097
16949TIP3    H272263   5.572   3.058   0.295  1.8167  0.2085 -0.0796
16950TIP3   OH272264   1.724   0.241   6.355  0.0818 -0.0588 -0.4231
16950TIP3    H172265   1.646   0.237   6.300  0.4137  0.7572 -0.9744
16950TIP3    H272266   1.700   0.298   6.428 -0.1252 -0.5570 -0.0948
16951TIP3   OH272267   1.188   4.717   4.855 -0.2899 -0.7583 -0.6046
16951TIP3    H172268   1.157   4.776   4.786 -0.8666 -1.0792 -0.6256
16951TIP3    H272269   1.116   4.714   4.918  1.1096  1.4480  1.2995
16952TIP3   OH272270   0.055   1.498   5.779  0.2860  0.3197  0.1602
16952TIP3    H172271   0.001   1.538   5.848  2.4529  0.1144  2.0930
16952TIP3    H272272   0.020   1.535   5.698 -3.0501 -0.2127  1.1995
16953TIP3   OH272273   1.638   6.203  15.718  0.1279 -0.2302  0.1862
16953TIP3    H172274   1.553   6.237  15.743  0.4353 -0.3581  1.5002
16953TIP3    H272275   1.660   6.140  15.787  2.3159  1.5286  1.2135
16954TIP3   OH272276   0.409   1.091  12.926 -0.4754  0.5700 -0.3309
16954TIP3    H172277   0.369   1.143  12.995  0.9147  0.3750  0.6571
16954TIP3    H272278   0.438   1.155  12.861  0.2702  0.9537  0.3692
16955TIP3   OH272279   6.702   5.110   1.991 -0.1704  0.0339  0.6755
16955TIP3    H172280   6.687   5.099   1.897 -1.2587  1.1137  0.6954
16955TIP3    H272281   6.726   5.202   2.001  1.4755 -0.4205  1.3063
16956TIP3   OH272282   0.000   4.036   0.555  0.8244  0.0861  0.5929
16956TIP3    H172283  -0.003   4.126   0.522 -0.1023 -0.2117 -0.1675
16956TIP3    H272284   0.059   3.991   0.496  1.3055  0.1873  0.9868
16957TIP3   OH272285   3.433   2.969   3.679  0.0961 -0.2555 -0.3684
16957TIP3    H172286   3.375   2.906   3.721 -0.7575  1.0411  0.4710
16957TIP3    H272287   3.460   3.027   3.750  0.4865  0.5991 -1.1973
16958TIP3   OH272288   4.026   1.593   3.573  0.2645  0.3988  0.1740
16958TIP3    H172289   3.962   1.608   3.643  0.1232  1.1730 -0.1136
16958TIP3    H272290   4.086   1.667   3.580  0.3617  0.3718 -0.3949
16959TIP3   OH272291   2.997   2.557   2.261  0.4564 -0.0990 -0.5227
16959TIP3    H172292   2.903   2.571   2.256  0.1215 -0.5636  2.4986
16959TIP3    H272293   3.034   2.617   2.196 -1.9069 -0.5885 -2.4640
16960TIP3   OH272294   5.381   0.554   6.254 -0.3776 -0.6437 -0.4432
16960TIP3    H172295   5.320   0.480   6.254  1.1622 -1.9713  0.5038
16960TIP3    H272296   5.459   0.520   6.210  0.2671  0.5083 -0.2227
16961TIP3   OH272297   3.693   6.477   5.845 -0.0440  0.0179 -0.2229
16961TIP3    H172298   3.776   6.434   5.827  0.9247  1.2617  1.0092
16961TIP3    H272299   3.668   6.519   5.762  0.0474 -1.1416 -0.8510
16962TIP3   OH272300   1.412   3.902  13.023 -0.1131 -0.0340 -0.1239
16962TIP3    H172301   1.427   3.846  12.947  2.2575 -0.2890  0.4320
16962TIP3    H272302   1.429   3.991  12.991 -2.0243  0.2289 -0.5461
16963TIP3   OH272303   4.046   3.096  12.035 -0.2399  0.4736  0.7217
16963TIP3    H172304   4.116   3.120  12.095  0.0656  2.5209 -0.3716
16963TIP3    H272305   3.972   3.076  12.092  0.1999  1.7910  1.8180
16964TIP3   OH272306   6.193   1.386  12.693  0.2070  0.0822  0.4298
16964TIP3    H172307   6.214   1.479  12.685  0.3918  0.1462  1.5951
16964TIP3    H272308   6.131   1.381  12.765 -0.4259 -0.6192 -0.1466
16965TIP3   OH272309   4.057   0.379   2.058  0.0276  0.4507  0.3546
16965TIP3    H172310   4.031   0.386   1.967  1.6876  1.9336 -0.0701
16965TIP3    H272311   3.997   0.438   2.105 -0.2793  0.3494  0.0885
16966TIP3   OH272312   0.715   0.244   5.387  0.2682 -1.1559  0.7973
16966TIP3    H172313   0.639   0.246   5.329  0.1964  2.4203  0.8410
16966TIP3    H272314   0.780   0.193   5.338 -0.9437 -1.2276 -0.8428
16967TIP3   OH272315   3.919   5.957   2.711 -0.0780  0.2995  0.2440
16967TIP3    H172316   3.873   5.926   2.633  1.1700  0.6823 -0.6775
16967TIP3    H272317   3.905   6.052   2.712  1.1417  0.5080 -0.3860
16968TIP3   OH272318   2.430   0.896  13.252 -0.7065  0.1659  0.1571
16968TIP3    H172319   2.482   0.863  13.179 -0.0474 -0.1039  0.7310
16968TIP3    H272320   2.460   0.845  13.327 -0.1865  1.5549  0.9313
16969TIP3   OH272321   5.647   4.547   0.862  0.2955  0.2727  0.3228
16969TIP3    H172322   5.560   4.585   0.876  0.3602  1.4374 -2.0269
16969TIP3    H272323   5.705   4.622   0.851  0.9528 -0.4624 -1.5772
16970TIP3   OH272324   4.935   5.408  12.305 -0.4943  0.2895  0.6681
16970TIP3    H172325   4.978   5.423  12.389  0.0528 -0.1065  0.4628
16970TIP3    H272326   4.940   5.493  12.260  0.4194  0.1594  0.4949
16971TIP3   OH272327   2.869   4.766   3.569  0.2790  0.0474  0.0353
16971TIP3    H172328   2.874   4.849   3.521  1.1653  0.0616  0.1419
16971TIP3    H272329   2.792   4.722   3.533  0.2681  0.5643 -0.5862
16972TIP3   OH272330   3.255   5.341   4.470  0.3748 -0.5188  0.0203
16972TIP3    H172331   3.237   5.263   4.522  0.2767 -0.6273 -0.1758
16972TIP3    H272332   3.183   5.401   4.491 -0.7127 -1.2702 -1.4021
16973TIP3   OH272333   1.100   0.473   0.509  0.1884  0.5965  0.4181
16973TIP3    H172334   1.119   0.559   0.470  0.3447 -0.1206 -1.1897
16973TIP3    H272335   1.173   0.418   0.480 -0.0157 -0.1382  1.2694
16974TIP3   OH272336   0.508   6.529  16.369 -0.2719 -0.1688  0.1070
16974TIP3    H172337   0.450   6.458  16.341  0.1442 -0.5494  0.1923
16974TIP3    H272338   0.536   6.502  16.457 -2.4663  1.5446  1.4290
16975TIP3   OH272339   1.836   0.492   4.683  0.3944 -0.2817 -0.8071
16975TIP3    H172340   1.824   0.423   4.749  0.8355  1.7915  1.6082
16975TIP3    H272341   1.762   0.550   4.695  0.3903  0.0656 -2.3305
16976TIP3   OH272342   1.010   4.689  15.151  0.2195  0.0017 -0.3249
16976TIP3    H172343   0.976   4.712  15.065  2.1175  2.6673 -0.4785
16976TIP3    H272344   1.093   4.644  15.134 -0.1375 -0.8684  0.1314
16977TIP3   OH272345   3.760   3.475  11.534 -0.1908  0.0194 -0.2835
16977TIP3    H172346   3.768   3.431  11.449  1.4029 -1.0368  0.3682
16977TIP3    H272347   3.666   3.476  11.551 -0.4437 -0.9834 -1.4545
16978TIP3   OH272348   0.273   6.777  15.071  0.6154  0.0188  0.0594
16978TIP3    H172349   0.348   6.777  15.012 -1.2533  2.3671 -2.5528
16978TIP3    H272350   0.269   6.867  15.104 -2.0305  0.5331 -1.3808
16979TIP3   OH272351   6.514   6.229   4.389  0.0314 -0.2692 -0.0707
16979TIP3    H172352   6.478   6.301   4.442  0.1990 -0.3938  0.2147
16979TIP3    H272353   6.440   6.170   4.376  0.1480 -0.5784  0.6050
16980TIP3   OH272354   5.388   4.275   0.641 -0.0337 -0.3856 -0.2820
16980TIP3    H172355   5.443   4.197   0.636 -1.3295 -1.4505  1.2572
16980TIP3    H272356   5.432   4.338   0.584  2.8159 -1.1444  0.8653
16981TIP3   OH272357   5.656   4.942  13.975  0.0021 -0.2693  0.0947
16981TIP3    H172358   5.672   4.905  14.062  1.3323  0.1200  0.0497
16981TIP3    H272359   5.675   4.871  13.914 -1.9823 -0.8775  0.1112
16982TIP3   OH272360   0.484   6.604  12.114 -0.2943  0.2936 -0.4156
16982TIP3    H172361   0.553   6.644  12.060 -1.6731  2.9122 -0.3696
16982TIP3    H272362   0.529   6.582  12.196  1.4286 -2.1412 -1.8816
16983TIP3   OH272363   6.796   6.018   5.030 -0.6825  0.0665 -0.6665
16983TIP3    H172364   6.828   6.059   4.950 -1.3021  0.9557 -0.4829
16983TIP3    H272365   6.751   5.939   5.001  1.3684 -1.0624 -0.9531
16984TIP3   OH272366   2.369   3.038  14.156 -0.1106 -0.3927  0.8804
16984TIP3    H172367   2.369   3.104  14.087  0.7269 -0.6415  0.6284
16984TIP3    H272368   2.304   3.069  14.219 -2.2230 -1.0770 -0.8624
16985TIP3   OH272369   2.435   4.159   1.935 -0.7814 -0.4356  0.8525
16985TIP3    H172370   2.386   4.221   1.880 -1.9014 -2.1677 -0.2167
16985TIP3    H272371   2.526   4.172   1.910 -1.1404 -0.2083 -0.4107
16986TIP3   OH272372   3.178   0.365  15.289 -0.1258 -0.4696 -0.2002
16986TIP3    H172373   3.150   0.455  15.274  1.0443 -0.1093 -0.2928
16986TIP3    H272374   3.239   0.346  15.218 -1.3326 -1.7995 -0.9482
16987TIP3   OH272375   4.637   1.293  12.296 -0.0863 -0.0569 -0.3540
16987TIP3    H172376   4.604   1.222  12.351  1.3173 -0.4264  0.0476
16987TIP3    H272377   4.683   1.248  12.225  1.6931  0.4113  0.4430
16988TIP3   OH272378   2.896   6.135  15.130  0.3166  0.5588  0.0394
16988TIP3    H172379   2.942   6.157  15.211  1.7841 -0.9942 -0.3195
16988TIP3    H272380   2.852   6.052  15.148  0.3667  0.3758 -0.6330
16989TIP3   OH272381   4.265   4.472  16.073 -0.1892 -0.4543  0.0040
16989TIP3    H172382   4.294   4.391  16.032 -0.5019 -0.4036 -0.3251
16989TIP3    H272383   4.213   4.516  16.006  0.1202  0.1032  0.1150
16990TIP3   OH272384   6.439   6.759  10.793  0.5076 -0.2262 -0.0660
16990TIP3    H172385   6.516   6.768  10.736 -0.0822  2.3090 -0.5747
16990TIP3    H272386   6.430   6.845  10.834 -1.7216 -0.6407  0.4117
16991TIP3   OH272387   1.977   4.850   2.001 -0.3147  0.3355 -0.4159
16991TIP3    H172388   1.936   4.931   2.033  0.4659  0.1709  1.1242
16991TIP3    H272389   2.059   4.878   1.961  0.0046  0.3131  0.2099
16992TIP3   OH272390   3.529   3.353   1.101 -0.4704 -0.5146  0.0994
16992TIP3    H172391   3.470   3.309   1.039 -0.3227 -4.5200  2.4165
16992TIP3    H272392   3.471   3.381   1.173 -0.1270 -0.2300  0.2653
16993TIP3   OH272393   2.893   4.305  14.282 -0.2186 -1.0405  0.0057
16993TIP3    H172394   2.840   4.311  14.203 -0.7646 -1.6086  0.3228
16993TIP3    H272395   2.975   4.349  14.259 -0.7131 -0.3962 -0.5794
16994TIP3   OH272396   6.324   3.337   5.684  0.2356  0.2490  0.0146
16994TIP3    H172397   6.417   3.338   5.706  0.2012  1.1983  0.1651
16994TIP3    H272398   6.297   3.429   5.688 -1.1573 -0.1705  1.8972
16995TIP3   OH272399   2.969   6.021   2.607  0.4065  0.4598 -1.0306
16995TIP3    H172400   2.953   6.000   2.515  0.8566 -0.3728 -0.9277
16995TIP3    H272401   2.949   6.115   2.614 -1.6739  0.1051 -1.5028
16996TIP3   OH272402   1.445   2.558  15.587 -0.8008  0.1626  0.1719
16996TIP3    H172403   1.504   2.535  15.515  0.7310 -1.0947  1.7641
16996TIP3    H272404   1.378   2.490  15.586  0.7453 -1.4391  1.5718
16997TIP3   OH272405   0.319   3.851   1.759 -0.2496  0.3146 -0.2787
16997TIP3    H172406   0.339   3.763   1.725 -2.6854 -1.0428  1.5134
16997TIP3    H272407   0.290   3.900   1.682 -3.1342 -1.8788 -0.7402
16998TIP3   OH272408   4.733   1.092   2.989  0.1386  0.6865  0.4608
16998TIP3    H172409   4.672   1.163   2.969  1.3944  1.4170 -0.9340
16998TIP3    H272410   4.819   1.134   2.994  0.6775 -0.4740  1.3854
16999TIP3   OH272411   4.756   3.694   1.666 -0.3475  0.2363 -0.2423
16999TIP3    H172412   4.849   3.696   1.686 -0.5181  1.7784  0.5539
16999TIP3    H272413   4.718   3.760   1.723 -2.0560 -0.8806 -0.0220
17000TIP3   OH272414   3.641   3.839   5.532  0.7640 -0.4536 -0.2483
17000TIP3    H172415   3.595   3.829   5.616 -1.2248  1.6218 -0.9969
17000TIP3    H272416   3.725   3.878   5.555  1.5923 -2.7562  1.0021
17001TIP3   OH272417   2.182   6.057   4.562 -0.0260  0.3609 -0.3341
17001TIP3    H172418   2.127   6.056   4.484  0.1636  0.9570 -0.4829
17001TIP3    H272419   2.262   6.102   4.535  0.9552 -1.3413 -0.3855
17002TIP3   OH272420   6.579   0.613   2.472 -0.1945  0.2347 -0.1579
17002TIP3    H172421   6.574   0.694   2.423 -0.3457 -0.5993 -1.5831
17002TIP3    H272422   6.493   0.572   2.461 -0.8991  0.8396  2.3606
17003TIP3   OH272423   0.237   4.202  15.887 -0.0871  0.1721 -0.9764
17003TIP3    H172424   0.188   4.126  15.856 -0.5038  1.0624 -2.6288
17003TIP3    H272425   0.225   4.268  15.819  0.5043  1.6346  0.2653
17004TIP3   OH272426   6.297   3.381   0.449  0.6808 -0.5419 -0.0768
17004TIP3    H172427   6.232   3.339   0.392 -0.4586 -0.3174  1.0104
17004TIP3    H272428   6.295   3.473   0.423 -0.2978 -0.3208  0.6993
17005TIP3   OH272429   6.485   5.504   0.699 -0.1864 -0.2258 -0.1329
17005TIP3    H172430   6.437   5.504   0.781 -0.8635  1.6357 -0.4858
17005TIP3    H272431   6.461   5.421   0.657 -0.2710 -0.9317  1.2674
17006TIP3   OH272432   3.965   2.685   0.580 -0.2240  0.0857  0.5252
17006TIP3    H172433   3.910   2.697   0.657 -0.1930 -0.3544  0.6163
17006TIP3    H272434   3.942   2.759   0.523  0.4635  0.9837  1.3665
17007TIP3   OH272435   0.161   0.193  14.505 -0.4107  0.1887  0.1359
17007TIP3    H172436   0.128   0.280  14.529 -3.1147 -1.0168  1.0989
17007TIP3    H272437   0.229   0.175  14.570 -0.6591  1.0759  0.6671
17008TIP3   OH272438   4.525   3.340  15.536 -0.1890 -0.7746 -0.3538
17008TIP3    H172439   4.570   3.257  15.523  0.6994 -0.1653 -1.3853
17008TIP3    H272440   4.442   3.317  15.579  0.7515 -1.9981  0.8590
17009TIP3   OH272441   1.233   1.156  13.877 -0.0321  0.0536  0.2471
17009TIP3    H172442   1.155   1.162  13.931 -0.1811  2.3796 -0.1234
17009TIP3    H272443   1.233   1.237  13.826  2.0778 -0.3567 -0.5008
17010TIP3   OH272444   5.285   4.569  16.626 -0.1634 -0.3213  0.0573
17010TIP3    H172445   5.334   4.625  16.686 -0.9404  1.3863 -0.8148
17010TIP3    H272446   5.341   4.562  16.548 -0.1809 -0.5443  0.0643
17011TIP3   OH272447   6.316   1.375   5.917  0.0422  0.3388 -0.6444
17011TIP3    H172448   6.228   1.406   5.939  0.7163  1.5544  0.4483
17011TIP3    H272449   6.372   1.451   5.930  1.5952 -0.9911  0.8882
17012TIP3   OH272450   2.377   1.457  16.520  0.3609 -0.6671  0.1028
17012TIP3    H172451   2.425   1.385  16.561  2.2350  1.3238  1.6554
17012TIP3    H272452   2.439   1.530  16.520 -2.3445  1.8228  1.3427
17013TIP3   OH272453   2.254   6.379  16.785  0.4494 -0.2853 -0.0484
17013TIP3    H172454   2.216   6.365  16.698  0.0499  0.4726 -0.0094
17013TIP3    H272455   2.331   6.434  16.769 -0.7969  1.6670  0.2317
17014TIP3   OH272456   4.997   3.445   2.868 -0.0852  0.0250 -0.1188
17014TIP3    H172457   4.917   3.432   2.919  0.8438 -1.0988  1.1106
17014TIP3    H272458   5.068   3.417   2.926  1.2241  0.9993 -1.1706
17015TIP3   OH272459   3.961   1.494  11.763  0.1136  0.2981  0.1968
17015TIP3    H172460   3.962   1.585  11.790  1.0251  0.3638 -0.0469
17015TIP3    H272461   4.019   1.490  11.687 -1.3442 -0.1404 -0.9561
17016TIP3   OH272462   3.687   0.639  13.366 -0.1054  0.5184  0.5909
17016TIP3    H172463   3.686   0.680  13.453 -1.0528  0.3136  0.6853
17016TIP3    H272464   3.598   0.650  13.333  0.1149  0.1392 -0.1476
17017TIP3   OH272465   0.096   5.256   3.684 -0.2060 -0.6380 -0.5028
17017TIP3    H172466   0.011   5.241   3.725 -0.3096  0.1837 -0.3989
17017TIP3    H272467   0.110   5.179   3.628 -0.1972 -1.6392  0.8230
17018TIP3   OH272468   3.121   5.376   1.040 -0.5240 -0.6748 -0.2149
17018TIP3    H172469   3.132   5.450   1.100 -0.6002 -0.3998 -0.5402
17018TIP3    H272470   3.196   5.381   0.982 -1.3390  0.0678 -1.2235
17019TIP3   OH272471   2.619   6.165   6.069  0.0103  0.0629  0.5279
17019TIP3    H172472   2.540   6.201   6.110  0.4249  1.6332 -0.0101
17019TIP3    H272473   2.628   6.078   6.109 -1.8933 -0.1049  0.7189
17020TIP3   OH272474   5.578   5.639   1.377 -0.3435  0.0706  0.0689
17020TIP3    H172475   5.561   5.664   1.287 -0.3429  0.3535  0.1461
17020TIP3    H272476   5.598   5.722   1.422 -0.5228 -0.0459  0.3654
17021TIP3   OH272477   6.729   0.253  13.129 -0.4045 -0.4356  0.3838
17021TIP3    H172478   6.763   0.200  13.057  0.0302  0.8891 -0.4364
17021TIP3    H272479   6.806   0.272  13.183 -0.6375 -0.9858  0.9283
17022TIP3   OH272480   4.269   2.461   0.234 -0.3482  0.0799 -0.2592
17022TIP3    H172481   4.361   2.486   0.246  0.1270 -2.0064  1.1650
17022TIP3    H272482   4.266   2.422   0.147  0.3247 -0.5138 -0.0271
17023TIP3   OH272483   4.582   0.964   2.636 -0.5520  0.4383  0.1659
17023TIP3    H172484   4.676   0.959   2.623 -0.3057  1.0699  1.4972
17023TIP3    H272485   4.557   0.876   2.666 -0.0379  0.7705  1.6657
17024TIP3   OH272486   4.225   3.364   5.116  0.1994 -0.0664  0.1566
17024TIP3    H172487   4.308   3.406   5.139 -0.6380  1.7885 -0.0321
17024TIP3    H272488   4.243   3.319   5.034  1.0775  0.1805  0.2014
17025TIP3   OH272489   6.284   0.414   5.695  0.2344  0.2291  0.2298
17025TIP3    H172490   6.207   0.378   5.652  0.9757 -1.0302 -0.1045
17025TIP3    H272491   6.269   0.509   5.696 -0.8223  0.0977 -0.7758
17026TIP3   OH272492   2.329   6.019  14.918  0.7368  0.3288 -0.1958
17026TIP3    H172493   2.412   6.066  14.923  1.2308 -0.3577 -1.4648
17026TIP3    H272494   2.304   6.025  14.827  0.7451 -1.7033 -0.3773
17027TIP3   OH272495   2.696   3.232  12.191 -0.1387 -0.5054  0.0976
17027TIP3    H172496   2.609   3.196  12.173 -0.7135  0.3259  1.1169
17027TIP3    H272497   2.706   3.227  12.286 -0.6701  2.8385  0.4411
17028TIP3   OH272498   5.127   4.050  14.488  0.5104 -0.3516  0.2880
17028TIP3    H172499   5.075   3.983  14.444 -0.2747  0.2613  0.2648
17028TIP3    H272500   5.064   4.118  14.511  1.1836  0.0743  0.9121
17029TIP3   OH272501   1.852   2.326  12.835 -0.7902 -0.1565 -0.0399
17029TIP3    H172502   1.837   2.278  12.917 -1.4108 -2.3029 -1.3478
17029TIP3    H272503   1.778   2.303  12.780 -1.3872  2.7837 -0.5940
17030TIP3   OH272504   4.943   0.094   0.473 -0.2796  0.0747  0.1057
17030TIP3    H172505   4.862   0.127   0.433  1.1895  0.7025 -2.5777
17030TIP3    H272506   4.983   0.171   0.513  0.2609  0.3425 -0.9254
17031TIP3   OH272507   0.136   1.571   5.230 -0.1380  0.5017 -0.6598
17031TIP3    H172508   0.047   1.606   5.237  0.0097  1.1727 -1.8543
17031TIP3    H272509   0.192   1.648   5.244  0.2663  0.0800  0.1023
17032TIP3   OH272510   6.395   1.201   0.434  0.5909 -0.4332  0.1264
17032TIP3    H172511   6.478   1.230   0.397 -0.0081  3.4947  1.4434
17032TIP3    H272512   6.331   1.214   0.364  0.7200 -1.3679 -0.1795
17033TIP3   OH272513   6.594   5.594  11.718  0.5883  0.2912 -0.5515
17033TIP3    H172514   6.630   5.532  11.654  1.1507 -1.0676  1.0299
17033TIP3    H272515   6.508   5.558  11.741  1.1896 -0.2797  0.8594
17034TIP3   OH272516   5.992   6.000   3.097 -0.2686 -0.3143  0.5594
17034TIP3    H172517   5.916   5.957   3.058 -0.9233  1.3575 -0.1245
17034TIP3    H272518   5.956   6.079   3.137  1.0351  0.2388  0.6780
17035TIP3   OH272519   0.732   1.974   1.785 -0.3778 -0.1146  0.5417
17035TIP3    H172520   0.666   1.981   1.716 -0.7541  0.7665  0.9631
17035TIP3    H272521   0.690   2.014   1.861 -0.2483 -1.7097  1.4940
17036TIP3   OH272522   3.038   0.381  13.485 -0.3311 -0.0406  0.3040
17036TIP3    H172523   3.047   0.429  13.567 -0.1529 -0.9720  0.8437
17036TIP3    H272524   3.079   0.297  13.502 -0.4973 -0.3287 -0.6733
17037TIP3   OH272525   5.316   4.989   1.207 -0.0439 -0.1544  0.4397
17037TIP3    H172526   5.265   5.062   1.172 -0.8060 -1.2148 -0.7078
17037TIP3    H272527   5.266   4.911   1.184  1.1704 -1.1023  0.9161
17038TIP3   OH272528   1.890   1.453  12.225  0.1360  0.5656 -0.1509
17038TIP3    H172529   1.815   1.425  12.173 -0.7794 -0.1098  1.4536
17038TIP3    H272530   1.895   1.548  12.212  1.0923  0.2423 -2.8631
17039TIP3   OH272531   3.621   4.038   3.157 -0.4322 -0.6582  0.4144
17039TIP3    H172532   3.655   4.063   3.070 -1.4843 -0.8087 -0.0502
17039TIP3    H272533   3.601   4.122   3.199 -0.3969 -0.5999  0.3172
17040TIP3   OH272534   0.158   4.888   4.210  0.0840 -0.0856  0.0373
17040TIP3    H172535   0.248   4.901   4.241  0.3458 -0.9376 -0.3163
17040TIP3    H272536   0.110   4.860   4.287  0.1091  0.4145  0.2372
17041TIP3   OH272537   6.534   4.150   3.062  0.7466  0.0948  0.4337
17041TIP3    H172538   6.620   4.155   3.020 -0.1124 -0.7739 -1.5006
17041TIP3    H272539   6.471   4.168   2.992 -0.6917  0.0104  1.6559
17042TIP3   OH272540   6.171   0.647   5.601  0.1153  0.0991  0.4775
17042TIP3    H172541   6.203   0.721   5.550 -1.2840  0.5399  0.1870
17042TIP3    H272542   6.104   0.606   5.545  0.2853 -0.8913  0.9661
17043TIP3   OH272543   4.502   5.826  11.061  0.1199 -0.1733  0.1700
17043TIP3    H172544   4.552   5.886  11.116 -0.3750 -0.1844  0.6325
17043TIP3    H272545   4.495   5.871  10.976  2.1084 -0.7613 -0.3569
17044TIP3   OH272546   2.302   3.265  12.290  0.3229 -0.0934  0.2965
17044TIP3    H172547   2.337   3.247  12.203 -0.9596 -0.3483 -0.1897
17044TIP3    H272548   2.340   3.197  12.346 -1.2069 -1.8754 -0.7052
17045TIP3   OH272549   5.772   6.019   6.134 -0.0056  0.2874 -0.3375
17045TIP3    H172550   5.853   6.018   6.082 -0.7422  0.1638 -1.5307
17045TIP3    H272551   5.749   5.927   6.145 -1.1363  0.3319 -1.9347
17046TIP3   OH272552   0.268   2.970  12.054  0.2058  0.2363 -0.4846
17046TIP3    H172553   0.347   2.916  12.053  1.4187  1.8993 -0.2699
17046TIP3    H272554   0.292   3.048  12.003 -1.3578  0.7077 -0.5516
17047TIP3   OH272555   4.781   6.552  13.833  0.1431 -0.5687 -0.0087
17047TIP3    H172556   4.786   6.646  13.819 -1.7873 -0.4972 -0.5975
17047TIP3    H272557   4.809   6.540  13.924  2.4488  0.2724 -0.5443
17048TIP3   OH272558   5.989   0.926  11.273  0.3475  0.4712 -0.1098
17048TIP3    H172559   6.021   0.902  11.186  0.4403  2.4903 -0.6847
17048TIP3    H272560   6.056   0.894  11.333  1.2480  0.7474 -0.9397
17049TIP3   OH272561   1.208   3.767   3.587  0.0870 -0.3543  0.3158
17049TIP3    H172562   1.158   3.714   3.649  0.6629 -0.9040  0.3216
17049TIP3    H272563   1.214   3.714   3.508 -0.9113  0.4731 -0.3373
17050TIP3   OH272564   6.500   2.218  11.944 -0.9611  0.8840 -0.3361
17050TIP3    H172565   6.577   2.181  11.989 -1.3807  0.5827  0.1385
17050TIP3    H272566   6.525   2.219  11.852 -0.5546  0.3593 -0.2363
17051TIP3   OH272567   5.201   5.102  14.292 -0.3042  0.4930 -0.0594
17051TIP3    H172568   5.151   5.120  14.371  1.1980  0.2709  0.9861
17051TIP3    H272569   5.244   5.185  14.271 -1.1132  0.6927 -0.9607
17052TIP3   OH272570   0.326   5.558  14.607 -0.7791 -0.9680 -0.4162
17052TIP3    H172571   0.414   5.524  14.622 -1.0133 -1.5151 -0.2416
17052TIP3    H272572   0.334   5.653  14.622 -0.5372 -1.2010  1.1172
17053TIP3   OH272573   6.442   3.826  15.495 -0.5270 -0.5548 -0.0972
17053TIP3    H172574   6.438   3.891  15.425 -1.6815 -0.1754  0.2984
17053TIP3    H272575   6.474   3.747  15.452 -0.3546 -0.0818 -0.8605
17054TIP3   OH272576   4.413   3.860  11.570  0.4292 -0.0365  0.3312
17054TIP3    H172577   4.470   3.804  11.623 -0.3665 -0.7748  0.4134
17054TIP3    H272578   4.459   3.944  11.567  1.5577 -0.6329  0.3484
17055TIP3   OH272579   6.275   2.027  11.967 -0.3055 -0.3353 -0.1754
17055TIP3    H172580   6.270   1.935  11.942 -0.0016 -1.0902  2.2999
17055TIP3    H272581   6.351   2.061  11.919  1.7480 -2.3120  1.4619
17056TIP3   OH272582   4.515   1.155  16.265 -0.5480  0.4419 -0.3491
17056TIP3    H172583   4.565   1.143  16.346  0.7742  2.7415 -0.7315
17056TIP3    H272584   4.581   1.171  16.198 -1.6683 -0.4682 -1.7248
17057TIP3   OH272585   2.931   3.900   1.758  0.2417 -0.1586  0.1058
17057TIP3    H172586   2.905   3.990   1.778 -2.0265 -0.6248 -0.4173
17057TIP3    H272587   2.927   3.854   1.842  0.7069  0.0636  0.2530
17058TIP3   OH272588   0.360   0.635  14.819 -0.1190  0.2791  0.1738
17058TIP3    H172589   0.417   0.690  14.765 -0.3591 -0.6789 -1.0841
17058TIP3    H272590   0.408   0.627  14.902  2.9302 -2.4900 -1.5904
17059TIP3   OH272591   6.703   3.574   3.929  0.1301  0.0092  0.2324
17059TIP3    H172592   6.784   3.546   3.971  0.1857 -0.4791 -0.1860
17059TIP3    H272593   6.725   3.582   3.837  0.4240  2.6608  0.4728
17060TIP3   OH272594   6.535   6.578  13.535  0.8937 -0.7087 -0.1846
17060TIP3    H172595   6.447   6.605  13.507  1.0306 -0.6794 -0.5988
17060TIP3    H272596   6.555   6.636  13.609  1.0822  0.1907 -0.9074
17061TIP3   OH272597   2.758   0.393   3.210 -0.0995 -0.1249  0.1793
17061TIP3    H172598   2.738   0.379   3.117 -1.4320  1.6591  0.1383
17061TIP3    H272599   2.853   0.389   3.215 -0.0346 -0.8612 -1.1502
17062TIP3   OH272600   3.567   0.805   4.176  0.3975 -0.4634 -0.0337
17062TIP3    H172601   3.573   0.714   4.147  2.1409 -0.5239  0.4223
17062TIP3    H272602   3.632   0.812   4.245  0.0334  1.0555  0.1804
17063TIP3   OH272603   3.462   3.591  15.543 -0.0809 -0.6081  0.3152
17063TIP3    H172604   3.377   3.576  15.504 -0.1879  0.9675 -0.1557
17063TIP3    H272605   3.510   3.642  15.478  0.7603 -0.4004  1.0657
17064TIP3   OH272606   5.938   5.080   1.935 -0.2032 -0.0533 -0.0114
17064TIP3    H172607   5.891   4.996   1.938 -2.7337  1.2703 -0.2408
17064TIP3    H272608   5.954   5.095   1.841 -0.3213  0.0226 -0.0193
17065TIP3   OH272609   1.646   4.547  15.646  0.4196 -0.0735 -0.3212
17065TIP3    H172610   1.653   4.590  15.731 -1.0775  1.0993 -0.7503
17065TIP3    H272611   1.719   4.582  15.595  0.9428 -0.3018  0.2565
17066TIP3   OH272612   1.909   5.425  12.893  0.6281  0.2329 -0.0643
17066TIP3    H172613   1.942   5.494  12.835  1.4623 -0.3279 -0.2810
17066TIP3    H272614   1.988   5.383  12.927  0.1395 -0.0955  0.7052
17067TIP3   OH272615   2.981   0.076  15.112 -0.4420  0.4559  0.2617
17067TIP3    H172616   2.922   0.146  15.084 -1.0798  0.1816  0.8796
17067TIP3    H272617   3.058   0.122  15.146 -1.0853  0.8991  1.1747
17068TIP3   OH272618   4.650   4.838   4.239  0.5359  0.0093  0.0834
17068TIP3    H172619   4.671   4.925   4.274 -0.1875  0.6366 -1.0088
17068TIP3    H272620   4.688   4.837   4.152 -0.3176 -0.3939 -0.2943
17069TIP3   OH272621   2.727   1.358   3.647  0.4693 -0.0335  0.7383
17069TIP3    H172622   2.657   1.420   3.627  0.1063 -0.8273 -0.5546
17069TIP3    H272623   2.711   1.283   3.589  0.3266 -1.8004  2.9055
17070TIP3   OH272624   1.248   0.093  15.182  0.2181  0.2405 -0.2918
17070TIP3    H172625   1.318   0.042  15.142  0.1780 -0.2785  0.2912
17070TIP3    H272626   1.237   0.055  15.269  0.4840  1.5185  0.3189
17071TIP3   OH272627   6.023   0.945  14.495  0.1035  0.1123 -0.5292
17071TIP3    H172628   6.018   0.870  14.436 -0.2419  0.7261 -1.3075
17071TIP3    H272629   5.985   1.017  14.444  1.9173  1.2023 -0.4068
17072TIP3   OH272630   4.629   2.519   0.032 -0.3718 -0.1935  0.1384
17072TIP3    H172631   4.573   2.574  -0.023  0.8977  1.2573  0.2280
17072TIP3    H272632   4.671   2.458  -0.029 -0.2588  0.2894 -0.2733
17073TIP3   OH272633   6.367   4.381   0.451 -0.3588  0.1275  0.5576
17073TIP3    H172634   6.444   4.432   0.474  0.3266 -0.8497  0.4847
17073TIP3    H272635   6.299   4.446   0.434  0.2194  0.9748  1.4216
17074TIP3   OH272636   0.180   2.583  17.033  0.0154 -0.7268 -0.1751
17074TIP3    H172637   0.241   2.530  16.982 -0.8245 -0.6885 -1.2623
17074TIP3    H272638   0.124   2.519  17.077 -1.0692 -0.7897 -1.5740
17075TIP3   OH272639   6.443   3.000  11.542  0.1727 -0.4590  0.2280
17075TIP3    H172640   6.368   2.983  11.486 -0.8906  1.0280  1.1293
17075TIP3    H272641   6.495   3.065  11.494  0.2968 -0.6415  0.1118
17076TIP3   OH272642   1.260   0.358   2.168  0.3067  0.2661  0.4799
17076TIP3    H172643   1.207   0.305   2.227 -0.9381  0.4628 -0.4053
17076TIP3    H272644   1.266   0.443   2.210 -0.6130  0.4189  0.3188
17077TIP3   OH272645   3.161   1.671  16.105  0.1863  0.1754  0.3519
17077TIP3    H172646   3.201   1.589  16.075 -0.9634  0.3039 -1.7489
17077TIP3    H272647   3.154   1.725  16.026 -1.3175  1.3192  1.2029
17078TIP3   OH272648   2.871   1.702   5.089 -0.0654  0.7300  0.3725
17078TIP3    H172649   2.877   1.746   5.174 -0.1624  1.9111 -0.2145
17078TIP3    H272650   2.777   1.697   5.072 -0.0170  1.2567 -0.0502
17079TIP3   OH272651   0.570   4.244   3.699  0.2187 -0.0462 -0.0516
17079TIP3    H172652   0.526   4.233   3.615 -0.2157 -1.6498  0.3571
17079TIP3    H272653   0.561   4.159   3.743 -1.1453  1.2415  2.3781
17080TIP3   OH272654   4.863   4.775  16.776  0.4568  0.6186  0.1248
17080TIP3    H172655   4.889   4.688  16.806  3.4106  1.1770 -0.5252
17080TIP3    H272656   4.798   4.759  16.708 -1.4842 -0.8897  2.1987
17081TIP3   OH272657   1.203   6.481  16.020  0.3229 -0.2488 -0.0658
17081TIP3    H172658   1.168   6.540  16.087  0.6745 -0.5524  0.3858
17081TIP3    H272659   1.273   6.531  15.978 -0.3535  0.2026 -0.6870
17082TIP3   OH272660   4.090   2.482  15.145  0.2970 -0.1115  0.4181
17082TIP3    H172661   4.078   2.504  15.053 -0.0756  2.1782  0.9470
17082TIP3    H272662   4.158   2.543  15.175  1.5971 -1.9027  1.3129
17083TIP3   OH272663   5.555   2.363  12.981  0.0382  0.5232  0.2618
17083TIP3    H172664   5.619   2.384  13.049  0.3338  0.8210 -0.1000
17083TIP3    H272665   5.596   2.295  12.929 -0.3953 -0.0657  0.6692
17084TIP3   OH272666   1.950   0.436   0.457 -0.2862  0.7650  0.1084
17084TIP3    H172667   1.922   0.350   0.489 -0.9221  1.8044  2.5281
17084TIP3    H272668   2.045   0.435   0.468 -0.4381  0.8949  1.6091
17085TIP3   OH272669   3.289   6.296   0.456 -0.1541 -0.4888  0.1341
17085TIP3    H172670   3.296   6.211   0.498  0.0542  0.3330  1.8481
17085TIP3    H272671   3.379   6.322   0.439 -0.2271 -0.7069 -0.6351
17086TIP3   OH272672   4.247   4.298   4.332 -0.0018  0.1350 -0.6328
17086TIP3    H172673   4.167   4.247   4.320 -0.7841  1.2192 -0.2257
17086TIP3    H272674   4.232   4.378   4.281  1.4852 -0.2965 -1.8420
17087TIP3   OH272675   6.460   1.007   4.376  0.0086  0.2135 -0.1037
17087TIP3    H172676   6.385   0.947   4.383 -0.0654  0.2986 -0.1687
17087TIP3    H272677   6.516   0.983   4.449  0.1191 -0.1312 -0.2969
17088TIP3   OH272678   5.157   4.424   1.773 -0.1866 -0.0295  0.1567
17088TIP3    H172679   5.161   4.330   1.755  4.4298  0.2050 -1.3877
17088TIP3    H272680   5.125   4.463   1.692  1.9892 -0.1468 -0.8342
17089TIP3   OH272681   4.170   5.099   5.154  0.1641 -0.0600 -0.1030
17089TIP3    H172682   4.159   5.005   5.167  0.2988  0.1519  1.6989
17089TIP3    H272683   4.175   5.135   5.242  0.7680  1.5677 -0.7739
17090TIP3   OH272684   3.733   2.408  14.164  0.4951 -0.0529 -0.1406
17090TIP3    H172685   3.694   2.451  14.240 -0.2439  0.5179 -0.8261
17090TIP3    H272686   3.821   2.443  14.158  0.8643 -0.7501  0.9570
17091TIP3   OH272687   4.844   4.050  12.759  0.2473  0.3053 -0.2240
17091TIP3    H172688   4.922   4.106  12.769  0.9489 -0.5259 -0.8598
17091TIP3    H272689   4.791   4.069  12.836 -0.0808  2.6708 -0.9456
17092TIP3   OH272690   3.750   5.377  14.548 -0.0938  0.0772  0.9344
17092TIP3    H172691   3.786   5.461  14.520 -0.2681 -0.4041 -0.8420
17092TIP3    H272692   3.747   5.324  14.469 -1.7013 -0.9877  1.6446
17093TIP3   OH272693   3.731   1.853  16.844 -0.3754 -0.2865 -0.1484
17093TIP3    H172694   3.665   1.783  16.841  0.0094 -0.6222 -2.6369
17093TIP3    H272695   3.696   1.915  16.908 -2.7971 -0.7725 -0.8789
17094TIP3   OH272696   5.002   3.319   3.692 -0.6094 -0.1584 -0.2545
17094TIP3    H172697   5.097   3.308   3.686 -0.1040  2.8522  0.5359
17094TIP3    H272698   4.975   3.344   3.603 -0.0114  2.3423  0.1752
17095TIP3   OH272699   2.383   4.397  16.379 -0.1392 -0.3078 -0.5078
17095TIP3    H172700   2.390   4.489  16.401 -0.0835  0.4633 -3.2998
17095TIP3    H272701   2.462   4.378  16.328 -0.6185 -1.6245 -0.8117
17096TIP3   OH272702   0.180   6.609  14.171  0.3676 -0.0270 -0.2982
17096TIP3    H172703   0.155   6.575  14.085  3.8898 -0.0303 -1.4547
17096TIP3    H272704   0.202   6.701  14.156  1.1404 -0.0545  0.5490
17097TIP3   OH272705   2.727   6.332   4.994 -0.0280 -0.1175  0.5725
17097TIP3    H172706   2.682   6.403   4.948  1.7664 -0.0817 -1.2524
17097TIP3    H272707   2.815   6.365   5.009 -0.2976 -0.4511  3.4289
17098TIP3   OH272708   1.293   5.941  11.557 -0.4273 -0.3999 -0.1353
17098TIP3    H172709   1.213   5.984  11.588 -1.0718 -0.1487 -2.0032
17098TIP3    H272710   1.345   5.927  11.636 -1.6622  0.7948  0.9438
17099TIP3   OH272711   2.307   2.608   1.548 -0.1280  0.8043 -0.0855
17099TIP3    H172712   2.286   2.667   1.619 -1.5499  0.9502 -0.5973
17099TIP3    H272713   2.401   2.590   1.558 -0.3940  0.3602  2.1440
17100TIP3   OH272714   2.861   2.681  12.120  0.0617 -0.1386 -0.6683
17100TIP3    H172715   2.932   2.729  12.076  0.4695  1.3421  1.4340
17100TIP3    H272716   2.904   2.640  12.196 -1.3092  1.0200  0.8086
17101TIP3   OH272717   6.010   6.323   1.340  0.1111  0.2619 -0.4129
17101TIP3    H172718   6.086   6.359   1.386 -0.0828  1.4855 -1.0122
17101TIP3    H272719   5.935   6.348   1.395 -0.0272  0.7703 -0.8351
17102TIP3   OH272720   1.533   3.773   2.554 -0.0479  0.0221  0.1211
17102TIP3    H172721   1.472   3.812   2.617  0.7973 -0.8973  1.5478
17102TIP3    H272722   1.546   3.683   2.585  0.7437 -0.3149 -1.1185
17103TIP3   OH272723   0.120   6.619   1.040  0.3075 -0.1451  0.4460
17103TIP3    H172724   0.040   6.638   1.088 -0.0487  1.6798 -0.7181
17103TIP3    H272725   0.090   6.590   0.954  0.8736  0.4502  0.0357
17104TIP3   OH272726   2.434   1.911   4.035 -0.3159 -0.1967  0.0030
17104TIP3    H172727   2.386   1.936   4.114 -2.8542  1.1857 -1.7950
17104TIP3    H272728   2.395   1.828   4.008  0.3153 -0.5038  0.0261
17105TIP3   OH272729   0.030   1.471  13.712  0.1249  0.3432 -0.3945
17105TIP3    H172730  -0.033   1.538  13.740 -1.6003 -1.5407  0.4518
17105TIP3    H272731   0.038   1.413  13.788  0.6756 -1.0710 -1.5084
17106TIP3   OH272732   0.838   5.625  13.573 -0.3076 -0.4449 -0.1613
17106TIP3    H172733   0.773   5.622  13.502 -0.9543  0.7718  0.3299
17106TIP3    H272734   0.798   5.577  13.645 -0.8272  0.5372  0.2353
17107TIP3   OH272735   0.037   0.160   5.837 -0.7138 -0.0126 -0.0219
17107TIP3    H172736   0.078   0.181   5.921  0.5506 -0.4133 -0.5150
17107TIP3    H272737  -0.020   0.086   5.855  0.0864 -0.5486  0.3562
17108TIP3   OH272738   1.931   6.095   1.951  0.5538 -0.7124 -0.2709
17108TIP3    H172739   1.968   6.028   1.895  0.8744  0.0458 -0.9858
17108TIP3    H272740   1.884   6.154   1.892  0.1944 -0.3575  0.3482
17109TIP3   OH272741   1.407   6.594   3.734  0.1609 -0.2106 -0.7086
17109TIP3    H172742   1.435   6.656   3.801 -2.8129 -0.1099  0.6329
17109TIP3    H272743   1.466   6.520   3.743 -0.1633 -0.2252  2.1921
17110TIP3   OH272744   5.123   5.277   0.040  0.1577  0.0459  0.2097
17110TIP3    H172745   5.177   5.210  -0.003 -0.3520 -0.0967 -0.2216
17110TIP3    H272746   5.176   5.308   0.113 -0.2550 -1.9993  1.4368
17111TIP3   OH272747   5.678   1.520  16.026 -0.4459 -0.1210  0.5718
17111TIP3    H172748   5.721   1.596  15.988  0.0989 -0.7461 -0.0871
17111TIP3    H272749   5.642   1.551  16.109 -1.0328  1.0892 -0.1168
17112TIP3   OH272750   0.126   3.150  10.832  0.0265 -0.1758  0.0129
17112TIP3    H172751   0.210   3.165  10.789 -1.1399 -0.3868 -2.5778
17112TIP3    H272752   0.082   3.235  10.827  0.8808  0.6047  3.5216
17113TIP3   OH272753   6.399   4.874   1.009  0.1775 -0.5766 -0.6692
17113TIP3    H172754   6.393   4.922   1.092 -0.8169 -1.0273 -0.4725
17113TIP3    H272755   6.411   4.783   1.035 -0.4809 -0.7644 -1.0160
17114TIP3   OH272756   1.812   1.001   3.941  0.0621  0.4052 -0.5143
17114TIP3    H172757   1.877   0.956   3.887  0.0954 -0.9774  0.6083
17114TIP3    H272758   1.810   0.950   4.023 -1.7187  0.9931 -0.1548
17115TIP3   OH272759   5.192   2.335  11.854  0.4304 -0.1665 -0.5671
17115TIP3    H172760   5.202   2.403  11.787  1.8221  0.1346 -0.0874
17115TIP3    H272761   5.207   2.381  11.937 -0.2970 -0.7372 -0.1025
17116TIP3   OH272762   4.512   3.863   5.545 -0.3112 -0.1979 -0.0467
17116TIP3    H172763   4.572   3.938   5.544 -0.9937  0.3720  0.4306
17116TIP3    H272764   4.564   3.790   5.512  0.7734  0.1904  0.7445
17117TIP3   OH272765   2.446   2.183  14.557  0.1797 -0.6251  0.1369
17117TIP3    H172766   2.455   2.193  14.462 -2.1465  0.8638 -0.0188
17117TIP3    H272767   2.402   2.098  14.567 -1.7406  0.2503 -0.3588
17118TIP3   OH272768   3.349   4.561  12.596 -0.9544 -0.2122 -0.2412
17118TIP3    H172769   3.393   4.489  12.551  0.5868  0.5559 -0.0221
17118TIP3    H272770   3.271   4.578  12.543 -0.6967 -1.2230 -0.9794
17119TIP3   OH272771   2.339   2.236  12.164 -0.3739 -0.3509 -0.1327
17119TIP3    H172772   2.317   2.155  12.119  0.4479 -0.2452 -0.7413
17119TIP3    H272773   2.341   2.302  12.095 -1.7240  0.3442  0.4462
17120TIP3   OH272774   5.171   1.950   6.204  0.1400 -0.0798 -0.3705
17120TIP3    H172775   5.211   1.868   6.232 -0.2570 -0.7925 -1.8091
17120TIP3    H272776   5.106   1.925   6.139 -1.6350  1.1851  0.8052
17121TIP3   OH272777   3.036   5.010  13.550 -0.0723 -0.5240 -0.4767
17121TIP3    H172778   3.112   5.068  13.555  0.3406 -1.0587 -0.5361
17121TIP3    H272779   3.026   4.976  13.639 -1.8467  1.5492  0.2204
17122TIP3   OH272780   6.145   0.653  10.866  0.3777 -0.1686 -0.0162
17122TIP3    H172781   6.213   0.587  10.862  0.9934  0.4964 -2.4988
17122TIP3    H272782   6.109   0.656  10.777 -0.9931  1.4200  0.5315
17123TIP3   OH272783   4.111   3.688   2.615  0.4923 -0.1942 -0.2476
17123TIP3    H172784   4.156   3.610   2.583  2.0948  0.4798  0.2647
17123TIP3    H272785   4.120   3.752   2.544  1.0579  0.2004  0.1728
17124TIP3   OH272786   0.907   4.950  13.628  0.2156 -0.2416  0.2502
17124TIP3    H172787   0.828   4.909  13.592 -0.4702  2.2824 -1.4061
17124TIP3    H272788   0.979   4.913  13.576 -0.4154  0.7938 -1.4392
17125TIP3   OH272789   5.328   3.044   4.192 -0.0338 -0.2224  0.1398
17125TIP3    H172790   5.354   3.002   4.274 -1.2430  2.5014  2.0788
17125TIP3    H272791   5.254   2.992   4.160 -0.2950 -0.6572  1.4147
17126TIP3   OH272792   1.611   2.170   1.914 -0.8769 -0.0713 -0.5581
17126TIP3    H172793   1.695   2.189   1.957 -1.5547 -0.3303  0.9221
17126TIP3    H272794   1.631   2.099   1.854 -0.5468 -2.0378  1.7389
17127TIP3   OH272795   5.875   4.915   4.658  0.2256 -0.5261 -0.4234
17127TIP3    H172796   5.965   4.929   4.687 -0.3608  1.3212  0.6355
17127TIP3    H272797   5.830   4.878   4.734 -0.8421  2.4657  0.5273
17128TIP3   OH272798   2.221   3.077  10.751 -0.6598  0.5688 -0.6719
17128TIP3    H172799   2.307   3.072  10.710 -0.5290  2.0093 -0.6292
17128TIP3    H272800   2.172   3.140  10.698 -2.1173 -1.0837 -1.4009
17129TIP3   OH272801   2.677   1.775  11.595  0.0839  0.2643 -0.0649
17129TIP3    H172802   2.631   1.737  11.520 -2.8108  1.0257  1.1686
17129TIP3    H272803   2.652   1.868  11.593  0.3240  0.3865  1.5485
17130TIP3   OH272804   5.937   3.138   4.606  0.0666  0.2386 -0.4152
17130TIP3    H172805   5.871   3.173   4.546  0.4248  0.9939 -0.3789
17130TIP3    H272806   5.976   3.064   4.558  1.4975  1.8276 -1.8314
17131TIP3   OH272807   3.520   2.979   6.187 -0.0389 -0.0896  0.6219
17131TIP3    H172808   3.513   3.047   6.120  0.2012  0.1612  0.8431
17131TIP3    H272809   3.593   3.009   6.243  2.1945 -2.0509 -1.0337
17132TIP3   OH272810   4.934   5.069   4.972  0.4031 -0.5658  0.1977
17132TIP3    H172811   4.920   5.020   5.053 -0.7908 -2.9952 -1.3587
17132TIP3    H272812   4.879   5.025   4.907  1.8133  0.8556 -2.1193
17133TIP3   OH272813   0.424   0.664   2.540  0.3047 -0.7212  0.0477
17133TIP3    H172814   0.428   0.603   2.614  0.6924 -1.4135 -0.5313
17133TIP3    H272815   0.499   0.723   2.553 -0.0133 -0.4245  0.5557
17134TIP3   OH272816   0.464   1.544   4.103  0.0424 -0.0872 -0.2838
17134TIP3    H172817   0.480   1.638   4.114  0.0569 -0.0389 -0.7003
17134TIP3    H272818   0.378   1.538   4.063 -0.1947 -0.2788  0.2363
17135TIP3   OH272819   6.161   3.784  13.256 -0.7306 -0.7889 -0.3075
17135TIP3    H172820   6.180   3.698  13.219  0.8446 -0.5395 -0.1425
17135TIP3    H272821   6.082   3.770  13.309 -0.5310 -2.1196 -0.3202
17136TIP3   OH272822   5.551   1.879   3.255 -0.1192 -0.1867 -0.2193
17136TIP3    H172823   5.461   1.850   3.242  0.1252 -1.5299  0.9188
17136TIP3    H272824   5.583   1.828   3.329  2.3433 -1.5025 -2.0210
17137TIP3   OH272825   1.686   0.505   2.415 -0.5195 -0.4193  0.2015
17137TIP3    H172826   1.716   0.415   2.403 -1.4696 -0.6681 -0.4151
17137TIP3    H272827   1.726   0.554   2.344  1.5450  0.0620  1.6287
17138TIP3   OH272828   3.071   4.667   5.029 -0.2434  0.2787  0.0788
17138TIP3    H172829   3.029   4.689   5.112 -0.1167  0.2108  0.1615
17138TIP3    H272830   3.148   4.724   5.024  0.5443 -0.6862  0.6786
17139TIP3   OH272831   5.631   1.966   0.229  0.0561 -0.3599  0.4370
17139TIP3    H172832   5.596   1.923   0.307  0.7590 -1.7848  0.0124
17139TIP3    H272833   5.726   1.965   0.241  0.1193  0.3450  0.0309
17140TIP3   OH272834   4.336   2.626   4.796  0.2297 -0.4408 -0.1891
17140TIP3    H172835   4.359   2.691   4.863 -0.9968  0.8686 -0.9771
17140TIP3    H272836   4.302   2.552   4.846  2.0689 -0.7116  0.7596
17141TIP3   OH272837   6.090   1.160  11.584  0.2694  0.5866 -0.4057
17141TIP3    H172838   6.173   1.117  11.563  0.1278  0.4763 -0.7531
17141TIP3    H272839   6.100   1.249  11.552 -0.1324  0.2805 -1.4380
17142TIP3   OH272840   1.562   3.588   1.406  0.0192 -0.5353  0.3635
17142TIP3    H172841   1.649   3.557   1.431  0.7163  1.3053  0.3942
17142TIP3    H272842   1.513   3.593   1.488  0.7386  0.8555  0.7417
17143TIP3   OH272843   2.294   2.413   1.197  0.7862 -0.3389  0.3352
17143TIP3    H172844   2.232   2.343   1.220  0.8280 -0.8143 -0.9108
17143TIP3    H272845   2.262   2.446   1.113  1.4461  0.3508  0.3511
17144TIP3   OH272846   1.317   1.008   3.439 -0.1374  0.0928  0.4204
17144TIP3    H172847   1.371   1.014   3.518  0.2036  1.2934  0.1204
17144TIP3    H272848   1.298   1.099   3.416 -2.6915 -0.2860  0.7726
17145TIP3   OH272849   3.803   0.438   0.532 -0.1121  0.1592  0.3606
17145TIP3    H172850   3.813   0.528   0.562  0.2470  0.3326 -0.2497
17145TIP3    H272851   3.846   0.385   0.598  1.1336  0.5713 -0.0897
17146TIP3   OH272852   6.065   5.066  11.226  0.5400 -1.0491  1.0993
17146TIP3    H172853   5.974   5.039  11.213 -0.1135  1.0151  0.9975
17146TIP3    H272854   6.104   4.995  11.277 -1.1686 -1.8923  1.3154
17147TIP3   OH272855   5.424   6.559   4.738  0.0212 -0.4978 -0.1519
17147TIP3    H172856   5.420   6.605   4.654  0.1926 -0.0534  0.0803
17147TIP3    H272857   5.332   6.548   4.764 -0.0077  0.1944  0.0494
17148TIP3   OH272858   6.740   4.497   5.114 -0.2800 -0.6301  0.4106
17148TIP3    H172859   6.655   4.453   5.102 -2.0027  2.2167  1.2246
17148TIP3    H272860   6.789   4.477   5.035 -2.9271  0.0912 -1.5597
17149TIP3   OH272861   3.253   4.316   4.039 -0.2294 -0.9267  0.5476
17149TIP3    H172862   3.203   4.311   4.120 -1.4746  3.1953  0.2269
17149TIP3    H272863   3.191   4.290   3.971 -0.4786 -0.3726  0.5615
17150TIP3   OH272864   0.856   0.308  16.873 -0.3153 -0.1375 -0.2831
17150TIP3    H172865   0.777   0.267  16.837  0.1126 -1.0731 -0.1844
17150TIP3    H272866   0.861   0.393  16.829 -1.5116  0.0355 -0.1089
17151TIP3   OH272867   4.884   5.273  12.640 -0.1389  0.2055  0.0894
17151TIP3    H172868   4.916   5.231  12.720 -0.9095 -1.2289 -0.3229
17151TIP3    H272869   4.956   5.328  12.611  1.0262 -1.0624  0.4979
17152TIP3   OH272870   5.110   3.567  11.737 -0.2909 -0.2609  0.3931
17152TIP3    H172871   5.174   3.525  11.679 -0.4577 -2.5416  1.7507
17152TIP3    H272872   5.163   3.624  11.793  0.0346  0.8684 -1.0013
17153TIP3   OH272873   2.230   5.206  13.374 -1.0432 -0.3726  0.0774
17153TIP3    H172874   2.274   5.264  13.436  2.4299 -1.4838 -1.1274
17153TIP3    H272875   2.220   5.123  13.422  0.1931 -0.7408 -0.2426
17154TIP3   OH272876   6.294   4.630  12.985 -0.1432  0.5880  0.1461
17154TIP3    H172877   6.344   4.641  13.066 -0.2582  1.4534  0.1106
17154TIP3    H272878   6.357   4.643  12.915 -0.0783 -0.0015  0.0869
17155TIP3   OH272879   6.410   2.500  15.879 -0.1754 -0.6363  0.0913
17155TIP3    H172880   6.435   2.422  15.930  1.4431 -0.5893 -0.5790
17155TIP3    H272881   6.447   2.573  15.928 -0.7906 -0.3626  0.1577
17156TIP3   OH272882   3.518   1.017  13.851  0.1208  0.4080  0.1349
17156TIP3    H172883   3.566   0.995  13.771  1.1505 -1.9102  1.2829
17156TIP3    H272884   3.429   1.031  13.822  0.4423 -0.5279 -1.4459
17157TIP3   OH272885   2.207   2.442   0.288 -0.4679 -0.7457  0.1426
17157TIP3    H172886   2.116   2.410   0.294 -0.8513  0.5366  2.6640
17157TIP3    H272887   2.217   2.497   0.366  2.3323 -0.4165 -0.3810
17158TIP3   OH272888   1.520   0.674  12.149 -0.3770  0.2220  0.1982
17158TIP3    H172889   1.553   0.728  12.221  1.2153  0.1804 -0.4610
17158TIP3    H272890   1.565   0.590  12.160 -2.4286 -0.8634  0.9057
17159TIP3   OH272891   6.313   1.933   5.918  0.1029 -0.7776 -0.1379
17159TIP3    H172892   6.310   1.865   5.985  0.7854 -2.1716 -1.4671
17159TIP3    H272893   6.319   2.015   5.967 -0.5124 -1.6727  1.5039
17160TIP3   OH272894   1.896   2.099   1.073 -0.3358  0.4676 -0.2085
17160TIP3    H172895   1.931   2.149   1.147 -0.5033  0.8358 -0.3775
17160TIP3    H272896   1.956   2.118   1.001 -1.3169  1.7422 -0.7210
17161TIP3   OH272897   1.784   6.247   4.157 -0.4981 -0.3972 -0.2129
17161TIP3    H172898   1.719   6.189   4.118 -1.0254  0.3465 -0.4707
17161TIP3    H272899   1.773   6.236   4.251 -0.5733 -0.7306 -0.2591
17162TIP3   OH272900   3.012   4.372  13.131 -0.2813  0.3781  0.5151
17162TIP3    H172901   3.036   4.454  13.175  1.8076 -0.7150  1.5535
17162TIP3    H272902   3.096   4.336  13.101 -1.3331 -0.4860 -1.6215
17163TIP3   OH272903   0.261   2.658  16.670  0.0018  0.2039 -0.5450
17163TIP3    H172904   0.330   2.652  16.737 -0.2569  1.7041 -0.0966
17163TIP3    H272905   0.195   2.595  16.698 -0.6729  1.6451  1.3711
17164TIP3   OH272906   5.289   2.075  14.981  0.2483  0.4367 -0.1665
17164TIP3    H172907   5.241   2.022  14.918  0.7155 -1.2651  0.8455
17164TIP3    H272908   5.293   2.021  15.060 -1.3289  2.9155  1.7937
17165TIP3   OH272909   0.687   4.459   3.493  0.2536 -0.9955  0.2373
17165TIP3    H172910   0.658   4.514   3.566 -0.0669  0.1226 -0.7051
17165TIP3    H272911   0.631   4.485   3.420  1.3987 -1.2134 -0.7397
17166TIP3   OH272912   1.771   2.071   2.317  0.3370  0.3557 -0.0253
17166TIP3    H172913   1.686   2.039   2.287  1.3509 -2.9245  0.1462
17166TIP3    H272914   1.834   2.031   2.257  1.8397  2.5789 -0.0557
17167TIP3   OH272915   4.160   4.341   5.030  0.2152 -0.8046  0.6246
17167TIP3    H172916   4.139   4.291   4.951  2.1429  1.1711 -1.2481
17167TIP3    H272917   4.105   4.420   5.024  2.2553  0.6136 -0.1864
17168TIP3   OH272918   0.658   3.431  13.540 -0.3175 -0.3014  0.7325
17168TIP3    H172919   0.714   3.444  13.617  1.5186 -0.6781 -0.4890
17168TIP3    H272920   0.629   3.340  13.547 -2.7494  0.4887  2.5529
17169TIP3   OH272921   3.948   3.624  13.388  0.3537 -0.0445 -0.1356
17169TIP3    H172922   4.001   3.551  13.422  1.1305 -0.2218 -1.6374
17169TIP3    H272923   3.974   3.699  13.442  2.6769  0.0112 -1.1892
17170TIP3   OH272924   5.228   1.869  15.857 -0.1587 -0.1803  0.6015
17170TIP3    H172925   5.190   1.824  15.782 -0.3717 -0.6068  0.9551
17170TIP3    H272926   5.306   1.818  15.878 -0.6579 -0.6814  1.2959
17171TIP3   OH272927   3.292   1.414   6.498 -0.0247  0.4672 -0.3294
17171TIP3    H172928   3.377   1.443   6.532  0.5942  1.4601 -2.5563
17171TIP3    H272929   3.314   1.342   6.440 -0.7383  0.5575 -0.7097
17172TIP3   OH272930   4.374   4.736   1.474  0.2907  0.1826  0.3389
17172TIP3    H172931   4.330   4.821   1.473 -0.7947 -0.3562 -0.1207
17172TIP3    H272932   4.429   4.737   1.396 -0.3509  0.1540 -0.1187
17173TIP3   OH272933   5.392   5.202  13.867 -0.0438 -0.1936 -0.6288
17173TIP3    H172934   5.401   5.193  13.772 -0.2773 -0.2356 -0.6468
17173TIP3    H272935   5.302   5.233  13.879 -1.3475 -3.6919 -0.2056
17174TIP3   OH272936   5.515   0.065   6.621  0.3161 -0.0075 -0.0021
17174TIP3    H172937   5.567   0.066   6.701  0.6704 -1.2055 -0.1929
17174TIP3    H272938   5.448  -0.002   6.637 -0.7175  0.9813 -0.0503
17175TIP3   OH272939   5.413   4.824  15.576  0.2349  0.3164 -0.5549
17175TIP3    H172940   5.363   4.831  15.494 -0.0966  0.2562 -0.3600
17175TIP3    H272941   5.455   4.738  15.571 -0.8609 -0.2681 -0.0695
17176TIP3   OH272942   2.957   2.661  10.588  0.2243  0.3192  0.1238
17176TIP3    H172943   3.014   2.591  10.622 -0.6100 -1.1912 -1.4107
17176TIP3    H272944   2.871   2.620  10.581 -0.4780  1.7696 -0.1181
17177TIP3   OH272945   5.083   0.263   2.880 -0.3407 -0.7835 -0.2958
17177TIP3    H172946   5.142   0.228   2.814  1.3219  1.3324 -0.0541
17177TIP3    H272947   5.124   0.345   2.908 -1.6800 -0.9168  2.3882
17178TIP3   OH272948   0.620   6.617  14.688 -0.3323 -0.5280 -0.1627
17178TIP3    H172949   0.710   6.614  14.718 -0.8064 -1.1355  1.2702
17178TIP3    H272950   0.623   6.668  14.607  0.9511  1.5979  1.1466
17179TIP3   OH272951   5.187   3.852   1.372  0.3432 -0.1390  0.0364
17179TIP3    H172952   5.205   3.863   1.466 -1.3669 -0.4101  0.4300
17179TIP3    H272953   5.099   3.887   1.360  1.0565  1.1363 -1.7629
17180TIP3   OH272954   5.488   0.705  11.176 -0.0671 -0.6184  0.1410
17180TIP3    H172955   5.408   0.687  11.126 -1.5190  2.3282  1.1757
17180TIP3    H272956   5.521   0.787  11.139  0.1940  0.3169  2.2861
17181TIP3   OH272957   0.918   3.722   0.984  0.3569  0.7228 -0.4655
17181TIP3    H172958   0.849   3.788   0.996 -0.2053  0.3246 -1.3659
17181TIP3    H272959   0.884   3.644   1.027 -0.3268  0.1756 -1.9018
17182TIP3   OH272960   0.083   3.504  17.105  0.0017  0.0121  0.0667
17182TIP3    H172961   0.079   3.498  17.009 -1.7289  0.1292  0.1104
17182TIP3    H272962   0.165   3.460  17.128 -0.1365 -1.0730 -1.3791
17183TIP3   OH272963   2.303   1.635  11.903  0.2492 -0.1264  0.4617
17183TIP3    H172964   2.286   1.584  11.824 -0.5852  1.3241 -0.3423
17183TIP3    H272965   2.385   1.682  11.884  1.2464 -1.4326  1.3669
17184TIP3   OH272966   5.561   0.692   1.780  0.2353  0.5109 -0.1602
17184TIP3    H172967   5.542   0.604   1.813 -0.5783  1.4077  1.9575
17184TIP3    H272968   5.475   0.733   1.769  0.4867  0.5188 -2.9350
17185TIP3   OH272969   4.628   3.131   4.840  0.1176  0.4077 -0.3265
17185TIP3    H172970   4.632   3.208   4.784  0.6347  1.5788  1.2577
17185TIP3    H272971   4.538   3.130   4.873  0.9583  2.3415  2.2798
17186TIP3   OH272972   2.127   4.341   4.314 -0.5924 -0.3524 -0.1632
17186TIP3    H172973   2.146   4.260   4.362  0.2576 -0.9276 -1.4238
17186TIP3    H272974   2.171   4.410   4.363 -0.2864 -0.8321  0.2404
17187TIP3   OH272975   6.075   1.513  12.963  0.4900 -0.2750  0.0069
17187TIP3    H172976   6.031   1.428  12.971  0.8157 -0.6459 -1.8123
17187TIP3    H272977   6.047   1.547  12.878  1.2336  0.9436  0.2261
17188TIP3   OH272978   2.603   6.585  11.577  0.1959 -0.3478 -0.1308
17188TIP3    H172979   2.696   6.585  11.601 -0.0222 -1.5467  0.8010
17188TIP3    H272980   2.563   6.520  11.635 -1.3281  0.5188 -0.1601
17189TIP3   OH272981   5.092   1.323  12.903  0.0296 -0.2044  0.1212
17189TIP3    H172982   5.125   1.379  12.833  1.8605 -1.5537 -0.1632
17189TIP3    H272983   5.082   1.237  12.863  1.2847 -1.0553  1.4952
17190TIP3   OH272984   2.394   1.373  11.269 -0.3217  0.0980  0.1146
17190TIP3    H172985   2.488   1.392  11.274 -0.5588  1.4402 -0.1029
17190TIP3    H272986   2.366   1.415  11.187 -0.8377 -1.5988 -0.6295
17191TIP3   OH272987   1.835   4.495  10.931 -0.8219 -0.2828  0.0531
17191TIP3    H172988   1.770   4.505  10.862  0.2912  0.5910 -0.9165
17191TIP3    H272989   1.819   4.569  10.990 -0.2515  0.3984 -0.6125
17192TIP3   OH272990   5.599   0.243  17.076 -0.2316 -0.6563  0.5502
17192TIP3    H172991   5.514   0.256  17.116 -0.3956 -0.1927  0.0574
17192TIP3    H272992   5.655   0.312  17.112 -0.8315  0.8601 -1.2826
17193TIP3   OH272993   5.484   6.685  11.131 -0.9389 -0.0175  0.8278
17193TIP3    H172994   5.574   6.660  11.153 -1.0975 -1.1767  0.2275
17193TIP3    H272995   5.492   6.735  11.050 -0.9615 -1.6354 -0.2179
17194TIP3   OH272996   2.173   3.897  10.909 -0.1740  0.1923 -0.7476
17194TIP3    H172997   2.242   3.902  10.843 -0.3700  1.2873 -0.8799
17194TIP3    H272998   2.149   3.988  10.926  0.1620 -0.0370  1.1434
17195TIP3   OH272999   2.234   4.158   5.751  0.1596  0.1944 -0.1385
17195TIP3    H173000   2.161   4.149   5.813 -0.4703 -1.8298 -1.0741
17195TIP3    H273001   2.251   4.069   5.721  1.1700  0.9725 -2.0574
17196TIP3   OH273002   4.867   1.746  11.362  0.3085  0.1082  0.3213
17196TIP3    H173003   4.899   1.833  11.387  2.7093 -0.3820 -0.7443
17196TIP3    H273004   4.772   1.752  11.368  0.3729  3.0046 -0.3411
17197TIP3   OH273005   5.561   0.566   3.642 -0.4849 -0.3755  1.1646
17197TIP3    H173006   5.553   0.477   3.609 -1.0010 -0.1518  0.6837
17197TIP3    H273007   5.611   0.612   3.575  1.1427 -0.6724  2.1237
17198TIP3   OH273008   2.481   4.099  17.013 -0.2774  0.0953 -0.2473
17198TIP3    H173009   2.443   4.167  16.958 -1.1744 -0.7200 -0.6862
17198TIP3    H273010   2.449   4.017  16.975 -2.5197 -0.5090  2.4917
17199TIP3   OH273011   4.083   3.232   4.226 -0.0240 -0.1643  0.5456
17199TIP3    H173012   4.150   3.177   4.267  0.5396  0.8084  0.9601
17199TIP3    H273013   4.060   3.295   4.294 -0.4387  0.2978 -0.0239
17200TIP3   OH273014   0.792   1.555  16.830 -0.2005 -0.1003  0.4561
17200TIP3    H173015   0.834   1.579  16.747  0.5241 -2.2513  0.1439
17200TIP3    H273016   0.711   1.606  16.831  0.0529  0.4116 -1.2845
17201TIP3   OH273017   3.789   4.604   0.403 -0.3327  0.1115 -0.0652
17201TIP3    H173018   3.808   4.698   0.408 -1.1262  0.3740 -1.5333
17201TIP3    H273019   3.757   4.581   0.490 -1.5680  1.5359 -0.1139
17202TIP3   OH273020   5.162   4.529  11.523  0.2729  0.4767 -0.3331
17202TIP3    H173021   5.215   4.517  11.444  0.1576  0.7797 -0.4558
17202TIP3    H273022   5.081   4.481  11.505  0.5617 -0.1209 -0.0834
17203TIP3   OH273023   6.595   1.774   1.856 -0.2563 -0.3866 -0.0090
17203TIP3    H173024   6.533   1.759   1.785 -0.2225  3.5018 -1.0513
17203TIP3    H273025   6.540   1.791   1.933 -0.4506  0.6272 -0.3631
17204TIP3   OH273026   1.919   1.256  16.399  0.4570  0.1536  0.0492
17204TIP3    H173027   1.861   1.251  16.475 -0.6108 -1.8389 -0.8223
17204TIP3    H273028   2.000   1.294  16.434 -1.1331  2.5021  1.4107
17205TIP3   OH273029   5.687   0.857   4.515 -0.0576 -0.2810 -0.0926
17205TIP3    H173030   5.609   0.912   4.528  0.1928 -0.2203  1.3203
17205TIP3    H273031   5.687   0.837   4.422 -1.2365  0.5147 -0.2849
17206TIP3   OH273032   1.444   4.923   0.629  0.6408 -0.3633 -0.1266
17206TIP3    H173033   1.508   4.865   0.671 -0.3369  1.0587  3.8190
17206TIP3    H273034   1.373   4.865   0.601  0.9533 -1.3827  1.1208
17207TIP3   OH273035   0.719   5.165  16.035 -0.3851  0.1732 -0.4283
17207TIP3    H173036   0.749   5.245  16.078  2.3629 -0.6318 -0.6434
17207TIP3    H273037   0.676   5.195  15.955  3.4570  1.4824 -2.2143
17208TIP3   OH273038   4.498   5.266   1.188 -0.5898  0.4876 -0.8946
17208TIP3    H173039   4.494   5.354   1.150 -2.6539  0.8329 -0.0055
17208TIP3    H273040   4.539   5.279   1.273 -2.1866  0.8686 -0.1522
17209TIP3   OH273041   3.783   0.919  14.860 -0.1229 -0.8864  0.0391
17209TIP3    H173042   3.778   0.830  14.894 -3.0553  0.0210  2.3847
17209TIP3    H273043   3.692   0.949  14.857  0.7862  2.1908 -0.2159
17210TIP3   OH273044   0.217   2.639  11.046 -1.1467 -0.2989 -0.0565
17210TIP3    H173045   0.225   2.563  10.988  1.6525 -0.1932  0.0336
17210TIP3    H273046   0.186   2.709  10.990  1.4395 -0.2118 -1.5336
17211TIP3   OH273047   4.522   3.463  15.863 -0.9329  0.5776  0.2198
17211TIP3    H173048   4.479   3.393  15.911 -2.3630  0.5775 -1.0083
17211TIP3    H273049   4.543   3.529  15.930 -0.7935 -0.4028  1.1672
17212TIP3   OH273050   1.866   4.707   3.005 -0.2914 -0.0159  0.1762
17212TIP3    H173051   1.818   4.784   3.035  0.4796  0.1745  0.9857
17212TIP3    H273052   1.806   4.663   2.945 -0.7761  1.1693 -0.2513
17213TIP3   OH273053   1.928   3.006  14.228 -0.0419 -0.2334  0.0518
17213TIP3    H173054   1.919   3.066  14.153 -0.7732 -1.4476 -0.8654
17213TIP3    H273055   1.948   2.922  14.189 -0.3491 -0.8770  1.2412
17214TIP3   OH273056   4.649   2.348   3.151  0.1724  0.3595  0.3729
17214TIP3    H173057   4.677   2.301   3.073 -0.7900  1.7386 -0.8683
17214TIP3    H273058   4.595   2.285   3.199  1.7119 -0.8810  0.5547
17215TIP3   OH273059   4.527   4.755  16.889  0.3844  0.3406 -0.2607
17215TIP3    H173060   4.479   4.673  16.893 -0.3764  0.8286  1.4540
17215TIP3    H273061   4.602   4.743  16.947  1.1162  0.3621 -1.1798
17216TIP3   OH273062   4.462   1.814  13.392 -0.2848 -0.2917 -0.4624
17216TIP3    H173063   4.507   1.740  13.433 -0.9999 -0.2681  0.4052
17216TIP3    H273064   4.532   1.873  13.364  0.2970 -1.3283 -1.2226
17217TIP3   OH273065   5.771   3.723   3.082  0.2895 -0.5452  0.3977
17217TIP3    H173066   5.836   3.695   3.018  0.1764  0.1457 -0.0341
17217TIP3    H273067   5.716   3.646   3.097  1.1718 -1.1237  0.7342
17218TIP3   OH273068   4.855   4.321   1.813  0.1190  0.2369 -0.1433
17218TIP3    H173069   4.945   4.338   1.839 -0.4815  2.2953  0.7339
17218TIP3    H273070   4.863   4.270   1.732  2.0521  0.8970 -0.4149
17219TIP3   OH273071   5.695   6.327  12.207 -0.2682 -0.1127  0.0391
17219TIP3    H173072   5.637   6.317  12.282 -0.5253 -0.8902 -0.2511
17219TIP3    H273073   5.660   6.402  12.159  0.7546  1.3117  1.4404
17220TIP3   OH273074   5.037   4.413   5.758  0.0602 -0.1859  0.1285
17220TIP3    H173075   4.962   4.379   5.806  0.6014  1.0324  1.9680
17220TIP3    H273076   5.000   4.476   5.696 -0.6999 -2.1671 -1.5319
17221TIP3   OH273077   2.383   5.317   3.755  0.2745 -0.3801  0.3928
17221TIP3    H173078   2.342   5.398   3.783 -0.4359 -0.9717  1.0878
17221TIP3    H273079   2.421   5.280   3.835  0.2581 -0.9253  0.1524
17222TIP3   OH273080   4.043   5.068  14.853  0.0889  0.1404  0.6676
17222TIP3    H173081   4.131   5.105  14.857 -0.3989  1.2350  1.6698
17222TIP3    H273082   3.992   5.119  14.916 -1.1449 -0.8132  0.4821
17223TIP3   OH273083   6.094   3.322   2.767  0.6583  0.3567  0.4787
17223TIP3    H173084   6.010   3.332   2.812  1.2457  2.9676  1.1815
17223TIP3    H273085   6.071   3.319   2.674 -0.3118 -0.9916  0.7383
17224TIP3   OH273086   1.813   5.652   1.446  0.3849  0.3488  0.3912
17224TIP3    H173087   1.740   5.626   1.390 -1.9479 -0.4519  3.4741
17224TIP3    H273088   1.886   5.597   1.418 -0.3033  0.7055 -2.4006
17225TIP3   OH273089   6.436   1.860  14.787  0.0708 -0.2192 -0.5646
17225TIP3    H173090   6.367   1.821  14.733  0.5784 -1.2301 -0.4938
17225TIP3    H273091   6.465   1.936  14.737  0.6291 -1.2193 -1.8037
17226TIP3   OH273092   4.759   6.355   3.974 -0.6268 -0.6142 -0.7161
17226TIP3    H173093   4.792   6.306   3.900  0.7782  0.4589 -0.8419
17226TIP3    H273094   4.833   6.360   4.035 -1.1368  0.1891 -0.1363
17227TIP3   OH273095   0.447   1.933  16.872 -0.1007 -0.3539  0.0399
17227TIP3    H173096   0.449   1.953  16.966 -0.3630  1.4572 -0.3001
17227TIP3    H273097   0.539   1.923  16.848 -0.0351 -0.8675  0.4937
17228TIP3   OH273098   6.126   0.574   5.110  0.2760 -0.1673 -0.2984
17228TIP3    H173099   6.193   0.600   5.047  0.2078  0.0910 -0.2689
17228TIP3    H273100   6.045   0.572   5.059  0.0383  1.0966 -0.0052
17229TIP3   OH273101   6.105   4.474   5.278  0.4488 -0.3966 -0.1744
17229TIP3    H173102   6.118   4.420   5.199 -0.6764  2.5264 -2.5575
17229TIP3    H273103   6.099   4.563   5.244 -0.6629  0.9515  3.2439
17230TIP3   OH273104   5.219   0.739  13.064  0.3435  0.1930  0.0071
17230TIP3    H173105   5.143   0.684  13.078 -0.7978  1.9968  1.4239
17230TIP3    H273106   5.284   0.706  13.126 -0.1541  0.1285  0.5051
17231TIP3   OH273107   1.165   2.865   4.838  0.1715 -0.5520 -0.0380
17231TIP3    H173108   1.117   2.942   4.808  1.5657  0.2431 -0.3343
17231TIP3    H273109   1.120   2.838   4.918 -1.3820 -0.4915 -0.8550
17232TIP3   OH273110   2.209   2.699   5.250 -0.4923 -0.6363  0.6222
17232TIP3    H173111   2.154   2.626   5.221  1.7093 -0.7836 -3.9699
17232TIP3    H273112   2.296   2.678   5.217  0.6723  3.1685  0.8213
17233TIP3   OH273113   0.728   5.307  10.758  0.9552 -0.0055  0.2943
17233TIP3    H173114   0.720   5.343  10.669 -0.4641 -1.8441 -0.3609
17233TIP3    H273115   0.739   5.384  10.813  2.1398  1.1832 -1.4791
17234TIP3   OH273116   3.071   1.951   0.878 -0.2907 -0.0729 -0.4531
17234TIP3    H173117   3.105   2.037   0.902 -2.5768  1.0763 -1.0870
17234TIP3    H273118   3.004   1.933   0.943  1.2325 -2.2032  0.6582
17235TIP3   OH273119   1.409   4.858   1.903 -0.5079  0.3152 -0.3694
17235TIP3    H173120   1.376   4.768   1.904  1.0706 -0.2846  0.3615
17235TIP3    H273121   1.354   4.904   1.966 -0.4635 -0.4708  0.2595
17236TIP3   OH273122   3.009   4.843  16.213  0.0089 -0.2680  0.0896
17236TIP3    H173123   3.012   4.854  16.308  0.7955 -1.6116  0.2410
17236TIP3    H273124   2.976   4.927  16.180  1.5705  0.9162  1.3979
17237TIP3   OH273125   4.511   1.568   3.716 -0.0123 -0.3063 -0.1215
17237TIP3    H173126   4.485   1.586   3.806 -1.2840  1.3378 -0.7637
17237TIP3    H273127   4.460   1.491   3.690 -0.5441 -0.0672  0.2030
17238TIP3   OH273128   2.060   1.538  12.995  0.0356  0.4995 -0.5062
17238TIP3    H173129   2.135   1.564  12.942  2.4771 -2.1933  1.3358
17238TIP3    H273130   2.064   1.595  13.072 -0.4035  0.9719 -0.8265
17239TIP3   OH273131   6.163   3.539  13.902 -0.1553 -0.0573 -0.2468
17239TIP3    H173132   6.212   3.609  13.944  0.2751 -0.4293 -0.1235
17239TIP3    H273133   6.130   3.485  13.974 -0.8088  0.2302 -0.3262
17240TIP3   OH273134   2.763   6.205   4.376 -0.5495  0.1514  0.7112
17240TIP3    H173135   2.725   6.292   4.364  0.9884  0.6655 -1.0465
17240TIP3    H273136   2.856   6.222   4.393 -0.2222 -1.1280  0.3298
17241TIP3   OH273137   0.897   3.073  15.234 -0.2506  0.3623  0.3412
17241TIP3    H173138   0.920   3.134  15.303  0.5283  0.3043  0.1437
17241TIP3    H273139   0.974   3.071  15.177 -0.1872 -0.9198  0.4343
17242TIP3   OH273140   6.596   0.039   1.815 -0.0057 -0.1254 -0.4498
17242TIP3    H173141   6.671   0.085   1.853 -0.5889  1.4714 -1.1497
17242TIP3    H273142   6.524   0.101   1.823 -1.2478 -1.5807  0.0748
17243TIP3   OH273143   6.599   2.494  12.761 -0.6841 -0.1533  0.4336
17243TIP3    H173144   6.688   2.472  12.788  0.1283  0.4262 -1.6263
17243TIP3    H273145   6.592   2.588  12.772 -0.9355 -0.1470  0.2347
17244TIP3   OH273146   3.329   3.308  13.151 -0.2031  0.3363  0.1397
17244TIP3    H173147   3.235   3.326  13.143 -0.7580 -1.9894  0.7284
17244TIP3    H273148   3.345   3.303  13.245  0.0428 -1.2874  0.0380
17245TIP3   OH273149   6.639   5.564   6.255 -0.0077 -0.5463  0.5190
17245TIP3    H173150   6.657   5.470   6.253  1.4821 -0.2745 -0.2916
17245TIP3    H273151   6.610   5.585   6.167  0.0604 -0.1786  0.5818
17246TIP3   OH273152   6.233   4.937   4.629  0.2954  0.0506  0.4472
17246TIP3    H173153   6.219   4.910   4.538  1.3362  0.7813  0.0637
17246TIP3    H273154   6.231   4.855   4.678  0.3952 -0.4214 -0.3157
17247TIP3   OH273155   3.564   0.973  12.836  0.2629  0.1169  0.2174
17247TIP3    H173156   3.594   0.908  12.900 -1.6625  0.9484  2.0991
17247TIP3    H273157   3.523   0.920  12.767  2.8337 -0.8225 -0.6779
17248TIP3   OH273158   4.297   1.417  17.136 -0.6234 -0.7427  0.2062
17248TIP3    H173159   4.313   1.350  17.202 -1.4490 -1.4405 -0.2796
17248TIP3    H273160   4.340   1.495  17.170 -0.6899 -1.1964  1.3646
17249TIP3   OH273161   2.657   1.502   4.677  0.3013 -0.7013  0.0124
17249TIP3    H173162   2.736   1.513   4.625 -0.2581  1.1999 -0.4886
17249TIP3    H273163   2.597   1.568   4.644 -0.8310 -0.8634  1.6499
17250TIP3   OH273164   6.638   1.722   2.445  0.5352  0.2525 -0.1861
17250TIP3    H173165   6.659   1.740   2.537 -0.2968  0.9659 -0.1187
17250TIP3    H273166   6.586   1.642   2.448  0.1911  0.4786  0.0141
17251TIP3   OH273167   3.595   6.019  13.027  0.4959 -0.0873 -0.2362
17251TIP3    H173168   3.618   6.056  13.112  0.7457 -0.7029 -0.0350
17251TIP3    H273169   3.594   5.924  13.041 -1.1429 -0.1361 -0.4925
17252TIP3   OH273170   3.001   5.021   2.775  0.0618 -0.8360 -0.3982
17252TIP3    H173171   3.078   4.987   2.820 -0.5198  0.3940  1.6713
17252TIP3    H273172   3.017   5.115   2.767 -1.0564 -0.6207 -0.2808
17253TIP3   OH273173   6.424   5.593  14.900  0.4573 -0.1650 -0.0370
17253TIP3    H173174   6.476   5.642  14.963  1.3533 -0.3712 -0.5955
17253TIP3    H273175   6.405   5.655  14.830  1.0246 -0.4169 -0.4256
17254TIP3   OH273176   3.768   3.652   5.333 -0.3107  0.7264 -0.7574
17254TIP3    H173177   3.763   3.685   5.243 -1.7885  1.5933 -0.3913
17254TIP3    H273178   3.693   3.691   5.377  1.7748  2.4464  1.5833
17255TIP3   OH273179   5.423   2.719  16.436  0.8511 -0.0753  0.0668
17255TIP3    H173180   5.496   2.694  16.379  1.8504  0.6487  0.9917
17255TIP3    H273181   5.451   2.690  16.523 -0.6262 -1.1221  0.2388
17256TIP3   OH273182   2.205   0.575  11.964 -0.1667 -0.2591  0.1967
17256TIP3    H173183   2.286   0.560  12.012 -1.4275 -0.5857  2.3210
17256TIP3    H273184   2.226   0.647  11.904  1.4327  0.2958  1.3541
17257TIP3   OH273185   4.398   3.877  13.958 -0.1158  0.2378  0.3747
17257TIP3    H173186   4.324   3.824  13.928  0.1174  0.1205  0.0052
17257TIP3    H273187   4.468   3.813  13.974 -0.1250  0.3389  0.8170
17258TIP3   OH273188   3.814   4.491  10.911  0.0683  0.2426  0.5629
17258TIP3    H173189   3.860   4.406  10.914 -0.0382  0.1104 -0.7778
17258TIP3    H273190   3.865   4.543  10.849 -0.7380  0.6256  0.2129
17259TIP3   OH273191   6.534   6.648  11.323  0.8012 -0.0570  0.1606
17259TIP3    H173192   6.459   6.633  11.381  2.1286 -0.2005  1.8903
17259TIP3    H273193   6.499   6.631  11.235 -0.7220 -1.9923  1.0537
17260TIP3   OH273194   0.956   5.953   2.056  0.3235 -0.0134  1.0052
17260TIP3    H173195   1.044   5.982   2.032  0.6492 -1.8062 -0.1605
17260TIP3    H273196   0.900   5.993   1.990  0.6337 -1.0788  0.0664
17261TIP3   OH273197   4.000   4.698  14.248 -0.6037  0.0430 -0.4893
17261TIP3    H173198   3.985   4.722  14.156  0.3801  2.1713 -0.1342
17261TIP3    H273199   4.071   4.754  14.276 -1.4414  0.0304  1.8429
17262TIP3   OH273200   1.244   1.532  16.458  0.1560 -0.3611  0.3811
17262TIP3    H173201   1.152   1.558  16.452  0.1219 -0.5021  0.3041
17262TIP3    H273202   1.277   1.540  16.368  0.3335  0.1142  0.4832
17263TIP3   OH273203   3.780   1.104   2.127  0.1904 -0.1237  0.3360
17263TIP3    H173204   3.696   1.057   2.126 -0.1495  0.4336  1.1181
17263TIP3    H273205   3.797   1.119   2.220  1.2109 -0.3162  0.1845
17264TIP3   OH273206   5.123   0.714  16.287 -0.2401 -0.6569 -0.1591
17264TIP3    H173207   5.061   0.758  16.230  1.5422 -1.0142 -2.5580
17264TIP3    H273208   5.073   0.643  16.327 -1.5144 -0.6105 -1.5811
17265TIP3   OH273209   5.230   2.339   5.924  0.0628  0.0782 -0.6075
17265TIP3    H173210   5.248   2.421   5.879  0.1905  1.2566  1.4751
17265TIP3    H273211   5.309   2.286   5.909  1.2081  1.4402  0.3066
17266TIP3   OH273212   4.662   0.219  15.144  0.2448 -0.0611 -0.0553
17266TIP3    H173213   4.663   0.124  15.136  2.1314 -0.2889  1.8308
17266TIP3    H273214   4.573   0.239  15.173 -0.0425 -1.3275  0.0246
17267TIP3   OH273215   2.785   0.301   2.939 -0.8433  0.2472 -0.2782
17267TIP3    H173216   2.810   0.209   2.949 -0.6527  0.2635 -0.6065
17267TIP3    H273217   2.703   0.299   2.892 -0.5759  0.2656 -0.7482
17268TIP3   OH273218   0.867   4.852   0.959  0.4242 -0.7169  0.6769
17268TIP3    H173219   0.908   4.910   0.895 -0.3121 -1.1327 -0.1916
17268TIP3    H273220   0.913   4.769   0.950 -0.0411 -0.9386  0.2891
17269TIP3   OH273221   1.620   2.089   1.170 -0.6177 -0.5412 -0.5521
17269TIP3    H173222   1.553   2.022   1.155 -0.9289 -0.4199  0.2328
17269TIP3    H273223   1.691   2.065   1.111 -0.0854 -2.4630  0.7714
17270TIP3   OH273224   5.015   1.893   1.017  0.2615  0.2140  0.0551
17270TIP3    H173225   5.055   1.945   1.087  1.0938  1.1114 -1.0450
17270TIP3    H273226   5.023   1.803   1.046  1.5594  0.5000  0.6390
17271TIP3   OH273227   4.050   5.704  15.676  0.7007  0.1145 -0.2543
17271TIP3    H173228   4.043   5.645  15.601  0.0962  0.7998 -0.7368
17271TIP3    H273229   4.123   5.668  15.727 -0.5417 -1.8869  0.2112
17272TIP3   OH273230   6.685   3.713   1.339  0.6991 -0.0737 -0.0362
17272TIP3    H173231   6.622   3.780   1.311 -0.7327 -1.2334  0.3225
17272TIP3    H273232   6.771   3.752   1.318 -0.0661  1.8837  0.1950
17273TIP3   OH273233   3.017   0.703  13.069  0.1549 -0.1285  0.1848
17273TIP3    H173234   3.109   0.708  13.042 -0.6075 -0.1940 -2.8325
17273TIP3    H273235   2.982   0.789  13.049 -0.8396 -0.6900 -0.5752
17274TIP3   OH273236   1.480   6.685   0.721  0.2033 -0.0573  0.1330
17274TIP3    H173237   1.483   6.656   0.630  1.2106 -2.5859  0.8747
17274TIP3    H273238   1.439   6.612   0.768  0.5193  0.8083  1.8264
17275TIP3   OH273239   3.658   4.406   6.055  0.0224 -0.8576  0.4340
17275TIP3    H173240   3.572   4.375   6.083  0.3023 -0.4795  1.7870
17275TIP3    H273241   3.720   4.348   6.099  0.4670 -1.3537 -0.8137
17276TIP3   OH273242   6.608   0.445   5.320 -0.2248 -0.1890 -0.5472
17276TIP3    H173243   6.518   0.414   5.328 -0.6499  1.1695  0.3435
17276TIP3    H273244   6.641   0.402   5.242 -1.0066 -2.1988  0.1567
17277TIP3   OH273245   1.811   2.672  16.463 -0.0949  0.0470 -0.1828
17277TIP3    H173246   1.820   2.628  16.547  1.4443 -1.2088 -0.9432
17277TIP3    H273247   1.892   2.723  16.454 -1.5482  2.6113  0.3754
17278TIP3   OH273248   5.327   2.516  11.688 -0.0884 -0.1969  0.6406
17278TIP3    H173249   5.416   2.494  11.715  0.7756  2.6513  0.4029
17278TIP3    H273250   5.324   2.612  11.689 -3.5092 -0.1831  1.7011
17279TIP3   OH273251   4.284   0.498   2.116 -0.0510 -0.3434  0.3727
17279TIP3    H173252   4.228   0.423   2.093 -1.5070  0.9982 -0.6721
17279TIP3    H273253   4.320   0.475   2.201 -0.4417 -2.2418  0.0803
17280TIP3   OH273254   1.054   3.481  11.604  0.1037 -0.1121  0.4740
17280TIP3    H173255   1.081   3.570  11.628 -0.2003  0.1459 -0.1147
17280TIP3    H273256   0.958   3.484  11.606  0.0575 -0.0433 -0.8611
17281TIP3   OH273257   0.282   3.683  16.069 -0.0527 -0.0137  0.3611
17281TIP3    H173258   0.355   3.657  16.013  0.4094  0.3341  0.7988
17281TIP3    H273259   0.227   3.604  16.074 -1.5951  0.7055 -2.8186
17282TIP3   OH273260   3.026   4.454   5.910 -0.0579  0.0876  0.5570
17282TIP3    H173261   3.027   4.531   5.967 -2.1600 -0.4524  1.3975
17282TIP3    H273262   3.001   4.382   5.967  1.9139 -1.3046 -0.2107
17283TIP3   OH273263   5.486   3.817  15.897 -0.2047 -0.7267 -0.1518
17283TIP3    H173264   5.489   3.821  15.802  2.4858  0.5250 -0.0889
17283TIP3    H273265   5.526   3.733  15.919 -1.8433 -1.5324 -0.0941
17284TIP3   OH273266   5.729   4.926  16.727  0.4505  0.5262 -0.5472
17284TIP3    H173267   5.717   4.850  16.670  0.5876  1.2693 -1.5960
17284TIP3    H273268   5.775   4.990  16.673 -0.0362  1.5192  0.1763
17285TIP3   OH273269   5.355   3.861  12.903  0.2856 -0.0955 -0.1704
17285TIP3    H173270   5.292   3.924  12.936  0.1178 -0.4134  0.1198
17285TIP3    H273271   5.437   3.910  12.894  0.0015  0.3124 -0.5417
17286TIP3   OH273272   2.875   4.995  15.470  0.1496 -0.4877  0.2103
17286TIP3    H173273   2.879   4.925  15.535  0.9741 -0.9504 -0.3140
17286TIP3    H273274   2.952   5.049  15.487  0.5843 -0.8282 -0.5894
17287TIP3   OH273275   2.667   3.035  11.655 -0.3006  0.0886 -0.3644
17287TIP3    H173276   2.744   3.000  11.701  0.3631  0.8343 -0.8901
17287TIP3    H273277   2.678   3.007  11.564  0.2230  1.5775 -0.7883
17288TIP3   OH273278   0.892   4.310  14.761 -0.1400  0.3505 -0.7371
17288TIP3    H173279   0.951   4.370  14.716  0.4659 -0.7313 -1.4308
17288TIP3    H273280   0.877   4.239  14.698  1.7073 -1.8432  1.1039
17289TIP3   OH273281   0.119   3.326  15.092 -0.5426  0.2287  0.7640
17289TIP3    H173282   0.208   3.319  15.128 -0.5104 -0.4940  0.5557
17289TIP3    H273283   0.085   3.237  15.095  0.1876 -0.3448 -2.8350
17290TIP3   OH273284   0.855   0.075   0.626 -0.2869  0.1757  0.0266
17290TIP3    H173285   0.924   0.127   0.587  0.6116 -2.1146 -1.6378
17290TIP3    H273286   0.816   0.133   0.692  3.3135  1.5063  1.2262
17291TIP3   OH273287   0.112   5.907  16.976  0.1318 -0.4430 -0.2181
17291TIP3    H173288   0.171   5.976  17.008  0.8322 -0.4922 -1.3708
17291TIP3    H273289   0.044   5.901  17.044  0.4131  0.9194  0.2165
17292TIP3   OH273290   2.599   0.205  16.711 -0.4835  0.6003  0.2587
17292TIP3    H173291   2.632   0.237  16.795 -0.4863  0.3563  0.3559
17292TIP3    H273292   2.677   0.199  16.655 -0.2345 -0.6967  0.7167
17293TIP3   OH273293   5.370   2.427   2.651 -0.1511 -0.8058 -0.0946
17293TIP3    H173294   5.340   2.369   2.580  0.2557 -0.9291 -0.1653
17293TIP3    H273295   5.417   2.369   2.710 -0.4339 -0.6902  0.2490
17294TIP3   OH273296   5.860   1.168   0.641  0.1823  0.1845 -0.0329
17294TIP3    H173297   5.767   1.173   0.619 -0.1739  0.2025  1.3837
17294TIP3    H273298   5.868   1.087   0.692  0.9009  0.3164  0.0671
17295TIP3   OH273299   2.846   2.912   5.627  0.4268  0.1199  0.8060
17295TIP3    H173300   2.897   2.915   5.546  0.3265  1.8799  0.7681
17295TIP3    H273301   2.884   2.839   5.676  0.6228 -0.8597 -0.7167
17296TIP3   OH273302   6.567   3.254   5.852 -0.0047  0.1463 -0.0204
17296TIP3    H173303   6.636   3.319   5.844  2.1202 -1.9258  0.4220
17296TIP3    H273304   6.544   3.230   5.762  0.5447  0.1766 -0.1696
17297TIP3   OH273305   1.231   2.060  15.580 -0.5937  0.1785  0.4728
17297TIP3    H173306   1.218   2.153  15.563 -0.0601  0.1419 -0.2233
17297TIP3    H273307   1.312   2.056  15.631 -0.0976  0.0473 -0.3065
17298TIP3   OH273308   1.288   4.004  13.951  0.2836  0.1985  0.5166
17298TIP3    H173309   1.329   3.924  13.920  0.1247 -0.6006  2.2267
17298TIP3    H273310   1.281   3.992  14.046 -1.2767  1.5213  0.6195
17299TIP3   OH273311   5.242   0.482   2.006  0.5564  0.5366 -0.3224
17299TIP3    H173312   5.317   0.476   1.948  2.1137  1.2187  1.5099
17299TIP3    H273313   5.199   0.564   1.982  0.8307  0.5116 -0.9057
17300TIP3   OH273314   5.444   3.388   0.692 -0.3949  0.1443 -0.1317
17300TIP3    H173315   5.349   3.372   0.693  0.1749 -4.8868 -0.9916
17300TIP3    H273316   5.470   3.372   0.602  1.4033  1.0840  0.1719
17301TIP3   OH273317   2.383   6.343  15.055 -0.1575  0.0872  0.0591
17301TIP3    H173318   2.305   6.398  15.048 -0.3080 -0.1751 -0.4092
17301TIP3    H273319   2.387   6.317  15.147  0.0428  1.0602  0.3322
17302TIP3   OH273320   3.623   4.624  12.501 -0.4397  0.2956  0.4015
17302TIP3    H173321   3.537   4.652  12.534 -1.1300 -0.9347 -0.2534
17302TIP3    H273322   3.649   4.694  12.441 -1.0982  0.5740  0.4279
17303TIP3   OH273323   3.454   5.525  12.707 -0.3167  0.4461 -0.0072
17303TIP3    H173324   3.534   5.532  12.759  0.8167  1.3995 -1.7619
17303TIP3    H273325   3.466   5.446  12.654 -1.2284 -0.2369  0.7770
17304TIP3   OH273326   1.348   6.323  11.211 -0.5914 -0.7015 -0.3300
17304TIP3    H173327   1.268   6.375  11.217 -1.0601 -1.5438  3.0198
17304TIP3    H273328   1.322   6.237  11.245  1.5547 -1.1726  0.2310
17305TIP3   OH273329   6.602   2.535  13.928 -0.1105  0.0342 -0.1399
17305TIP3    H173330   6.545   2.460  13.949 -0.3106  0.4259  0.7672
17305TIP3    H273331   6.541   2.607  13.911  0.0793 -0.0174 -1.1319
17306TIP3   OH273332   2.275   2.857  12.136 -0.2085 -0.2479 -0.2948
17306TIP3    H173333   2.323   2.810  12.204 -0.6278 -0.8437 -0.4091
17306TIP3    H273334   2.213   2.912  12.184 -0.5514 -0.7193 -0.1907
17307TIP3   OH273335   0.663   4.287  10.905 -0.1097  0.8078 -0.4590
17307TIP3    H173336   0.706   4.293  10.819 -0.0116 -0.2538 -0.4897
17307TIP3    H273337   0.586   4.343  10.897  0.7338  1.9985 -0.7135
17308TIP3   OH273338   6.326   1.103   1.085 -0.1750  0.1862  0.5521
17308TIP3    H173339   6.378   1.035   1.042  0.4915  0.4580  0.9270
17308TIP3    H273340   6.381   1.181   1.081 -1.8815  1.4170 -2.1188
17309TIP3   OH273341   5.251   6.642  12.943  0.1568  0.3104 -0.2166
17309TIP3    H173342   5.173   6.696  12.930 -1.0105 -1.6162 -1.9937
17309TIP3    H273343   5.220   6.569  12.997  1.3246  0.6254  0.9217
17310TIP3   OH273344   3.745   4.018   2.920 -0.1743 -0.2841 -0.2893
17310TIP3    H173345   3.835   4.051   2.919 -0.3403  0.1671 -0.3972
17310TIP3    H273346   3.731   3.981   2.833  0.1180 -0.9394 -0.0654
17311TIP3   OH273347   0.509   0.305  15.531  0.1478 -0.5982 -0.3174
17311TIP3    H173348   0.462   0.237  15.482 -0.4469  0.1166 -0.7700
17311TIP3    H273349   0.504   0.276  15.622  1.0471 -1.8164 -0.6306
17312TIP3   OH273350   5.366   1.026   4.227 -0.4314 -0.3397 -0.2438
17312TIP3    H173351   5.341   1.077   4.150 -1.2755 -2.2490 -1.3015
17312TIP3    H273352   5.297   0.961   4.236 -0.2389 -0.3018  2.0400
17313TIP3   OH273353   2.462   6.645   0.812  0.2637  0.0309  0.8846
17313TIP3    H173354   2.413   6.572   0.849  2.1189 -0.5541  2.3259
17313TIP3    H273355   2.480   6.619   0.722 -0.5187 -0.5278  0.8805
17314TIP3   OH273356   2.879   2.002  14.695 -0.1866 -0.1303  0.2002
17314TIP3    H173357   2.829   2.034  14.770 -0.1040  0.3684  0.0452
17314TIP3    H273358   2.868   2.070  14.628 -1.2415 -1.1089 -0.6630
17315TIP3   OH273359   2.317   3.295   2.235  0.1992  0.4736 -0.0859
17315TIP3    H173360   2.380   3.226   2.257  0.6570  1.3891  1.7213
17315TIP3    H273361   2.232   3.261   2.263  0.5142  0.8488  1.4411
17316TIP3   OH273362   5.868   2.294   3.232 -0.3264  0.0099 -0.2309
17316TIP3    H173363   5.953   2.317   3.196 -0.5025 -1.4982 -1.7178
17316TIP3    H273364   5.885   2.271   3.323  1.0640 -1.2534 -0.7722
17317TIP3   OH273365   3.611   6.000   0.183  0.1631  0.1302  0.1522
17317TIP3    H173366   3.555   5.963   0.251  0.4091  0.8949  0.7876
17317TIP3    H273367   3.700   5.994   0.219  0.5396 -1.2356 -0.9147
17318TIP3   OH273368   1.352   4.424   2.213  0.4071  0.0429  0.1226
17318TIP3    H173369   1.420   4.376   2.167  0.6149  1.5597 -1.2469
17318TIP3    H273370   1.394   4.455   2.293  1.1152  0.3455 -0.3570
17319TIP3   OH273371   0.385   5.554  11.194  0.0511 -0.1724 -0.1108
17319TIP3    H173372   0.363   5.647  11.203 -2.4657 -0.4256 -2.2829
17319TIP3    H273373   0.405   5.544  11.101  0.0791 -1.8507  0.0545
17320TIP3   OH273374   4.866   1.152   3.825 -0.3247 -0.9005 -0.3524
17320TIP3    H173375   4.783   1.117   3.794 -0.7238 -0.4897  0.2282
17320TIP3    H273376   4.843   1.204   3.902  0.6510 -2.0375  0.7504
17321TIP3   OH273377   4.673   0.548  12.765 -0.1649 -0.0795 -0.4866
17321TIP3    H173378   4.688   0.510  12.851 -0.3384 -1.8700 -1.2152
17321TIP3    H273379   4.578   0.554  12.757 -0.2699 -2.0826 -1.3974
17322TIP3   OH273380   2.076   6.123   3.620  0.0689  0.1270 -0.2561
17322TIP3    H173381   2.117   6.199   3.662 -1.9450  0.5975  0.9733
17322TIP3    H273382   2.148   6.061   3.609  1.0052  0.5571  2.5729
17323TIP3   OH273383   3.762   4.886  16.841  0.0352 -0.4343 -0.5865
17323TIP3    H173384   3.734   4.912  16.929  0.1767 -0.3584 -0.5658
17323TIP3    H273385   3.819   4.810  16.855  2.9412  1.6656 -0.3256
17324TIP3   OH273386   0.257   6.374   4.651  0.5672  0.6867  0.2075
17324TIP3    H173387   0.195   6.338   4.715  0.7958 -3.1049 -1.4134
17324TIP3    H273388   0.339   6.327   4.668  0.6951 -0.2948 -2.6019
17325TIP3   OH273389   5.805   0.564   2.796 -0.1138 -0.1762 -0.1208
17325TIP3    H173390   5.767   0.477   2.803  0.8298 -0.7364 -1.4805
17325TIP3    H273391   5.769   0.599   2.714 -1.3639  1.1949  0.9636
17326TIP3   OH273392   1.019   0.237  15.518  0.0931 -0.7776  0.4477
17326TIP3    H173393   1.004   0.316  15.570  0.4216  0.7378 -1.6217
17326TIP3    H273394   0.933   0.214  15.484  0.3410  0.1671 -0.8916
17327TIP3   OH273395   1.643   5.263   3.969  0.1449  0.0160  0.1518
17327TIP3    H173396   1.725   5.305   3.942  0.7825 -1.1916  0.1200
17327TIP3    H273397   1.578   5.294   3.906  0.8916 -0.1162 -0.7063
17328TIP3   OH273398   4.618   3.036  11.813 -0.1792 -0.3422  1.0547
17328TIP3    H173399   4.658   2.950  11.804  0.9611  0.3189 -0.8330
17328TIP3    H273400   4.525   3.022  11.793 -0.0272 -1.1481  0.9088
17329TIP3   OH273401   4.089   1.548   3.128  0.6855 -0.5781  0.5978
17329TIP3    H173402   4.049   1.518   3.046  0.0774 -1.1127  1.0793
17329TIP3    H273403   4.020   1.599   3.170  0.8869 -0.5848  0.9333
17330TIP3   OH273404   2.225   0.810   1.116  0.2088 -0.2289  0.3299
17330TIP3    H173405   2.233   0.806   1.212 -1.1841 -0.6010  0.4569
17330TIP3    H273406   2.216   0.718   1.090  1.3326 -0.1873 -0.2539
17331TIP3   OH273407   4.661   5.227   5.405  0.3649  0.3873  0.6581
17331TIP3    H173408   4.712   5.307   5.397 -0.3746  0.7620 -0.6343
17331TIP3    H273409   4.643   5.201   5.314 -0.7074 -0.3873  1.0770
17332TIP3   OH273410   2.751   2.044   1.476  0.8811 -0.1894 -0.1933
17332TIP3    H173411   2.716   1.989   1.545 -0.7431 -0.0715 -0.8706
17332TIP3    H273412   2.838   2.069   1.506  0.6081 -0.9665  1.3149
17333TIP3   OH273413   0.523   0.839  16.470 -0.0751 -0.1838  0.2434
17333TIP3    H173414   0.465   0.763  16.471  0.8131 -0.8689  0.7764
17333TIP3    H273415   0.563   0.838  16.383 -1.2164  0.5885 -0.3160
17334TIP3   OH273416   6.066   0.844  16.056 -0.2502  0.4215 -0.2516
17334TIP3    H173417   6.147   0.807  16.091  1.1589  1.2776 -2.4097
17334TIP3    H273418   6.015   0.867  16.134  2.6321  2.0985  1.3287
17335TIP3   OH273419   5.841   1.823   4.970 -0.1569  0.0719 -0.0393
17335TIP3    H173420   5.791   1.870   4.903  0.9709  1.7024  0.2121
17335TIP3    H273421   5.775   1.772   5.018 -1.8336  3.0850  1.0886
17336TIP3   OH273422   0.459   0.466   1.313  0.8372 -0.2406  0.5406
17336TIP3    H173423   0.529   0.422   1.361  1.0518 -0.2627  0.2137
17336TIP3    H273424   0.449   0.551   1.356  0.3474 -0.6425  1.2430
17337TIP3   OH273425   6.414   6.231  15.083  0.0032  0.2421 -0.0768
17337TIP3    H173426   6.411   6.158  15.144 -2.0479  0.2084 -0.1574
17337TIP3    H273427   6.407   6.309  15.138  0.8929  0.3376 -0.0874
17338TIP3   OH273428   3.059   3.957   2.081  0.0992 -0.2054  0.2475
17338TIP3    H173429   3.016   3.944   2.166  1.2632  2.9405  1.4746
17338TIP3    H273430   3.029   4.044   2.053  2.8093  0.5581 -0.5445
17339TIP3   OH273431   4.836   2.517   1.654  0.5428  0.5572 -0.0623
17339TIP3    H173432   4.911   2.531   1.712  0.8014 -0.7650 -0.0412
17339TIP3    H273433   4.860   2.559   1.572  1.4912 -0.1689 -0.1760
17340TIP3   OH273434   6.620   6.623  15.912  0.9974  0.1301  0.7910
17340TIP3    H173435   6.704   6.605  15.871  1.0948 -1.0695  1.4813
17340TIP3    H273436   6.586   6.537  15.937 -0.7427  0.5199 -0.0442
17341TIP3   OH273437   2.362   6.207   4.877  0.4804  0.3391 -0.1005
17341TIP3    H173438   2.288   6.147   4.872  1.2681 -0.5716 -1.5407
17341TIP3    H273439   2.421   6.167   4.941 -0.1787  1.0002  0.9525
17342TIP3   OH273440   4.000   0.723  11.665  0.4402 -0.2019 -0.1448
17342TIP3    H173441   3.926   0.692  11.716  1.1625 -0.9803  0.4568
17342TIP3    H273442   4.070   0.659  11.682  0.8034 -0.3042 -1.8378
17343TIP3   OH273443   1.756   2.331  11.173 -0.2709  0.9677  0.7123
17343TIP3    H173444   1.803   2.248  11.179 -0.4058  0.8662  0.4181
17343TIP3    H273445   1.697   2.330  11.248  0.7430  1.4530  1.5407
17344TIP3   OH273446   0.061   4.497   0.334  0.4486 -0.3277 -0.0720
17344TIP3    H173447   0.114   4.566   0.373  2.5930 -2.2105  0.5078
17344TIP3    H273448   0.029   4.535   0.252  1.6179  1.3163  0.1905
17345TIP3   OH273449   0.869   5.173  12.923  0.0552  0.2441  0.0137
17345TIP3    H173450   0.964   5.167  12.923  0.1480  1.3734 -0.4673
17345TIP3    H273451   0.848   5.219  12.842 -1.0277 -1.4950 -0.7523
17346TIP3   OH273452   4.862   2.907   5.135  0.0844 -0.1517  0.2466
17346TIP3    H173453   4.837   2.815   5.150  1.4246 -1.4469 -4.0937
17346TIP3    H273454   4.780   2.949   5.109 -0.1333 -0.8037 -0.1762
17347TIP3   OH273455   1.624   3.354  15.946 -0.0849 -0.1046  0.1504
17347TIP3    H173456   1.675   3.418  15.896  1.1988 -0.8535  0.4740
17347TIP3    H273457   1.679   3.276  15.949 -1.2089 -0.9080  0.6136
17348TIP3   OH273458   6.391   0.661  15.456  0.4116 -0.1541  0.5868
17348TIP3    H173459   6.381   0.742  15.506  1.9959  0.5116 -0.1168
17348TIP3    H273460   6.373   0.687  15.366  1.8233 -0.3601  0.2304
17349TIP3   OH273461   2.202   0.643   0.705  0.5953  0.5530 -0.9494
17349TIP3    H173462   2.200   0.584   0.630  1.0024 -3.5457  1.9611
17349TIP3    H273463   2.295   0.658   0.723  0.5479  0.1458 -0.3271
17350TIP3   OH273464   0.126   5.897  15.558  0.5469 -0.1363 -0.6314
17350TIP3    H173465   0.048   5.854  15.592  0.6612 -0.6305 -0.9758
17350TIP3    H273466   0.126   5.984  15.598 -0.9483  0.3986 -1.7031
17351TIP3   OH273467   5.816   4.039   0.195  0.0234 -0.1787  0.0289
17351TIP3    H173468   5.729   4.024   0.232 -0.1322 -1.5020 -0.7757
17351TIP3    H273469   5.838   3.955   0.154 -0.0265  1.2505 -3.2129
17352TIP3   OH273470   2.874   3.894   1.146  0.3110  0.2694 -0.4414
17352TIP3    H173471   2.930   3.933   1.214  0.0192 -1.6950  1.0158
17352TIP3    H273472   2.787   3.890   1.186  0.4005 -2.1463 -0.3151
17353TIP3   OH273473   4.769   4.870  15.191  0.3654  0.3195 -0.0770
17353TIP3    H173474   4.702   4.841  15.129 -1.0011  2.2857  0.4106
17353TIP3    H273475   4.793   4.791  15.239 -1.3561 -0.5154 -0.5136
17354TIP3   OH273476   1.154   5.993   1.827 -0.5026  0.6322  0.0129
17354TIP3    H173477   1.207   5.918   1.854  1.3742  2.1442  0.8070
17354TIP3    H273478   1.173   6.004   1.734  1.0617  1.4282  0.3784
17355TIP3   OH273479   1.704   1.577   1.542  0.4998  0.6230 -0.2188
17355TIP3    H173480   1.734   1.506   1.599 -0.0939  0.4684 -0.0951
17355TIP3    H273481   1.756   1.652   1.569  0.2712  0.5327  0.4936
17356TIP3   OH273482   1.930   5.775   4.997  0.0960  0.2653  0.1549
17356TIP3    H173483   1.985   5.784   4.919  0.4680  0.6477  0.4537
17356TIP3    H273484   1.931   5.681   5.016 -0.6172  0.0636 -0.7322
17357TIP3   OH273485   5.124   5.521  13.056 -0.2434  0.2044 -0.3090
17357TIP3    H173486   5.176   5.453  13.013 -0.5427 -0.2523  0.0360
17357TIP3    H273487   5.189   5.581  13.092  0.1186 -1.0995  1.3232
17358TIP3   OH273488   1.670   1.542   3.612  0.6295 -0.0342 -0.1461
17358TIP3    H173489   1.612   1.615   3.632 -0.8861 -1.1884 -0.1729
17358TIP3    H273490   1.685   1.549   3.517 -1.1359 -0.8566 -0.5235
17359TIP3   OH273491   0.700   5.861  12.455 -0.0079  0.0562  0.1759
17359TIP3    H173492   0.772   5.881  12.515 -0.1398 -0.5375  0.5401
17359TIP3    H273493   0.635   5.929  12.472  0.5623  0.7449 -0.3316
17360TIP3   OH273494   5.950   1.065  12.358 -0.2391 -0.0239 -0.1724
17360TIP3    H173495   5.917   1.069  12.268 -0.8804  1.3424  0.1109
17360TIP3    H273496   5.977   1.154  12.378 -0.2726 -0.2775  1.0632
17361TIP3   OH273497   6.112   4.859  11.366 -0.2812  0.2077 -0.6700
17361TIP3    H173498   6.055   4.783  11.359  0.2372 -0.2730  0.1511
17361TIP3    H273499   6.194   4.825  11.401  0.3206  0.9811 -1.2695
17362TIP3   OH273500   5.791   5.309  16.334 -0.4679  0.5348  0.2432
17362TIP3    H173501   5.726   5.339  16.271  0.1985  1.3417 -0.0898
17362TIP3    H273502   5.874   5.345  16.301  0.0561  0.0167  0.9660
17363TIP3   OH273503   2.318   1.043  15.600  0.4668 -0.0849  0.2040
17363TIP3    H173504   2.276   1.115  15.553  0.8758  1.8436  2.5554
17363TIP3    H273505   2.372   1.086  15.667  1.6752 -2.5792  0.9803
17364TIP3   OH273506   1.562   6.516   2.482  0.0865  0.1425  0.5614
17364TIP3    H173507   1.537   6.502   2.391 -0.1800  0.9033  0.5102
17364TIP3    H273508   1.639   6.461   2.495  0.9181  1.0284 -0.4893
17365TIP3   OH273509   3.399   2.802  11.444  0.4339  0.0377 -0.3496
17365TIP3    H173510   3.460   2.799  11.518 -1.2497 -1.8394  1.0686
17365TIP3    H273511   3.386   2.711  11.419 -0.6126  0.4971 -1.6277
17366TIP3   OH273512   4.626   2.721  15.015 -0.3503 -0.5887 -0.7397
17366TIP3    H173513   4.670   2.636  15.015 -1.1900 -1.0584  0.7205
17366TIP3    H273514   4.590   2.729  15.103  1.2701  2.1354 -0.2244
17367TIP3   OH273515   6.718   0.760  14.694 -0.1590  0.3142  0.4750
17367TIP3    H173516   6.731   0.825  14.625 -1.8859 -0.0856 -0.2895
17367TIP3    H273517   6.664   0.693  14.653 -0.2258 -0.5346  1.8916
17368TIP3   OH273518   6.206   6.325  11.941  0.0271 -0.3862  0.2363
17368TIP3    H173519   6.233   6.342  12.031 -1.0273 -1.9096  0.8673
17368TIP3    H273520   6.113   6.304  11.947  0.0374 -0.9209 -1.1552
17369TIP3   OH273521   3.493   6.021  15.193 -0.1722 -0.0124 -0.1041
17369TIP3    H173522   3.555   5.951  15.210  1.4422  1.6703  1.3195
17369TIP3    H273523   3.449   6.036  15.276 -0.1933  0.9121 -0.2650
17370TIP3   OH273524   3.803   5.076   0.792  0.4293  0.2366 -0.5346
17370TIP3    H173525   3.819   5.048   0.882  0.1221 -0.5906 -0.7310
17370TIP3    H273526   3.888   5.066   0.748  0.4531  0.1483 -0.4683
17371TIP3   OH273527   0.367   0.022   4.809 -0.7458  0.2108  0.1072
17371TIP3    H173528   0.293  -0.034   4.834 -0.3720 -1.1176 -1.5539
17371TIP3    H273529   0.414  -0.029   4.742  0.5265  1.8659 -0.3261
17372TIP3   OH273530   5.009   5.658  15.753 -0.4145 -0.0180  0.5254
17372TIP3    H173531   4.947   5.604  15.705  0.3912 -1.2857  0.8469
17372TIP3    H273532   5.094   5.619  15.734  0.2510  1.4185  0.4342
17373TIP3   OH273533   3.719   2.308  15.444  0.1692  0.3891  0.2847
17373TIP3    H173534   3.769   2.339  15.368 -0.6571 -0.9739 -0.8727
17373TIP3    H273535   3.785   2.268  15.501  0.5906 -0.1555 -0.5666
17374TIP3   OH273536   6.433   3.281  14.543  0.1578  0.5699 -0.3485
17374TIP3    H173537   6.520   3.284  14.502  0.1197  1.6249 -0.3918
17374TIP3    H273538   6.450   3.288  14.637  0.1999 -1.0354 -0.2119
17375TIP3   OH273539   3.342   2.077   5.264 -0.1557  0.4458  0.2934
17375TIP3    H173540   3.252   2.065   5.236 -0.3023 -0.1244  0.9773
17375TIP3    H273541   3.394   2.070   5.184 -0.4987 -1.8514  0.2039
17376TIP3   OH273542   5.603   0.697  14.633  0.5589 -0.4151 -0.0448
17376TIP3    H173543   5.693   0.668  14.646  0.4194 -0.2531  1.3927
17376TIP3    H273544   5.568   0.709  14.721  0.3433  3.2732 -0.4555
17377TIP3   OH273545   0.410   1.186  16.251  0.3765 -0.0374 -0.3095
17377TIP3    H173546   0.343   1.140  16.202  0.9916 -1.0580 -0.2210
17377TIP3    H273547   0.387   1.173  16.343 -0.7261  1.7999 -0.2779
17378TIP3   OH273548   0.259   5.814  14.055 -0.0599 -0.4398 -0.0002
17378TIP3    H173549   0.254   5.816  13.959  1.1576  0.2353 -0.0705
17378TIP3    H273550   0.321   5.742  14.074 -0.2649 -0.5444  0.2778
17379TIP3   OH273551   0.940   3.735   0.143 -0.0919 -0.4511 -0.0839
17379TIP3    H173552   0.890   3.769   0.069 -0.7909 -0.4951  0.3561
17379TIP3    H273553   1.006   3.802   0.160  0.3146 -0.6047 -0.9668
17380TIP3   OH273554   0.822   4.185   2.072  0.0098 -0.1098  0.3583
17380TIP3    H173555   0.765   4.140   2.010  0.6251 -0.9029  0.3453
17380TIP3    H273556   0.864   4.254   2.020 -1.1317  0.6586  0.4410
17381TIP3   OH273557   6.194   0.913  16.299  0.5815 -0.0086 -0.5442
17381TIP3    H173558   6.278   0.958  16.305  1.3011 -1.2586 -0.9421
17381TIP3    H273559   6.216   0.820  16.303 -0.7095 -0.3890 -1.5448
17382TIP3   OH273560   5.711   3.630  11.580  0.0592  0.2699  0.1921
17382TIP3    H173561   5.638   3.619  11.640 -0.7831  1.1144 -0.6410
17382TIP3    H273562   5.738   3.541  11.558  0.0748 -0.0454  1.4292
17383TIP3   OH273563   2.717   4.125   4.031  0.5411  0.1476 -0.5784
17383TIP3    H173564   2.767   4.091   3.958  0.3620 -1.4882  0.0151
17383TIP3    H273565   2.772   4.193   4.069  0.9843  0.4369 -1.7231
17384TIP3   OH273566   3.775   5.272  12.143 -0.4251 -0.0497  0.2909
17384TIP3    H173567   3.791   5.366  12.144  0.5022 -0.1927  0.2216
17384TIP3    H273568   3.847   5.236  12.091 -1.7917 -0.6332 -1.3000
17385TIP3   OH273569   6.628   3.035   0.465  0.1846 -0.0622  0.0880
17385TIP3    H173570   6.672   2.993   0.540 -0.1722 -0.8921 -0.1500
17385TIP3    H273571   6.600   2.961   0.410 -1.5875  0.4420  0.2746
17386TIP3   OH273572   4.752   0.867  11.169 -1.3140  0.3559  0.6372
17386TIP3    H173573   4.776   0.786  11.213  0.5749  0.7281  0.3632
17386TIP3    H273574   4.753   0.845  11.076  0.7146  1.0215  0.4647
17387TIP3   OH273575   4.936   1.356  15.632 -0.5138  0.3609 -0.4813
17387TIP3    H173576   4.902   1.425  15.689 -0.3880  1.5213 -1.7523
17387TIP3    H273577   5.031   1.368  15.634 -0.5674  1.1338 -1.7780
17388TIP3   OH273578   0.399   1.183   1.938  0.2545 -0.3029  0.0682
17388TIP3    H173579   0.351   1.171   2.019  1.1174  1.6281  0.9264
17388TIP3    H273580   0.491   1.170   1.962  0.4413 -0.6798 -0.8084
17389TIP3   OH273581   1.280   5.285  13.793  0.3397 -0.7081  0.3504
17389TIP3    H173582   1.306   5.371  13.762 -1.0250  0.1035  1.3399
17389TIP3    H273583   1.281   5.293  13.889 -1.3980 -1.2558  0.4482
17390TIP3   OH273584   5.884   3.048   2.724 -0.5398  0.4455 -0.5473
17390TIP3    H173585   5.911   3.044   2.816 -0.6945  2.7581 -0.3413
17390TIP3    H273586   5.793   3.016   2.724 -0.2429 -0.4168 -0.0550
17391TIP3   OH273587   1.922   2.651   0.551 -0.3910 -0.1782  0.0976
17391TIP3    H173588   1.858   2.584   0.574 -0.0694 -0.0437  1.4637
17391TIP3    H273589   1.940   2.697   0.633  0.4958  0.6184 -0.5158
17392TIP3   OH273590   4.277   0.358  14.629  0.2657  0.5558  0.2161
17392TIP3    H173591   4.335   0.363  14.705 -0.1190  1.5006  0.4598
17392TIP3    H273592   4.248   0.448  14.614 -2.0624 -0.0140  0.8354
17393TIP3   OH273593   5.770   1.778  15.944  0.3984  0.2568 -0.0651
17393TIP3    H173594   5.818   1.861  15.952 -0.3939  0.6764  0.4696
17393TIP3    H273595   5.684   1.797  15.982  0.7233 -1.2405  1.5285
17394TIP3   OH273596   2.100   5.043  14.346  0.0149  0.1945 -0.8711
17394TIP3    H173597   2.068   5.125  14.309 -0.3289  1.5351  2.1522
17394TIP3    H273598   2.164   5.069  14.412  0.7649 -2.0593 -0.5871
17395TIP3   OH273599   4.401   4.550  11.170  0.5072  0.3147  0.3328
17395TIP3    H173600   4.309   4.536  11.190  0.3356  1.3607  0.3005
17395TIP3    H273601   4.440   4.462  11.175 -0.4152 -0.0859  0.6801
17396TIP3   OH273602   6.164   2.779   2.426 -0.4434 -0.3146  0.3787
17396TIP3    H173603   6.139   2.765   2.335 -2.1903 -0.4482  0.8476
17396TIP3    H273604   6.095   2.835   2.462  0.2498 -0.2092  1.6090
17397TIP3   OH273605   6.237   3.540  15.706  0.1643 -0.3072 -0.1713
17397TIP3    H173606   6.328   3.569  15.706 -0.0188  0.2928 -0.5551
17397TIP3    H273607   6.222   3.510  15.796 -0.1157  2.4737  0.8240
17398TIP3   OH273608   0.786   5.133   2.172  0.8149  0.2281  0.0598
17398TIP3    H173609   0.713   5.071   2.173  0.8404  0.0541 -2.7171
17398TIP3    H273610   0.746   5.218   2.193  0.1390 -0.1506  0.3307
17399TIP3   OH273611   1.844   2.094   5.569  0.3589 -0.1251 -0.4743
17399TIP3    H173612   1.824   2.071   5.660 -0.5432 -0.3509 -0.7175
17399TIP3    H273613   1.880   2.015   5.531 -1.6807 -0.8540 -1.0005
17400TIP3   OH273614   3.713   1.104  11.678 -0.5892  0.9168 -0.5138
17400TIP3    H173615   3.793   1.086  11.728 -1.0969  0.6885  0.2247
17400TIP3    H273616   3.743   1.159  11.605  0.4508 -0.2503 -0.9949
17401TIP3   OH273617   4.553   1.469  13.816  0.4312 -0.1549  0.1950
17401TIP3    H173618   4.488   1.485  13.748  0.3581 -1.2300 -0.0151
17401TIP3    H273619   4.511   1.406  13.875 -0.1560  1.9760  2.2012
17402TIP3   OH273620   6.318   2.374   3.770 -0.3001 -0.6204  0.6838
17402TIP3    H173621   6.312   2.395   3.863  0.0401  0.6371  0.4455
17402TIP3    H273622   6.290   2.454   3.725 -0.1260 -1.0866 -0.2989
17403TIP3   OH273623   2.455   0.442  15.147 -0.1975  0.2274 -0.2301
17403TIP3    H173624   2.522   0.399  15.201 -0.8821 -0.1624  0.3332
17403TIP3    H273625   2.435   0.523  15.193 -1.3005 -0.4409  0.5291
17404TIP3   OH273626   6.725   3.079  14.621  0.5990 -0.2374  0.3122
17404TIP3    H173627   6.736   3.000  14.568  1.6081 -0.0207  0.1851
17404TIP3    H273628   6.739   3.152  14.560 -2.6197  0.1406 -0.1227
17405TIP3   OH273629   5.612   0.059   2.462  0.1226  0.4046  0.3358
17405TIP3    H173630   5.544   0.078   2.398  0.6626  2.1447  0.2176
17405TIP3    H273631   5.688   0.108   2.431  0.7160  0.4049  1.7259
17406TIP3   OH273632   6.455   0.504   4.550 -0.8742 -0.4941  0.3435
17406TIP3    H173633   6.463   0.526   4.643  0.0061 -0.5564  0.2954
17406TIP3    H273634   6.497   0.577   4.505 -1.7660 -0.2108 -0.0366
17407TIP3   OH273635   6.079   3.332   2.103 -0.7976  0.6551 -0.0380
17407TIP3    H173636   6.013   3.308   2.038 -0.0026 -0.0084 -0.6164
17407TIP3    H273637   6.034   3.326   2.187 -1.4947  0.3069 -0.4327
17408TIP3   OH273638   6.780   0.186   3.838 -0.1763  0.4557  1.0493
17408TIP3    H173639   6.805   0.203   3.747  1.6566  1.5046  1.6996
17408TIP3    H273640   6.732   0.264   3.864  1.0677  1.0798  1.5578
17409TIP3   OH273641   0.280   0.567   2.997 -0.3914  0.2609  0.0182
17409TIP3    H173642   0.210   0.623   2.964  0.0711  0.7323 -0.1704
17409TIP3    H273643   0.239   0.516   3.068 -2.1994 -2.7503 -2.8994
17410TIP3   OH273644   4.862   0.966   6.635  0.5508 -0.5589  0.3793
17410TIP3    H173645   4.928   1.033   6.655  0.1579 -0.4238  1.2829
17410TIP3    H273646   4.887   0.933   6.549  1.1294  0.2968  0.2036
17411TIP3   OH273647   3.812   3.787   1.718 -0.0468 -0.0699 -0.3341
17411TIP3    H173648   3.881   3.724   1.698 -0.5942 -0.3149 -1.4998
17411TIP3    H273649   3.737   3.759   1.667 -0.2853  1.5552 -0.9526
17412TIP3   OH273650   6.745   3.591   5.021  0.1455  0.2065 -0.2522
17412TIP3    H173651   6.713   3.504   4.995  1.9176 -0.5383 -0.1609
17412TIP3    H273652   6.681   3.652   4.985 -1.7153 -1.1686  0.5615
17413TIP3   OH273653   6.497   1.504  16.173  0.2040  0.0938  0.0433
17413TIP3    H173654   6.565   1.437  16.184  0.2664 -0.1261 -1.4247
17413TIP3    H273655   6.463   1.488  16.085 -2.3377 -0.3183  1.0383
17414TIP3   OH273656   4.855   5.489  10.606 -0.3789 -0.5068 -0.1294
17414TIP3    H173657   4.844   5.581  10.582  0.5842 -0.4715 -0.4511
17414TIP3    H273658   4.927   5.458  10.551 -0.4751 -1.3657  0.2159
17415TIP3   OH273659   4.296   5.160  14.895 -0.2468 -0.0040 -0.1176
17415TIP3    H173660   4.335   5.244  14.872  0.7795 -0.5447 -0.3840
17415TIP3    H273661   4.355   5.094  14.858 -0.6326 -0.8529  0.7303
17416TIP3   OH273662   2.121   5.848   2.581  0.7694 -0.6389  0.1303
17416TIP3    H173663   2.041   5.824   2.533  0.0389  0.5761  0.7108
17416TIP3    H273664   2.192   5.825   2.521 -0.1222  0.8508 -1.5749
17417TIP3   OH273665   3.193   5.478  13.630  0.4597  0.2063  0.0035
17417TIP3    H173666   3.203   5.444  13.719 -0.4027  1.0766  0.4552
17417TIP3    H273667   3.109   5.443  13.600 -0.2926  1.6164  0.3588
17418TIP3   OH273668   4.480   0.971   5.526  0.2006  0.3167 -0.1458
17418TIP3    H173669   4.501   0.898   5.584  1.4257  1.0240  0.3455
17418TIP3    H273670   4.563   0.994   5.485 -0.2884  1.0395 -0.7707
17419TIP3   OH273671   2.150   2.471   4.247 -0.0326 -0.0608  0.4140
17419TIP3    H173672   2.118   2.421   4.322 -1.9869 -0.0912 -0.4015
17419TIP3    H273673   2.230   2.425   4.221 -1.6052 -2.6774 -0.1467
17420TIP3   OH273674   4.216   2.535  13.952  0.3026  0.3015  0.3086
17420TIP3    H173675   4.153   2.594  13.994 -0.5871 -0.8393  0.6385
17420TIP3    H273676   4.300   2.557  13.992 -0.4482 -0.4396  2.4021
17421TIP3   OH273677   3.806   3.206   4.156  0.0570 -0.2226  0.5925
17421TIP3    H173678   3.896   3.234   4.173 -0.2076  0.5519  0.7847
17421TIP3    H273679   3.807   3.111   4.167  0.8458 -0.2174  0.6096
17422TIP3   OH273680   6.372   4.751  14.022 -0.3446  0.2009  0.3492
17422TIP3    H173681   6.340   4.819  13.962 -1.3225  1.0553  1.7671
17422TIP3    H273682   6.467   4.750  14.008 -0.5250  0.5161 -1.0379
17423TIP3   OH273683   4.880   3.766  16.031  0.8010 -0.2959  0.1538
17423TIP3    H173684   4.909   3.810  16.111 -1.0317 -0.1693  0.8025
17423TIP3    H273685   4.831   3.833  15.984 -0.6848 -1.1548  0.3991
17424TIP3   OH273686   2.114   6.093  15.981 -0.4238 -0.0046 -0.0195
17424TIP3    H173687   2.091   6.060  15.894 -0.5349 -0.7068  0.2692
17424TIP3    H273688   2.153   6.179  15.964 -1.6937  0.4690 -0.6457
17425TIP3   OH273689   6.307   4.525   3.621 -0.6809 -0.7284 -0.1342
17425TIP3    H173690   6.281   4.448   3.570  1.1027 -2.2833  1.1341
17425TIP3    H273691   6.319   4.491   3.710 -1.2445  1.3566  0.8090
17426TIP3   OH273692   4.559   2.513   4.130  0.3835  0.3700  0.2978
17426TIP3    H173693   4.633   2.551   4.082  0.1996  0.9105  0.4365
17426TIP3    H273694   4.579   2.420   4.134  1.6970  0.6553  1.4063
17427TIP3   OH273695   2.765   0.107  16.129  0.2269  0.3514  0.4209
17427TIP3    H173696   2.736   0.019  16.104 -2.3790  1.4188 -0.6856
17427TIP3    H273697   2.861   0.102  16.128  0.2050 -1.8187 -2.0638
17428TIP3   OH273698   5.011   2.765   2.365 -0.5115 -0.2550  0.3680
17428TIP3    H173699   4.985   2.825   2.295  1.5917  0.8718  0.4647
17428TIP3    H273700   4.998   2.678   2.329  1.9215  0.2514 -2.0818
17429TIP3   OH273701   0.701   4.474  15.712  0.4311  0.2481 -0.1783
17429TIP3    H173702   0.668   4.467  15.802  1.3703  4.8658  0.7939
17429TIP3    H273703   0.631   4.517  15.664  0.5572 -0.7134 -1.2419
17430TIP3   OH273704   0.999   5.080   0.811  0.0621  0.2658 -0.7902
17430TIP3    H173705   0.963   5.084   0.723  1.1335  1.0787 -1.2231
17430TIP3    H273706   1.091   5.105   0.800  0.0070  1.2420  0.6736
17431TIP3   OH273707   0.960   3.470   0.012 -0.2824 -0.3768  0.2398
17431TIP3    H173708   1.052   3.457  -0.012 -0.2180 -1.0996  0.8411
17431TIP3    H273709   0.914   3.399  -0.032 -0.0858 -2.0925  2.6176
17432TIP3   OH273710   3.913   3.414   2.361  0.0765 -0.5131  0.8102
17432TIP3    H173711   3.958   3.378   2.438 -0.5629  0.9204  1.9106
17432TIP3    H273712   3.824   3.381   2.368  0.4080 -1.6870 -0.2367
17433TIP3   OH273713   1.361   4.948  14.170  0.4448  0.2846 -0.7552
17433TIP3    H173714   1.289   4.919  14.225  1.1952 -1.4182 -0.6221
17433TIP3    H273715   1.337   4.920  14.081  1.2500 -0.9706 -0.5998
17434TIP3   OH273716   2.434   5.881   4.619  0.2956 -0.0702 -0.1963
17434TIP3    H173717   2.517   5.870   4.574  0.4885 -3.9354  0.7356
17434TIP3    H273718   2.456   5.873   4.712 -0.9462  0.7184  0.2029
17435TIP3   OH273719   2.707   2.603   0.726  0.3672  0.5570 -0.4085
17435TIP3    H173720   2.669   2.602   0.638 -2.0005 -0.0340  0.5412
17435TIP3    H273721   2.657   2.670   0.773  0.8012  0.0529  0.8099
17436TIP3   OH273722   2.812   6.481  15.581  0.7716  0.0240  0.1086
17436TIP3    H173723   2.861   6.524  15.651 -0.4616  0.5062  0.7039
17436TIP3    H273724   2.721   6.506  15.596  0.3383 -0.7613 -1.0291
17437TIP3   OH273725   6.216   0.129   3.088 -0.5301 -0.5029 -0.3148
17437TIP3    H173726   6.245   0.131   2.997 -0.7869 -0.9442 -0.4098
17437TIP3    H273727   6.121   0.121   3.083 -0.6971  0.9841 -0.0068
17438TIP3   OH273728   4.819   3.984   2.725 -0.4538 -0.0354  0.3721
17438TIP3    H173729   4.763   3.971   2.648  0.7740 -0.6067 -0.4578
17438TIP3    H273730   4.903   4.011   2.689 -0.3864  1.5660  1.6394
17439TIP3   OH273731   0.737   6.768  12.110  0.2532 -0.0443  0.0152
17439TIP3    H173732   0.785   6.784  12.028 -2.3883  0.5909 -1.5149
17439TIP3    H273733   0.806   6.760  12.176  2.5683 -1.5553 -2.3632
17440TIP3   OH273734   5.601   2.670   5.638 -0.2702  0.3528 -0.2908
17440TIP3    H173735   5.649   2.721   5.704 -0.9583  1.6254 -0.7477
17440TIP3    H273736   5.513   2.660   5.675 -0.0602 -0.8220 -0.0585
17441TIP3   OH273737   5.122   1.697  12.496  0.1546  0.2426  0.0675
17441TIP3    H173738   5.186   1.658  12.437 -1.6318  0.3369 -2.0929
17441TIP3    H273739   5.121   1.790  12.473 -1.8275 -0.0113 -1.1444
17442TIP3   OH273740   2.052   1.696  15.040  0.3228 -0.3480  0.1936
17442TIP3    H173741   2.008   1.780  15.030  1.1982  0.0609 -0.3072
17442TIP3    H273742   2.060   1.684  15.135 -1.9844 -1.0509  0.3728
17443TIP3   OH273743   4.040   6.312  13.331 -0.4560  0.2875  0.0648
17443TIP3    H173744   4.039   6.231  13.280  0.4247  0.2234  0.1263
17443TIP3    H273745   3.991   6.374  13.277 -0.0097  0.0686 -0.6086
17444TIP3   OH273746   1.599   0.834  13.143 -0.5213  0.6957  0.6721
17444TIP3    H173747   1.643   0.752  13.118 -0.0300  0.9879  0.5580
17444TIP3    H273748   1.611   0.892  13.068 -1.6583  0.5830  0.3833
17445TIP3   OH273749   5.986   3.508  17.180  0.0774  0.2775  0.1439
17445TIP3    H173750   5.977   3.470  17.093  1.6144 -0.6403  0.3418
17445TIP3    H273751   6.039   3.586  17.167 -1.1987  1.1544  0.0434
17446TIP3   OH273752   1.518   6.398   0.251  0.4925 -0.2206 -0.3385
17446TIP3    H173753   1.457   6.415   0.179 -0.6530  2.8702  1.1683
17446TIP3    H273754   1.583   6.338   0.214 -0.0673  1.1456 -3.9216
17447TIP3   OH273755   3.327   1.827   1.217  0.6412 -0.1262  0.2773
17447TIP3    H173756   3.239   1.791   1.232  0.7678 -0.2265  0.7881
17447TIP3    H273757   3.385   1.768   1.265  0.9153  0.3816  0.5727
17448TIP3   OH273758   5.572   3.473  13.688  0.3643  0.1393  0.2536
17448TIP3    H173759   5.532   3.546  13.734  0.1147  0.2228 -0.0939
17448TIP3    H273760   5.516   3.458  13.612  0.6738 -0.1089  0.0686
17449TIP3   OH273761   2.528   3.004   4.879  0.0062 -0.5241 -0.3307
17449TIP3    H173762   2.569   3.086   4.908  2.9515 -1.2409 -2.0392
17449TIP3    H273763   2.438   3.029   4.858  0.3777  1.9426  0.6250
17450TIP3   OH273764   5.971   0.088   5.192 -0.2071 -0.0946 -0.3625
17450TIP3    H173765   5.936   0.081   5.104 -0.8847 -1.9862 -0.0057
17450TIP3    H273766   6.064   0.067   5.183 -0.4261 -1.0597 -0.5684
17451TIP3   OH273767   2.105   5.907   1.006 -0.0199  0.4971 -0.2665
17451TIP3    H173768   2.042   5.979   0.996  0.2141  0.9810  1.3448
17451TIP3    H273769   2.118   5.901   1.101 -0.0123 -1.6746 -0.3724
17452TIP3   OH273770   0.794   1.953   0.115  0.3203  0.5245  0.4167
17452TIP3    H173771   0.864   2.016   0.100 -1.8031  3.2093  0.9377
17452TIP3    H273772   0.767   1.969   0.206 -0.3131 -1.1495  0.5515
17453TIP3   OH273773   1.882   3.299  11.473 -0.3435 -0.4550 -0.7352
17453TIP3    H173774   1.825   3.289  11.549 -0.5415 -0.2881 -0.8604
17453TIP3    H273775   1.822   3.309  11.399 -0.1616 -1.3630 -1.0165
17454TIP3   OH273776   1.743   1.719   5.424  0.1026  0.4403  0.2409
17454TIP3    H173777   1.816   1.661   5.403 -0.9724 -0.6730 -0.5943
17454TIP3    H273778   1.719   1.759   5.340 -0.0926  0.9826  0.5523
17455TIP3   OH273779   1.808   5.734   6.083  1.2307  0.3731 -0.4527
17455TIP3    H173780   1.853   5.656   6.050  1.3393  0.3028 -0.1409
17455TIP3    H273781   1.737   5.701   6.138  0.3095  0.4717 -1.5516
17456TIP3   OH273782   5.067   5.157  13.769 -0.6631  0.1045  0.4864
17456TIP3    H173783   5.005   5.117  13.829 -0.3513 -0.7456  0.2572
17456TIP3    H273784   5.038   5.130  13.682 -0.3630  0.2548  0.3359
17457TIP3   OH273785   5.509   0.300   1.410 -0.4610 -0.4649  0.2752
17457TIP3    H173786   5.432   0.333   1.363 -1.1208 -2.1582  0.1244
17457TIP3    H273787   5.474   0.258   1.488  0.3664 -0.7640  0.4927
17458TIP3   OH273788   0.134   5.812  12.781 -0.3277 -0.1179 -0.3341
17458TIP3    H173789   0.074   5.793  12.709 -0.6840  1.2077 -0.4188
17458TIP3    H273790   0.167   5.899  12.762 -1.7820  1.0543  1.9760
17459TIP3   OH273791   5.702   4.754   2.264  0.0444  0.5864  0.0192
17459TIP3    H173792   5.788   4.794   2.279  0.1297  0.6303 -0.5901
17459TIP3    H273793   5.719   4.681   2.205 -0.2690  0.2928  0.2852
17460TIP3   OH273794   1.704   3.937   3.681  0.4261 -0.3651 -0.6503
17460TIP3    H173795   1.758   3.897   3.612  0.3882 -0.1220 -0.8230
17460TIP3    H273796   1.646   3.866   3.710  1.2623 -0.8033 -0.0236
17461TIP3   OH273797   6.331   5.978  11.030 -0.1276 -0.5883  0.3782
17461TIP3    H173798   6.400   5.915  11.047 -0.8685 -1.8253 -0.9431
17461TIP3    H273799   6.316   5.972  10.936 -0.5858  1.2044  0.3008
17462TIP3   OH273800   4.368   3.090  14.212 -0.2756  0.1265 -0.2718
17462TIP3    H173801   4.426   3.112  14.139 -1.6015 -0.1595 -1.4470
17462TIP3    H273802   4.428   3.068  14.284  1.0643  0.7078 -1.1552
17463TIP3   OH273803   3.415   4.514  14.146  0.3315  0.6556  0.3593
17463TIP3    H173804   3.501   4.540  14.115 -0.0845  1.6873  0.0378
17463TIP3    H273805   3.361   4.593  14.138 -1.3965 -0.6436 -2.1689
17464TIP3   OH273806   6.591   0.699   3.318 -0.1649 -0.1240 -0.2269
17464TIP3    H173807   6.547   0.661   3.242 -3.2571  0.0962  1.2861
17464TIP3    H273808   6.578   0.635   3.388  3.5891 -0.8534  0.0124
17465TIP3   OH273809   6.545   3.279  12.418  0.4374  0.2324 -0.3932
17465TIP3    H173810   6.530   3.303  12.509 -2.0652  1.4940 -1.0416
17465TIP3    H273811   6.479   3.213  12.399  0.0858  0.8846 -1.5856
17466TIP3   OH273812   3.735   4.767  17.138  0.4582  0.2434 -0.8488
17466TIP3    H173813   3.714   4.761  17.232  1.6025  0.8886 -0.5243
17466TIP3    H273814   3.716   4.680  17.103 -0.8649  0.2545 -0.2145
17467TIP3   OH273815   3.500   6.267  17.028  0.5442 -0.4507  0.4583
17467TIP3    H173816   3.533   6.285  17.116  0.4980 -1.5847  0.7188
17467TIP3    H273817   3.548   6.189  16.999  0.8127  0.1068 -0.6675
17468TIP3   OH273818   6.703   6.615   1.220  0.1916 -0.4144 -0.2873
17468TIP3    H173819   6.752   6.616   1.302 -2.7063  2.7963  1.6955
17468TIP3    H273820   6.659   6.531   1.219 -0.1953 -0.2975  1.8611
17469TIP3   OH273821   6.752   0.567   6.056 -0.0299  0.3396  0.1789
17469TIP3    H173822   6.760   0.616   6.138 -2.1324 -1.4826  1.5985
17469TIP3    H273823   6.813   0.494   6.067  0.6470  0.7974 -0.4791
17470TIP3   OH273824   4.266   3.992   5.547 -0.7257  0.1113  0.0591
17470TIP3    H173825   4.346   3.940   5.535 -1.8033 -1.4169 -0.8900
17470TIP3    H273826   4.291   4.081   5.521  1.1342  0.0979  1.5514
17471TIP3   OH273827   3.764   1.033   5.617 -0.0650 -0.5157 -0.7944
17471TIP3    H173828   3.683   1.076   5.645  2.6701  3.4443  2.1012
17471TIP3    H273829   3.787   0.975   5.690  0.9325  0.3520 -0.4031
17472TIP3   OH273830   3.227   0.195  13.516 -0.2125  0.8064 -0.1675
17472TIP3    H173831   3.289   0.186  13.444 -0.8724  0.1063 -0.6723
17472TIP3    H273832   3.172   0.117  13.510 -0.3304  0.7683  1.0611
17473TIP3   OH273833   2.917   6.483   5.376 -0.3528 -0.0563  0.1715
17473TIP3    H173834   2.951   6.445   5.457  0.4974  0.2614 -0.0202
17473TIP3    H273835   2.986   6.542   5.347  0.0130 -1.2327 -1.5507
17474TIP3   OH273836   4.892   6.254  16.132 -0.1276 -0.1069  0.5929
17474TIP3    H173837   4.885   6.204  16.213 -1.8738 -0.7503  0.0951
17474TIP3    H273838   4.801   6.276  16.110  0.3458  0.4176 -0.9661
17475TIP3   OH273839   1.538   0.477  16.220  0.5229 -0.2988  0.3846
17475TIP3    H173840   1.523   0.567  16.193  2.3219 -0.0275  0.1740
17475TIP3    H273841   1.450   0.440  16.231 -0.2477  0.9910 -1.1073
17476TIP3   OH273842   2.281   6.631  16.114  0.0349 -0.3356  0.1008
17476TIP3    H173843   2.210   6.691  16.135 -0.8194 -1.8050  1.6918
17476TIP3    H273844   2.305   6.591  16.198  1.5286 -1.1823 -0.6759
17477TIP3   OH273845   2.867   0.979   1.470 -0.1899  0.0057  0.1395
17477TIP3    H173846   2.912   0.934   1.541  1.1734  0.5656 -0.3348
17477TIP3    H273847   2.937   1.024   1.423 -1.0617 -0.3535 -1.5593
17478TIP3   OH273848   0.740   2.836  15.704  0.3556 -0.1180  0.3531
17478TIP3    H173849   0.763   2.896  15.633  1.0337 -0.2738  0.4378
17478TIP3    H273850   0.791   2.757  15.687  0.7631 -0.0403  1.1859
17479TIP3   OH273851   5.705   1.594   4.012 -0.5576 -0.6799 -0.1585
17479TIP3    H173852   5.696   1.559   3.924 -0.4528 -2.5570  0.5286
17479TIP3    H273853   5.641   1.665   4.016  0.3337  0.3027 -2.1156
17480TIP3   OH273854   2.685   2.095   5.859  0.4019  0.0230 -0.1883
17480TIP3    H173855   2.758   2.067   5.914  0.2667 -0.2904 -0.1687
17480TIP3    H273856   2.608   2.052   5.896  0.3439 -0.3633 -0.7443
17481TIP3   OH273857   4.589   3.339  10.853  0.0643 -0.1979 -0.4529
17481TIP3    H173858   4.646   3.311  10.781  1.2005  1.9307 -0.4676
17481TIP3    H273859   4.517   3.275  10.853  0.7843 -1.1003 -2.5183
17482TIP3   OH273860   0.984   0.976  11.365 -0.0250 -0.0467 -0.0229
17482TIP3    H173861   0.939   0.940  11.441 -4.0962  0.0380 -2.1119
17482TIP3    H273862   0.999   1.068  11.387 -0.1264 -0.2708  1.0390
17483TIP3   OH273863   6.670   0.306   4.283 -0.4696  0.1715 -0.5702
17483TIP3    H173864   6.669   0.402   4.276  0.8361  0.0928 -3.8657
17483TIP3    H273865   6.762   0.284   4.289 -0.7987 -0.9311  3.5684
17484TIP3   OH273866   5.930   2.684  16.714  0.2637 -0.0689  0.3891
17484TIP3    H173867   5.909   2.676  16.807 -0.5577 -0.9343  0.1507
17484TIP3    H273868   5.981   2.764  16.708 -2.0384  1.5799  1.2175
17485TIP3   OH273869   0.862   3.795  11.421  1.0921  0.3445  0.1637
17485TIP3    H173870   0.827   3.835  11.501  0.4999  0.1774 -0.0061
17485TIP3    H273871   0.814   3.713  11.412  0.5557  0.7482 -0.8147
17486TIP3   OH273872   2.333   5.490   1.965  0.6484 -0.0203  0.0522
17486TIP3    H173873   2.253   5.541   1.956  1.4171  1.4214  1.0045
17486TIP3    H273874   2.363   5.475   1.876 -0.0666  0.4058 -0.2673
17487TIP3   OH273875   2.155   2.225   0.906  0.6000 -0.1664  0.1091
17487TIP3    H173876   2.125   2.316   0.911 -1.1148 -0.5790 -1.5704
17487TIP3    H273877   2.170   2.210   0.813  1.8593 -1.3338  0.4740
17488TIP3   OH273878   2.818   4.634   4.083  0.2226 -0.4324 -0.2421
17488TIP3    H173879   2.842   4.685   4.005  0.0732  1.0661  0.6543
17488TIP3    H273880   2.722   4.638   4.085  0.0593 -2.5711 -1.3070
17489TIP3   OH273881   5.503   5.118   3.145 -0.0506 -0.7356  0.1839
17489TIP3    H173882   5.456   5.048   3.190  1.6853 -1.7735  0.4576
17489TIP3    H273883   5.475   5.111   3.054  0.6620 -2.3095  0.0575
17490TIP3   OH273884   4.947   2.484  13.641 -0.1756  0.0593 -0.2519
17490TIP3    H173885   4.968   2.459  13.551  1.1027 -1.4251  0.4257
17490TIP3    H273886   5.029   2.473  13.689 -0.4570  2.2344  0.8467
17491TIP3   OH273887   1.355   3.093   4.019  0.1065 -0.1044 -0.5009
17491TIP3    H173888   1.288   3.025   4.006 -1.5830  1.2862  0.4009
17491TIP3    H273889   1.368   3.095   4.114  0.8986  0.1585 -0.6120
17492TIP3   OH273890   1.913   2.423   1.449  0.4370  0.1429 -0.3891
17492TIP3    H173891   1.849   2.473   1.399  2.0816  0.4519 -2.3035
17492TIP3    H273892   1.862   2.381   1.519 -1.3959  2.4323 -0.2334
17493TIP3   OH273893   3.083   5.980  16.102 -0.0064 -0.0696 -0.3896
17493TIP3    H173894   3.122   5.897  16.076 -1.5763 -0.2686 -2.3305
17493TIP3    H273895   3.008   5.955  16.156  0.6908  0.2029  0.7475
17494TIP3   OH273896   6.165   0.943   1.314 -0.5596  0.2195  0.1190
17494TIP3    H173897   6.227   0.918   1.382 -0.8140 -2.0176 -0.3939
17494TIP3    H273898   6.209   1.014   1.267  1.6207 -1.1766 -0.1292
17495TIP3   OH273899   4.609   0.494   4.629 -0.0158  0.2877 -0.4718
17495TIP3    H173900   4.570   0.506   4.542  1.1963  2.9550 -0.7559
17495TIP3    H273901   4.693   0.452   4.612  0.8892  2.1411 -0.8294
17496TIP3   OH273902   3.523   2.934   4.292 -0.0807  0.0909  0.0983
17496TIP3    H173903   3.617   2.914   4.286  0.4400  2.3189 -0.3284
17496TIP3    H273904   3.479   2.854   4.264  1.7211 -0.7032 -0.6018
17497TIP3   OH273905   2.976   5.603   4.862 -0.2508 -0.3689 -0.3890
17497TIP3    H173906   3.053   5.616   4.917 -0.5747 -1.4544  0.3582
17497TIP3    H273907   2.927   5.532   4.905 -0.6723 -1.0384 -1.8906
17498TIP3   OH273908   6.590   3.896  10.458 -0.0745 -0.2521 -0.2436
17498TIP3    H173909   6.685   3.908  10.452 -0.3454  2.1842 -0.2931
17498TIP3    H273910   6.561   3.962  10.521 -1.7212 -1.2829  0.1553
17499TIP3   OH273911   0.254   6.229  15.148  0.4271  0.1895 -0.0783
17499TIP3    H173912   0.176   6.282  15.162  0.4795  0.0125  0.9187
17499TIP3    H273913   0.283   6.253  15.059 -1.5294 -0.7790 -1.0262
17500TIP3   OH273914   3.768   5.249  11.777 -0.2462 -0.0178 -0.0391
17500TIP3    H173915   3.692   5.196  11.800  0.5000 -1.0217  0.1669
17500TIP3    H273916   3.758   5.330  11.828 -0.6813 -0.5398  0.7106
17501TIP3   OH273917   4.307   2.108   1.823 -0.2500  0.0949  0.0749
17501TIP3    H173918   4.326   2.146   1.909  2.2624  0.3832 -0.5341
17501TIP3    H273919   4.392   2.102   1.780 -1.2662 -1.3482 -1.8859
17502TIP3   OH273920   6.462   2.717  11.616  0.3536  0.0494 -0.1202
17502TIP3    H173921   6.455   2.750  11.705 -0.2760  1.7546 -0.7635
17502TIP3    H273922   6.448   2.793  11.561  0.4783 -1.0161 -1.6954
17503TIP3   OH273923   2.334   3.019   0.746  0.3544  0.0621 -0.1406
17503TIP3    H173924   2.289   2.965   0.681 -0.1718 -0.1931  0.4229
17503TIP3    H273925   2.393   3.074   0.695  2.3175 -2.3366 -0.6013
17504TIP3   OH273926   1.739   6.507   2.231  0.5602 -0.5762 -0.0624
17504TIP3    H173927   1.697   6.422   2.241 -1.7421  0.3550 -1.0101
17504TIP3    H273928   1.733   6.526   2.137  0.8557  0.7107  0.1563
17505TIP3   OH273929   4.593   3.068   2.731  0.5755  0.1573 -0.0700
17505TIP3    H173930   4.641   3.021   2.663  1.2667  0.8123 -0.0469
17505TIP3    H273931   4.510   3.092   2.690  0.3400 -0.7919 -0.1829
17506TIP3   OH273932   6.324   6.115   4.908  0.7653 -0.0448 -0.3431
17506TIP3    H173933   6.337   6.028   4.870 -0.3290 -0.3839  0.0187
17506TIP3    H273934   6.234   6.137   4.884  1.0513  1.0142 -0.4667
17507TIP3   OH273935   1.868   6.049   0.374  0.3247 -0.8640 -0.2566
17507TIP3    H173936   1.823   6.131   0.353 -0.0356  0.1775  3.6564
17507TIP3    H273937   1.958   6.076   0.392  0.1912 -1.2538  1.0950
17508TIP3   OH273938   2.312   5.726   1.042 -0.0852  0.0304  0.6280
17508TIP3    H173939   2.237   5.781   1.018 -0.9019 -1.3198 -0.0663
17508TIP3    H273940   2.388   5.775   1.012 -0.8923 -0.0855 -1.8654
17509TIP3   OH273941   0.644   1.404  17.131  0.6856  0.3557  0.1377
17509TIP3    H173942   0.714   1.375  17.073  0.0798 -0.1063 -0.3898
17509TIP3    H273943   0.635   1.498  17.113 -0.0843  0.0570 -1.2117
17510TIP3   OH273944   4.760   3.265   4.329 -0.1632 -0.1259 -0.6600
17510TIP3    H173945   4.722   3.201   4.389 -0.6675 -0.0658 -0.9121
17510TIP3    H273946   4.765   3.346   4.380 -0.4729 -0.1088 -0.6521
17511TIP3   OH273947   6.616   2.469  12.469  0.3365 -0.1469  0.2993
17511TIP3    H173948   6.686   2.534  12.460 -1.6439  2.1498  0.5174
17511TIP3    H273949   6.588   2.477  12.560 -2.4802  1.5957 -0.5995
17512TIP3   OH273950   4.472   0.268   5.254  0.1364 -0.0580  0.3298
17512TIP3    H173951   4.405   0.247   5.189  0.8561  0.5072 -0.6162
17512TIP3    H273952   4.521   0.341   5.216 -0.7860  1.7689  2.4699
17513TIP3   OH273953   3.301   0.511   2.957  0.1289 -1.0329  0.2359
17513TIP3    H173954   3.214   0.472   2.966  0.2904 -1.1393  1.5549
17513TIP3    H273955   3.357   0.456   3.011  0.9478 -0.7494 -0.3164
17514TIP3   OH273956   4.639   4.976  16.305 -0.2623 -0.1458 -0.3278
17514TIP3    H173957   4.577   4.931  16.247  0.0552 -0.2402 -0.5947
17514TIP3    H273958   4.616   4.944  16.393 -0.3486 -0.4661 -0.4634
17515TIP3   OH273959   0.858   2.706   0.276  0.3724 -0.1868  0.0569
17515TIP3    H173960   0.778   2.716   0.224  1.5007  0.9717 -1.5602
17515TIP3    H273961   0.921   2.669   0.215  0.9846 -1.5417  1.4370
17516TIP3   OH273962   3.516   1.553  10.916 -0.1075  0.5069  0.1122
17516TIP3    H173963   3.449   1.550  10.984  0.2374 -0.3290  0.4357
17516TIP3    H273964   3.519   1.644  10.888 -2.7267  0.2364 -1.2925
17517TIP3   OH273965   3.609   4.872   1.243 -0.0232  0.2551 -0.1377
17517TIP3    H173966   3.661   4.805   1.288  0.8553 -0.5344 -2.2493
17517TIP3    H273967   3.661   4.952   1.251  0.2671  0.0566 -0.0248
17518TIP3   OH273968   4.238   6.186   5.672  0.1083 -0.1315  0.2937
17518TIP3    H173969   4.322   6.164   5.632  0.2658 -1.0657  1.0987
17518TIP3    H273970   4.246   6.156   5.763 -0.5631  1.1204  0.7936
17519TIP3   OH273971   4.901   3.416  17.102 -0.5923  0.1552 -0.2700
17519TIP3    H173972   4.895   3.505  17.137 -3.2825  0.8654 -2.1983
17519TIP3    H273973   4.976   3.377  17.147 -1.9808  1.8510  3.9966
17520TIP3   OH273974   5.784   6.020   2.857 -0.2579 -0.3790 -0.7543
17520TIP3    H173975   5.796   5.952   2.791 -0.3985 -2.0551  0.8908
17520TIP3    H273976   5.716   5.986   2.915  0.0852  0.8998  0.4499
17521TIP3   OH273977   4.323   3.816  15.809  0.2517  0.7251 -0.2145
17521TIP3    H173978   4.284   3.791  15.892 -1.1873 -1.1372 -1.3599
17521TIP3    H273979   4.261   3.878  15.770 -0.3619 -0.2974 -0.9272
17522TIP3   OH273980   0.855   0.477   0.979 -0.0744  0.8625  0.1926
17522TIP3    H173981   0.792   0.503   1.046  0.1060  0.4082  0.5442
17522TIP3    H273982   0.933   0.448   1.029  0.4603  1.5427 -0.2351
17523TIP3   OH273983   0.600   4.462  12.064  0.5897 -0.6357  0.3551
17523TIP3    H173984   0.663   4.469  12.136  0.0851 -0.8235  0.8233
17523TIP3    H273985   0.604   4.370  12.038  2.5656 -0.1068 -1.5311
17524TIP3   OH273986   5.079   4.193   1.966 -0.4876  0.1368  0.3423
17524TIP3    H173987   5.061   4.099   1.966  0.7504 -0.1195  1.0607
17524TIP3    H273988   5.174   4.200   1.961 -0.5956  1.3740 -0.4753
17525TIP3   OH273989   3.102   4.932  17.077 -0.5901  0.2072 -0.0479
17525TIP3    H173990   3.109   4.893  17.165 -0.8156  1.2287  0.4407
17525TIP3    H273991   3.090   5.025  17.094 -3.0287  0.1418 -1.1028
17526TIP3   OH273992   2.955   5.723   5.566  0.2461  0.3999  0.4910
17526TIP3    H173993   3.029   5.673   5.600  1.3785  0.1057 -2.1291
17526TIP3    H273994   2.894   5.657   5.534  1.2878  0.5762 -2.0655
17527TIP3   OH273995   2.412   5.237   3.368 -0.3022  0.1566 -0.0923
17527TIP3    H173996   2.330   5.190   3.382 -0.6018 -0.0459 -2.1830
17527TIP3    H273997   2.391   5.302   3.300  1.5817 -0.9536 -1.8626
17528TIP3   OH273998   1.560   5.984   5.549 -0.3404  0.1771 -0.5264
17528TIP3    H173999   1.623   5.931   5.598  0.6432  2.1082  0.4609
17528TIP3    H274000   1.480   5.981   5.601  0.6527  2.0911  1.2882
17529TIP3   OH274001   1.633   6.375   5.021  0.6657 -0.4191  0.9782
17529TIP3    H174002   1.601   6.429   4.949  2.2001 -0.3276  0.3408
17529TIP3    H274003   1.566   6.307   5.031  0.6475 -0.7200 -0.8672
17530TIP3   OH274004   0.692   2.292  14.867 -0.2684  0.5182  0.7817
17530TIP3    H174005   0.643   2.370  14.841 -0.0065  1.0876  1.9566
17530TIP3    H274006   0.631   2.220  14.851 -0.6246  0.9860 -0.0181
17531TIP3   OH274007   3.931   6.700   6.633 -0.3322  0.2708  0.1215
17531TIP3    H174008   3.952   6.689   6.540 -1.4758  0.3869 -0.1625
17531TIP3    H274009   3.964   6.619   6.674  1.7337  0.9449 -0.0615
17532TIP3   OH274010   3.645   0.977   3.999 -0.1913  0.2136 -0.0489
17532TIP3    H174011   3.706   1.003   4.068  1.8972 -0.6293 -1.4965
17532TIP3    H274012   3.585   0.916   4.041 -0.1191  1.1132  1.4216
17533TIP3   OH274013   4.797   1.261  15.024 -0.3657 -0.9219 -0.0870
17533TIP3    H174014   4.861   1.330  15.034  0.1017 -1.0678 -1.6984
17533TIP3    H274015   4.743   1.289  14.950 -1.0438 -1.6305  0.1246
17534TIP3   OH274016   6.639   1.470   2.916  0.2269 -0.0043 -0.2720
17534TIP3    H174017   6.732   1.478   2.937 -0.1596  1.0499  1.1622
17534TIP3    H274018   6.637   1.459   2.821  1.8903 -1.6766 -0.1702
17535TIP3   OH274019   0.153   3.428   1.156 -0.4781 -0.3086 -0.0395
17535TIP3    H174020   0.138   3.342   1.115  1.0884  0.2752 -2.0002
17535TIP3    H274021   0.125   3.491   1.089  1.9238  0.6931 -0.1967
17536TIP3   OH274022   3.318   4.250  14.349  0.8852  0.0810  0.7973
17536TIP3    H174023   3.350   4.336  14.320  2.2657 -0.7966 -0.4308
17536TIP3    H274024   3.234   4.269  14.391  1.2865  2.0615  0.8346
17537TIP3   OH274025   1.282   6.006  13.735  0.0594  0.8242 -0.2896
17537TIP3    H174026   1.306   6.013  13.828  0.6979  2.3969 -0.5402
17537TIP3    H274027   1.188   6.019  13.734 -0.4397 -2.0185  0.3708
17538TIP3   OH274028   1.355   5.297  12.039  0.1801  0.1768  0.1245
17538TIP3    H174029   1.310   5.212  12.033 -1.1706  0.9512 -2.2746
17538TIP3    H274030   1.439   5.283  11.996  0.5943 -0.2805  1.0533
17539TIP3   OH274031   0.429   4.470   1.905 -0.3710  0.2467 -0.1871
17539TIP3    H174032   0.402   4.513   1.985  0.9145 -1.0447  0.9988
17539TIP3    H274033   0.350   4.427   1.872 -0.9952  1.1201  0.1465
17540TIP3   OH274034   4.547   3.882   5.211 -0.6252 -0.4390  0.1212
17540TIP3    H174035   4.525   3.914   5.123  2.2618  0.6460 -0.3129
17540TIP3    H274036   4.588   3.797   5.195 -0.3447 -0.3641  0.4487
17541TIP3   OH274037   4.886   2.772   0.463  0.1869  0.0288 -0.1116
17541TIP3    H174038   4.853   2.765   0.553 -0.5774  0.1921 -0.3732
17541TIP3    H274039   4.860   2.690   0.421 -1.9974  1.0957 -0.9853
17542TIP3   OH274040   4.662   1.297   2.605 -0.3863  0.0120  0.4428
17542TIP3    H174041   4.741   1.348   2.587  0.4477 -0.7176  1.8861
17542TIP3    H274042   4.684   1.208   2.576 -0.7867 -0.1326  0.5774
17543TIP3   OH274043   4.584   3.705  11.700 -0.1736 -0.7586  0.0104
17543TIP3    H174044   4.566   3.615  11.672  1.6637 -0.4385 -2.6071
17543TIP3    H274045   4.669   3.700  11.744 -0.3791 -0.3938  0.4552
17544TIP3   OH274046   0.773   2.232   5.328 -0.2269 -0.0276  0.2391
17544TIP3    H174047   0.752   2.146   5.292  0.5783 -0.3916  0.6271
17544TIP3    H274048   0.797   2.285   5.252  1.3718 -0.7664  0.1933
17545TIP3   OH274049   3.136   1.945   6.159 -0.1555 -0.7214  0.1772
17545TIP3    H174050   3.168   1.984   6.240 -0.2731 -0.1443 -0.0535
17545TIP3    H274051   3.064   1.888   6.186 -1.9038  1.3928  0.2340
17546TIP3   OH274052   6.296   1.177  13.166  0.1383 -0.1335  0.2514
17546TIP3    H174053   6.236   1.155  13.094  1.5507  0.3388 -1.1294
17546TIP3    H274054   6.316   1.093  13.208 -0.6696 -0.4199  0.0845
17547TIP3   OH274055   0.528   0.265   0.848 -0.0876 -0.0064  0.3248
17547TIP3    H174056   0.476   0.293   0.924  0.5097 -0.7152  1.0116
17547TIP3    H274057   0.511   0.171   0.840 -0.1103  0.0567 -0.3940
17548TIP3   OH274058   6.417   2.841  15.600  0.2257 -0.2840 -0.2319
17548TIP3    H174059   6.487   2.821  15.662 -0.3921 -0.5426  0.3945
17548TIP3    H274060   6.366   2.760  15.593  0.2797 -0.2565 -1.0746
17549TIP3   OH274061   0.195   6.735   1.815  0.2800  0.0532  0.2934
17549TIP3    H174062   0.257   6.808   1.823 -0.3792  0.5169  1.4940
17549TIP3    H274063   0.138   6.760   1.743  0.2869  0.5568  0.4572
17550TIP3   OH274064   4.281   2.089  16.998 -0.1131 -0.0680 -0.3387
17550TIP3    H174065   4.268   2.035  16.919 -2.5009 -0.0130 -0.0603
17550TIP3    H274066   4.337   2.036  17.054  0.4218 -0.7503 -1.4877
17551TIP3   OH274067   2.828   2.753   6.073 -0.0690  0.1101 -0.3766
17551TIP3    H174068   2.771   2.829   6.088  1.4763  1.2731 -0.1267
17551TIP3    H274069   2.872   2.773   5.990 -0.2377 -0.9313 -0.7319
17552TIP3   OH274070   0.664   0.743  14.359  0.4420  0.1265  0.0083
17552TIP3    H174071   0.683   0.831  14.327 -0.1504  0.1550 -0.2685
17552TIP3    H274072   0.572   0.728  14.337  0.7196 -0.8314 -0.5662
17553TIP3   OH274073   0.814   2.658   3.903  0.2445 -0.4825 -0.6224
17553TIP3    H174074   0.757   2.645   3.979 -3.2521  1.2494 -2.6939
17553TIP3    H274075   0.805   2.578   3.852  1.2553 -0.9701 -0.0616
17554TIP3   OH274076   1.072   6.243   0.493 -0.5844 -0.1328  0.3322
17554TIP3    H174077   1.105   6.291   0.416 -1.1394  1.2789  0.9450
17554TIP3    H274078   0.984   6.216   0.468 -0.9297  0.7107  0.6266
17555TIP3   OH274079   0.540   3.039  11.942  0.0878  0.7808 -0.4925
17555TIP3    H174080   0.576   2.994  11.866 -0.3249 -0.1962 -0.1289
17555TIP3    H274081   0.494   3.114  11.906 -1.9234 -0.8038 -1.4494
17556TIP3   OH274082   6.627   0.921   3.828 -0.0005  0.1225 -0.0116
17556TIP3    H174083   6.561   0.865   3.869  0.4546 -1.3031 -1.1236
17556TIP3    H274084   6.590   0.942   3.743  0.8419 -0.4643 -0.5337
17557TIP3   OH274085   5.441   1.057  13.689  0.1875 -0.4137 -0.3838
17557TIP3    H174086   5.406   1.007  13.615 -1.8833  2.2765 -1.3997
17557TIP3    H274087   5.507   1.113  13.650 -1.7194  1.8577 -0.5665
17558TIP3   OH274088   0.937   2.687  11.804 -0.2110  0.1597  0.1723
17558TIP3    H174089   0.906   2.603  11.838 -1.6156  0.4493 -0.3646
17558TIP3    H274090   1.032   2.682  11.815 -0.3530 -1.0504  1.1585
17559TIP3   OH274091   3.869   6.693   6.092  0.3690 -0.2897 -0.1912
17559TIP3    H174092   3.884   6.772   6.143  1.2837 -0.5342 -0.0599
17559TIP3    H274093   3.944   6.688   6.032 -1.0942  0.4530 -2.1941
17560TIP3   OH274094   3.527   3.433   3.337 -0.4857  0.3473 -0.0816
17560TIP3    H174095   3.473   3.408   3.262 -0.4484 -0.7366  0.2407
17560TIP3    H274096   3.533   3.354   3.390 -2.1789  1.6073  2.1324
17561TIP3   OH274097   2.025   4.864   3.826  0.4277 -0.1017 -0.1524
17561TIP3    H174098   1.968   4.909   3.888  0.6778 -0.1373  0.1079
17561TIP3    H274099   2.102   4.920   3.819 -1.2146  2.0977 -3.5931
17562TIP3   OH274100   6.777   5.106  12.988  0.0413 -0.1447 -0.1124
17562TIP3    H174101   6.729   5.169  13.041 -0.1297 -0.8645  0.6039
17562TIP3    H274102   6.710   5.057  12.942  0.1176 -0.6475  0.3081
17563TIP3   OH274103   6.011   3.013  10.361 -0.2050 -0.1078 -0.3627
17563TIP3    H174104   6.087   3.070  10.366 -0.0047 -0.2189 -1.9393
17563TIP3    H274105   6.005   2.974  10.449 -0.2621  2.1828  0.7313
17564TIP3   OH274106   3.660   3.536  14.914 -0.2026 -0.0744 -0.1331
17564TIP3    H174107   3.657   3.619  14.865  2.4548  0.2008  0.0525
17564TIP3    H274108   3.691   3.472  14.850 -2.4260 -1.0509 -0.3272
17565TIP3   OH274109   3.644   6.431  13.413 -0.1329  0.3729  0.0918
17565TIP3    H174110   3.714   6.366  13.424  0.5666  1.2124  0.7523
17565TIP3    H274111   3.599   6.404  13.333  2.4054  1.0938 -1.7269
17566TIP3   OH274112   4.136   3.332   1.750 -0.1158  0.7664  0.3378
17566TIP3    H174113   4.090   3.258   1.788 -0.4328  0.0323 -1.3826
17566TIP3    H274114   4.209   3.348   1.809 -1.0899  0.2935  1.7251
17567TIP3   OH274115   1.436   5.029  10.473 -0.3443 -0.2556  0.4982
17567TIP3    H174116   1.464   5.065  10.388 -1.4293 -1.0800 -0.2348
17567TIP3    H274117   1.482   4.945  10.480  1.2655  0.6541  1.6682
17568TIP3   OH274118   0.787   3.604   2.288 -0.0393  0.0757 -0.2312
17568TIP3    H174119   0.747   3.518   2.273 -0.2423 -0.0093  0.7308
17568TIP3    H274120   0.744   3.661   2.225  0.1088 -0.5300 -0.8939
17569TIP3   OH274121   4.184   0.087  14.746 -0.0381  0.6988  0.2505
17569TIP3    H174122   4.221   0.155  14.689  0.5180 -1.0067 -1.5305
17569TIP3    H274123   4.100   0.124  14.774  0.6434  2.4849  0.1070
17570TIP3   OH274124   2.980   4.019   0.569  0.0795  0.2944 -0.1185
17570TIP3    H174125   3.034   4.034   0.647 -0.3317 -0.8282  0.3974
17570TIP3    H274126   2.890   4.036   0.599  0.0517  1.4127 -0.7758
17571TIP3   OH274127   5.409   2.038   0.894  0.4879  0.1636 -0.6757
17571TIP3    H174128   5.464   2.060   0.818  0.9070 -0.5402 -0.5803
17571TIP3    H274129   5.443   2.094   0.964  0.7662  0.0760 -0.7405
17572TIP3   OH274130   5.825   4.372   0.673  0.0945 -0.2043 -0.6380
17572TIP3    H174131   5.819   4.435   0.601  1.7753  0.1877 -0.4653
17572TIP3    H274132   5.773   4.410   0.743  2.1341  1.7014 -0.0648
17573TIP3   OH274133   3.429   0.073  11.662 -0.3316 -0.1619 -0.7182
17573TIP3    H174134   3.411   0.001  11.601 -0.3089  0.5623 -1.5887
17573TIP3    H274135   3.516   0.104  11.637  1.1424 -1.9166  1.7543
17574TIP3   OH274136   5.917   3.735  13.404  0.1096 -0.2999  0.1492
17574TIP3    H174137   5.875   3.735  13.490  0.1785 -0.1444  0.1825
17574TIP3    H274138   5.923   3.643  13.380  0.3745 -0.3569  0.4485
17575TIP3   OH274139   0.181   2.085   5.375  0.5696  0.4821  0.0067
17575TIP3    H174140   0.092   2.090   5.339 -0.1448 -4.1172  0.5232
17575TIP3    H274141   0.237   2.086   5.297 -0.1302  0.8209 -0.5146
17576TIP3   OH274142   6.641   1.882   1.236  0.5360 -0.2459 -0.4391
17576TIP3    H174143   6.604   1.936   1.166 -2.4940 -0.9573  0.4411
17576TIP3    H274144   6.608   1.794   1.218  2.4710 -1.1224  0.0875
17577TIP3   OH274145   0.228   2.622   4.991 -0.4695 -0.1868 -0.3598
17577TIP3    H174146   0.285   2.625   4.915 -0.8756 -0.7080 -0.6915
17577TIP3    H274147   0.274   2.565   5.053  1.1646  2.3309  0.9004
17578TIP3   OH274148   1.672   3.651   3.344 -0.0596 -0.1999  0.6671
17578TIP3    H174149   1.604   3.590   3.314 -0.7285  1.2310 -0.9272
17578TIP3    H274150   1.624   3.731   3.366  1.1025  1.1522 -1.3306
17579TIP3   OH274151   1.572   4.836  13.711  0.0905 -0.2694 -0.0116
17579TIP3    H174152   1.560   4.846  13.806 -2.6249 -1.2645 -0.1604
17579TIP3    H274153   1.524   4.909  13.673  2.3534  0.9619 -0.6844
17580TIP3   OH274154   1.177   1.305  14.288  0.1897  0.4046 -0.3515
17580TIP3    H174155   1.135   1.232  14.243  0.2071  0.6292 -0.7352
17580TIP3    H274156   1.177   1.279  14.380  1.2078 -0.5748 -0.6126
17581TIP3   OH274157   6.615   6.577   2.654  0.3781  0.2701  0.1964
17581TIP3    H174158   6.670   6.656   2.659 -0.1189  0.5606  1.3603
17581TIP3    H274159   6.531   6.604   2.689 -0.4328 -0.2788 -1.2245
17582TIP3   OH274160   0.186   5.160   0.596 -0.6177 -0.8603 -0.5005
17582TIP3    H174161   0.145   5.120   0.673 -1.6080  0.8828 -0.0727
17582TIP3    H274162   0.125   5.142   0.524 -1.0465 -0.1684 -0.3151
17583TIP3   OH274163   4.292   1.500   1.564 -0.5742  0.0640 -0.0460
17583TIP3    H174164   4.207   1.519   1.602 -0.4150 -0.2034  0.4574
17583TIP3    H274165   4.352   1.497   1.640 -0.5577 -2.2841 -0.0864
17584TIP3   OH274166   2.105   3.506  12.011  0.3807 -0.4744 -0.4290
17584TIP3    H174167   2.107   3.599  11.988 -1.5395 -0.7530 -2.0817
17584TIP3    H274168   2.155   3.463  11.941  0.8760 -0.7394  0.0800
17585TIP3   OH274169   1.197   5.109  17.076  0.5123  0.4409  0.3056
17585TIP3    H174170   1.112   5.088  17.037 -0.1520  1.8177  0.9160
17585TIP3    H274171   1.247   5.149  17.005  0.5683 -0.1246  0.0162
17586TIP3   OH274172   4.661   3.290  12.970  0.0551 -0.0292  0.0914
17586TIP3    H174173   4.755   3.282  12.952  0.0774 -1.1619  0.5548
17586TIP3    H274174   4.621   3.306  12.885  0.5259 -1.1820 -0.3753
17587TIP3   OH274175   2.694   5.913   6.175  0.3232  0.0486 -0.4663
17587TIP3    H174176   2.752   5.856   6.126 -1.8271 -4.0526  1.2451
17587TIP3    H274177   2.736   5.922   6.261 -0.6450 -1.5706  0.2307
17588TIP3   OH274178   0.229   6.765  12.242 -0.3863  1.1427 -0.1427
17588TIP3    H174179   0.244   6.730  12.155 -1.4168 -0.4471  0.2745
17588TIP3    H274180   0.286   6.713  12.299 -2.2554 -0.2724  0.5450
17589TIP3   OH274181   4.995   1.231   3.062 -0.7453 -0.3890  0.7417
17589TIP3    H174182   4.978   1.250   3.155  0.8969 -0.5963  1.1237
17589TIP3    H274183   4.990   1.317   3.020 -0.6878 -0.1646  1.1790
17590TIP3   OH274184   1.525   2.369   5.681  0.2282 -0.1629  0.1292
17590TIP3    H174185   1.591   2.356   5.613  1.2384 -1.3971  1.2984
17590TIP3    H274186   1.567   2.426   5.745 -0.5890  0.6964 -0.0638
17591TIP3   OH274187   3.888   4.900  16.141 -0.8106  0.6270  0.2045
17591TIP3    H174188   3.816   4.880  16.201  0.5294  0.1408  1.7044
17591TIP3    H274189   3.961   4.924  16.198 -0.2306  2.7992 -1.3050
17592TIP3   OH274190   4.212   3.597  14.615  0.1775  0.1554 -0.1693
17592TIP3    H174191   4.152   3.650  14.562 -0.5970 -0.6089 -0.0861
17592TIP3    H274192   4.272   3.660  14.655 -0.6292  0.9444 -0.1859
17593TIP3   OH274193   3.429   4.660  16.480 -0.3755 -0.3090  0.0642
17593TIP3    H174194   3.415   4.668  16.386 -1.7536 -1.3130  0.1477
17593TIP3    H274195   3.380   4.734  16.517 -0.9067 -0.6395  0.0430
17594TIP3   OH274196   3.408   0.199  10.414 -0.3190 -0.4273 -0.0226
17594TIP3    H174197   3.467   0.146  10.361  2.7224  1.5413  1.1285
17594TIP3    H274198   3.330   0.145  10.424  1.5722 -3.6231 -0.9531
17595TIP3   OH274199   0.425   1.124  16.801  0.2090  0.1039 -0.2482
17595TIP3    H174200   0.469   1.209  16.801 -1.0505  0.7918 -0.9127
17595TIP3    H274201   0.342   1.140  16.847  1.1800 -1.4936  2.2790
17596TIP3   OH274202   2.167   6.624   0.792  0.4352  0.7476 -0.1300
17596TIP3    H174203   2.142   6.612   0.700 -0.3498  1.4707 -0.0214
17596TIP3    H274204   2.180   6.536   0.825  1.8488  0.5119 -1.2382
17597TIP3   OH274205   6.136   5.888  11.930  0.0090 -0.0263 -0.7390
17597TIP3    H174206   6.068   5.821  11.938  1.3262 -1.6350 -2.1511
17597TIP3    H274207   6.208   5.857  11.985 -0.3578  1.6845  0.7987
17598TIP3   OH274208   2.612   6.611  12.187  0.5037 -0.0376  0.5942
17598TIP3    H174209   2.704   6.602  12.160  1.0187 -0.0727  2.2195
17598TIP3    H274210   2.562   6.568  12.118  1.8257 -1.4661  0.4613
17599TIP3   OH274211   3.038   2.999   3.544  0.3971 -0.6454 -0.1057
17599TIP3    H174212   2.967   2.945   3.579  0.2142 -0.0715  0.4350
17599TIP3    H274213   3.076   3.040   3.622 -0.7726  1.5858 -0.6324
17600TIP3   OH274214   3.469   2.806   2.288 -0.3005 -0.3286 -0.0236
17600TIP3    H174215   3.376   2.805   2.312 -0.4011 -0.2790 -0.4053
17600TIP3    H274216   3.499   2.717   2.307 -0.3857 -0.3038  0.2412
17601TIP3   OH274217   6.687   1.318  16.307  0.0092 -0.1167 -0.3280
17601TIP3    H174218   6.768   1.285  16.346 -0.3344  0.0571  0.5618
17601TIP3    H274219   6.642   1.361  16.379 -1.3916 -1.1402 -0.5550
17602TIP3   OH274220   6.262   0.396   4.370 -0.1061 -0.2832  0.3887
17602TIP3    H174221   6.321   0.405   4.445 -1.1693 -1.9723  1.5032
17602TIP3    H274222   6.194   0.461   4.385  0.5914  0.5748 -0.0628
17603TIP3   OH274223   4.839   2.883   2.164 -0.2807 -0.1099 -0.0261
17603TIP3    H174224   4.873   2.833   2.089 -0.2745 -2.0195  1.1668
17603TIP3    H274225   4.905   2.950   2.180  0.5958 -0.7919 -0.6546
17604TIP3   OH274226   1.847   4.513   1.789  0.6978 -0.4431 -0.3816
17604TIP3    H174227   1.819   4.422   1.802  1.4222 -0.3886  2.2457
17604TIP3    H274228   1.786   4.564   1.842  0.3834  0.6335 -1.7287
17605TIP3   OH274229   0.347   6.714   5.134 -0.2710 -0.0919 -0.6474
17605TIP3    H174230   0.283   6.706   5.204  0.2703 -2.0805 -0.3333
17605TIP3    H274231   0.301   6.687   5.055 -0.1301 -0.4848 -0.5979
17606TIP3   OH274232   6.426   3.341   0.963  0.2249 -0.3414 -0.0540
17606TIP3    H174233   6.363   3.374   0.898  0.1261  1.0601  0.7255
17606TIP3    H274234   6.452   3.255   0.929 -0.8369 -0.2206 -1.2532
17607TIP3   OH274235   6.732   3.527   4.510 -0.3144 -0.0143  0.3191
17607TIP3    H174236   6.700   3.488   4.429  0.7000  0.7183 -0.4448
17607TIP3    H274237   6.704   3.618   4.507  0.6341  0.2869  0.2840
17608TIP3   OH274238   6.301   0.490  17.025 -0.0391 -0.7216  0.7396
17608TIP3    H174239   6.283   0.437  17.102  0.9931 -1.6512  0.3655
17608TIP3    H274240   6.396   0.500  17.024  0.0699 -1.5582 -0.9393
17609TIP3   OH274241   3.428   1.207   2.659 -0.3270 -0.0968 -0.1056
17609TIP3    H174242   3.459   1.118   2.677 -0.4830 -0.3788 -1.1879
17609TIP3    H274243   3.395   1.238   2.743 -1.6027 -1.6042 -0.0010
17610TIP3   OH274244   1.254   3.266  13.677  0.5221 -1.0853 -0.4005
17610TIP3    H174245   1.349   3.279  13.677  0.3526  0.5487 -2.1100
17610TIP3    H274246   1.236   3.227  13.591 -0.6070  1.4517 -1.4122
17611TIP3   OH274247   4.642   3.361  15.117  0.3239 -0.0259  0.0880
17611TIP3    H174248   4.595   3.431  15.071 -0.9845 -0.5862  0.5303
17611TIP3    H274249   4.706   3.329  15.053 -0.2500  0.4034 -0.7133
17612TIP3   OH274250   2.723   2.479   5.206 -0.6107 -0.3005  0.3524
17612TIP3    H174251   2.663   2.409   5.183 -1.0005  0.1300  0.0273
17612TIP3    H274252   2.754   2.513   5.122  0.1358 -0.5624  0.5200
17613TIP3   OH274253   1.955   0.938  15.326  0.1263  0.5298 -0.1878
17613TIP3    H174254   1.880   0.928  15.385 -0.7932 -1.4409 -1.5628
17613TIP3    H274255   2.007   0.859  15.340  0.9007  0.9352 -0.6899
17614TIP3   OH274256   2.515   3.673   2.998 -0.7004 -0.5898 -0.5655
17614TIP3    H174257   2.599   3.700   2.961 -0.1293 -0.8758  0.4698
17614TIP3    H274258   2.472   3.755   3.021 -1.4052 -0.3614 -2.4998
17615TIP3   OH274259   6.153   1.100  16.952 -0.1706  0.3176 -0.3227
17615TIP3    H174260   6.199   1.163  17.008 -2.0229  1.4211  0.0515
17615TIP3    H274261   6.064   1.134  16.946 -1.6757 -2.9561  0.9921
17616TIP3   OH274262   4.575   5.445  11.561  0.0900  0.1594  0.2710
17616TIP3    H174263   4.528   5.433  11.479  0.0537  0.1870  0.2877
17616TIP3    H274264   4.549   5.370  11.615  2.0163 -1.2334 -0.6351
17617TIP3   OH274265   6.242   3.025  14.079  0.3141  0.0506  0.1411
17617TIP3    H174266   6.239   3.114  14.045 -0.8587 -1.0384 -2.9432
17617TIP3    H274267   6.324   3.020  14.129  0.8178  2.5688 -0.3373
17618TIP3   OH274268   2.243   0.161  14.099 -0.6845 -0.3973  0.2707
17618TIP3    H174269   2.241   0.094  14.031 -1.0704 -0.5073  0.3905
17618TIP3    H274270   2.231   0.243  14.051 -0.6343 -0.4475  0.1709
17619TIP3   OH274271   5.490   5.509   1.784  0.2747 -0.2037 -0.1609
17619TIP3    H174272   5.486   5.482   1.692  0.5511 -0.0924 -0.2054
17619TIP3    H274273   5.560   5.456   1.822  0.1852 -0.2238 -0.0211
17620TIP3   OH274274   5.607   0.013   2.789  0.6897 -0.3955  0.2862
17620TIP3    H174275   5.652  -0.069   2.811  1.6659  0.0760  0.0869
17620TIP3    H274276   5.617   0.021   2.694 -2.9408 -2.0997 -0.4457
17621TIP3   OH274277   0.309   4.241   2.864  0.4547 -0.6627  0.8657
17621TIP3    H174278   0.266   4.184   2.927 -1.5934 -0.3899 -0.1770
17621TIP3    H274279   0.326   4.322   2.912  1.8636 -1.5342  1.8963
17622TIP3   OH274280   4.701   2.425   2.172 -0.2378  0.3472  0.3984
17622TIP3    H174281   4.634   2.426   2.104  2.4388  3.0449 -2.5605
17622TIP3    H274282   4.696   2.512   2.212  1.2038  0.4971  0.3211
17623TIP3   OH274283   5.942   6.288  14.130  0.7211  0.0201 -0.2521
17623TIP3    H174284   6.033   6.259  14.130  0.3334 -1.3077 -1.0575
17623TIP3    H274285   5.947   6.382  14.109  1.8292 -0.4246 -2.2507
17624TIP3   OH274286   0.974   2.770   1.787 -0.1158 -0.2619 -0.4381
17624TIP3    H174287   0.894   2.795   1.740 -0.6042  0.4981  0.7365
17624TIP3    H274288   0.952   2.687   1.830 -0.1924 -0.1707 -0.3018
17625TIP3   OH274289   0.592   2.070  11.617  0.1931  0.4135  0.2154
17625TIP3    H174290   0.508   2.104  11.584  0.2724 -0.9674 -1.6349
17625TIP3    H274291   0.647   2.065  11.539  1.2619 -0.7659  1.0171
17626TIP3   OH274292   2.469   6.081   1.095 -0.3246 -0.1689 -0.3939
17626TIP3    H174293   2.460   6.025   1.018  2.5403  0.5987 -1.4080
17626TIP3    H274294   2.490   6.021   1.167 -0.3053 -0.6682 -0.8104
17627TIP3   OH274295   4.871   2.797   4.687 -0.2292 -0.3410 -0.9274
17627TIP3    H174296   4.923   2.736   4.739 -0.1944 -0.5202 -1.1653
17627TIP3    H274297   4.934   2.860   4.652 -0.0979 -0.8194 -1.5793
17628TIP3   OH274298   3.680   4.574   2.987 -0.7728 -0.2660 -0.1751
17628TIP3    H174299   3.611   4.509   3.002  0.9845 -2.7718 -1.9843
17628TIP3    H274300   3.662   4.608   2.899  0.6811 -1.6259 -1.0592
17629TIP3   OH274301   0.157   4.981   0.838  0.2462  0.8520  0.6696
17629TIP3    H174302   0.130   5.047   0.902 -0.4936 -0.0190  1.2897
17629TIP3    H274303   0.091   4.912   0.845  1.9139 -0.7885  1.3335
17630TIP3   OH274304   5.867   0.243   5.417 -0.7878  0.2018  0.4748
17630TIP3    H174305   5.870   0.211   5.326  0.1041 -0.0533  0.5867
17630TIP3    H274306   5.774   0.244   5.438 -1.2657  2.5664 -1.2479
17631TIP3   OH274307   4.287   4.098   3.909 -0.1254 -0.1971 -0.4569
17631TIP3    H174308   4.321   4.143   3.831  0.5919 -2.0779 -1.2756
17631TIP3    H274309   4.365   4.067   3.954 -0.5880 -0.1893  0.3530
17632TIP3   OH274310   3.339   1.884  16.712 -0.5269 -0.1904  0.5653
17632TIP3    H174311   3.289   1.960  16.683 -2.1603 -1.8721 -1.2059
17632TIP3    H274312   3.300   1.861  16.797 -0.7636  0.2585  0.5840
17633TIP3   OH274313   4.868   0.252   5.356  0.0039  0.3055  0.0290
17633TIP3    H174314   4.819   0.183   5.313  0.2552 -0.2201  0.5723
17633TIP3    H274315   4.959   0.222   5.356 -0.0925 -0.0788  1.6030
17634TIP3   OH274316   1.199   4.201  14.874 -0.4259 -0.4384 -0.0578
17634TIP3    H174317   1.265   4.194  14.943  1.5203  0.7729 -1.6704
17634TIP3    H274318   1.211   4.289  14.839 -2.5325 -0.4003 -0.8453
17635TIP3   OH274319   1.492   4.099  15.845  0.3137 -0.3871 -0.6443
17635TIP3    H174320   1.554   4.090  15.918 -0.0834  2.4204  0.1746
17635TIP3    H274321   1.522   4.176  15.797 -3.0146  1.7804  0.4121
17636TIP3   OH274322   2.738   3.528  13.888 -0.1570 -0.2642 -0.6224
17636TIP3    H174323   2.813   3.523  13.829  0.5847 -0.2166  0.2898
17636TIP3    H274324   2.763   3.594  13.953  0.1334 -2.0556  1.1976
17637TIP3   OH274325   0.205   5.676  16.139 -0.8557 -0.0116 -0.1423
17637TIP3    H174326   0.176   5.644  16.054  3.0566  0.2867 -1.8011
17637TIP3    H274327   0.187   5.770  16.138 -3.9499 -0.4824  0.9332
17638TIP3   OH274328   4.217   3.337  10.944  0.3860  0.1428 -0.4384
17638TIP3    H174329   4.160   3.276  10.991 -0.3610  0.0426 -1.4441
17638TIP3    H274330   4.305   3.303  10.957  0.0130 -0.9574 -0.7061
17639TIP3   OH274331   0.405   3.658  15.565  0.0306 -0.1840 -0.3792
17639TIP3    H174332   0.455   3.584  15.530  1.4390  0.4910  0.1372
17639TIP3    H274333   0.467   3.704  15.622 -1.7299 -0.4587  1.9323
17640TIP3   OH274334   4.476   4.225  13.406 -0.1550 -0.2180  0.3793
17640TIP3    H174335   4.488   4.273  13.488 -1.5937  0.6269  0.1167
17640TIP3    H274336   4.413   4.277  13.356 -0.8899 -1.7939 -0.3984
17641TIP3   OH274337   1.127   1.550  16.798 -0.2845 -0.1184 -0.2829
17641TIP3    H174338   1.097   1.504  16.720 -2.3942  0.8132 -0.0697
17641TIP3    H274339   1.089   1.502  16.871  1.3224 -0.7246  0.2074
17642TIP3   OH274340   3.248   6.124  14.519 -0.2971 -0.2537  0.9461
17642TIP3    H174341   3.161   6.159  14.503 -0.3184 -0.5655  0.3419
17642TIP3    H274342   3.307   6.198  14.500 -0.4084 -0.1662  0.9388
17643TIP3   OH274343   5.726   1.161   3.407  0.3374  0.3048  0.0693
17643TIP3    H174344   5.743   1.220   3.333 -0.5137  1.4247  0.7283
17643TIP3    H274345   5.807   1.162   3.457  0.8499 -0.2980 -0.7256
17644TIP3   OH274346   6.448   5.056  16.767 -0.0618 -0.4258  0.4794
17644TIP3    H174347   6.500   5.055  16.848  1.7752 -0.4682 -0.6479
17644TIP3    H274348   6.367   5.012  16.790  0.6006 -0.8382  2.1841
17645TIP3   OH274349   0.934   2.375  14.614 -0.1554 -0.4789 -0.8431
17645TIP3    H174350   0.940   2.409  14.703 -2.6814 -2.9328  0.4429
17645TIP3    H274351   0.844   2.392  14.587 -0.5588 -2.9935 -1.3817
17646TIP3   OH274352   1.143   4.237  14.236  0.1237  0.1067 -0.2711
17646TIP3    H174353   1.226   4.246  14.189  0.8212  0.9874  1.0727
17646TIP3    H274354   1.080   4.282  14.180  0.7799  0.4515 -0.7500
17647TIP3   OH274355   3.010   5.391   5.680  0.4320  0.5352  1.0056
17647TIP3    H174356   3.060   5.348   5.749  0.2035  0.5427  1.1783
17647TIP3    H274357   3.030   5.342   5.601  0.6355  0.4789  1.0925
17648TIP3   OH274358   6.351   1.336   1.667  0.1751  0.2948 -0.5195
17648TIP3    H174359   6.296   1.324   1.745 -1.5111  0.2467 -1.6593
17648TIP3    H274360   6.332   1.261   1.612  0.3946  0.9427 -1.5067
17649TIP3   OH274361   6.451   3.243  11.658 -0.0730 -0.0190  0.0576
17649TIP3    H174362   6.472   3.150  11.655 -1.6099 -0.4715  1.6300
17649TIP3    H274363   6.416   3.263  11.572 -0.6636 -1.1385  0.0266
17650TIP3   OH274364   0.724   4.282  13.948 -0.1023  0.3766  0.1670
17650TIP3    H174365   0.667   4.229  14.002 -0.7212  1.1973  0.3353
17650TIP3    H274366   0.666   4.322  13.883  0.3709  0.7121 -0.0584
17651TIP3   OH274367   3.227   0.277   3.248  0.0034  0.0054 -0.0088
17651TIP3    H174368   3.169   0.352   3.259 -1.7997 -1.2896 -0.3611
17651TIP3    H274369   3.284   0.280   3.325 -0.1802  1.5810  0.1028
17652TIP3   OH274370   1.591   2.011   6.003  0.7560  0.8111  0.2483
17652TIP3    H174371   1.641   2.009   6.084  0.5827 -0.4860  0.3381
17652TIP3    H274372   1.614   1.930   5.958 -0.1323  0.8986 -0.3991
17653TIP3   OH274373   5.181   4.726   5.204  0.1781  0.2455  0.1278
17653TIP3    H174374   5.208   4.683   5.122  1.8063 -0.2456  0.8782
17653TIP3    H274375   5.135   4.657   5.253 -0.6084  0.4803 -0.2565
17654TIP3   OH274376   2.395   2.545  11.652 -0.0130  0.2061 -0.1512
17654TIP3    H174377   2.343   2.616  11.615  0.8838 -0.0193 -1.9500
17654TIP3    H274378   2.346   2.517  11.729 -1.5403  1.2697 -0.6935
17655TIP3   OH274379   6.438   5.809   1.301 -0.1050  0.0559 -0.8311
17655TIP3    H174380   6.508   5.750   1.326  1.4888  1.0773 -2.6335
17655TIP3    H274381   6.474   5.897   1.314 -1.4367  0.6259 -0.7860
17656TIP3   OH274382   2.539   1.767  13.391  0.4160  0.3865 -0.0975
17656TIP3    H174383   2.445   1.785  13.394  0.6603  1.6892  0.7946
17656TIP3    H274384   2.576   1.841  13.343  0.9464 -0.3555 -0.8559
17657TIP3   OH274385   6.097   6.290   3.861 -0.3711 -0.1753  0.4661
17657TIP3    H174386   6.115   6.360   3.798 -1.0105 -0.2734  0.1664
17657TIP3    H274387   6.183   6.253   3.881  0.0017  0.8403  0.8082
17658TIP3   OH274388   1.688   1.333  12.979 -0.4098  0.3947  0.1364
17658TIP3    H174389   1.669   1.426  12.991  0.8153  0.9903 -1.8210
17658TIP3    H274390   1.774   1.321  13.019  0.2138  0.5641 -1.0917
17659TIP3   OH274391   5.176   4.068  13.041  0.1002  0.0347 -0.3972
17659TIP3    H174392   5.111   4.043  13.106 -0.0824  0.5399 -0.3797
17659TIP3    H274393   5.139   4.147  13.000  0.3509 -0.1092 -0.9025
17660TIP3   OH274394   4.997   5.634   5.667  0.6305 -0.2911 -0.1404
17660TIP3    H174395   5.015   5.554   5.618  0.2289  0.7193 -2.0504
17660TIP3    H274396   4.906   5.656   5.645  0.3905  0.1242  1.1997
17661TIP3   OH274397   2.882   6.590   2.522  0.0319  0.6305  0.5544
17661TIP3    H174398   2.852   6.524   2.584 -1.0249 -0.3672 -0.9496
17661TIP3    H274399   2.878   6.546   2.437 -0.7104  2.6382 -0.5094
17662TIP3   OH274400   4.763   4.085  11.221  0.5140  0.6498  0.4422
17662TIP3    H174401   4.810   4.168  11.229  2.0236  0.0486 -1.4442
17662TIP3    H274402   4.691   4.103  11.161  1.6325  0.3339 -1.0406
17663TIP3   OH274403   4.420   4.733   3.523 -0.5869 -0.6713 -0.1874
17663TIP3    H174404   4.488   4.677   3.560 -0.1193 -0.2587 -0.4040
17663TIP3    H274405   4.467   4.812   3.496 -1.2098 -0.2267  0.0007
17664TIP3   OH274406   1.066   1.230  11.453 -0.0036  0.5974  0.0838
17664TIP3    H174407   1.024   1.212  11.537  2.4577 -1.7449  0.9969
17664TIP3    H274408   1.144   1.281  11.476  0.7259 -0.1176 -0.7316
17665TIP3   OH274409   2.835   0.554  15.410  0.2206 -0.5418  0.6586
17665TIP3    H174410   2.740   0.566  15.416  0.3532  1.4708 -0.4955
17665TIP3    H274411   2.846   0.469  15.366 -1.0695 -0.2094 -0.3615
17666TIP3   OH274412   3.883   5.476  14.964 -0.3288  0.1151 -0.1040
17666TIP3    H174413   3.895   5.496  15.057 -0.5185 -1.7909  0.3644
17666TIP3    H274414   3.935   5.543  14.918  0.3138  0.6754  1.3855
17667TIP3   OH274415   5.293   2.108  11.102  0.2791 -0.1054  0.1276
17667TIP3    H174416   5.215   2.136  11.055  1.0390 -0.1606 -1.2083
17667TIP3    H274417   5.262   2.039  11.161 -0.4049 -1.4351 -1.6881
17668TIP3   OH274418   5.835   4.532   4.448 -0.2268 -0.0893  0.0776
17668TIP3    H174419   5.810   4.612   4.402  2.1400 -0.2888 -1.7312
17668TIP3    H274420   5.930   4.526   4.439 -0.0947 -2.1530  1.7917
17669TIP3   OH274421   0.472   2.190   5.298 -0.0040  0.4436 -0.0391
17669TIP3    H174422   0.439   2.124   5.238 -1.3404  0.6035  0.4745
17669TIP3    H274423   0.545   2.148   5.343 -1.3382 -0.9990  0.8585
17670TIP3   OH274424   5.376   6.715   0.377  0.1650  0.1000 -0.2896
17670TIP3    H174425   5.402   6.766   0.300 -0.0683  0.2451 -0.2745
17670TIP3    H274426   5.384   6.777   0.450  0.6198 -0.1053 -0.1579
17671TIP3   OH274427   3.005   4.962   5.314 -0.5529  0.7329 -0.2428
17671TIP3    H174428   2.980   4.918   5.234 -0.6998  0.2049  0.0897
17671TIP3    H274429   2.931   4.948   5.374 -0.5666  1.3528 -0.0994
17672TIP3   OH274430   1.523   4.436   0.380 -0.1730 -0.1427  0.2366
17672TIP3    H174431   1.542   4.427   0.287  2.1179  2.2280  0.3556
17672TIP3    H274432   1.530   4.347   0.414  2.6202 -0.6592 -1.3321
17673TIP3   OH274433   3.417   3.955  16.389 -0.4546 -0.1113  0.4982
17673TIP3    H174434   3.501   3.955  16.435 -0.2463 -0.8749  0.1425
17673TIP3    H274435   3.363   4.017  16.437  0.0627 -0.1930  1.1980
17674TIP3   OH274436   4.936   0.736   2.166  0.1318 -0.3962  0.2913
17674TIP3    H174437   4.843   0.739   2.140 -0.1992  0.7019  1.5222
17674TIP3    H274438   4.977   0.680   2.100 -1.6197 -1.9043  0.4100
17675TIP3   OH274439   5.629   4.868  11.890  0.2452  0.0084  0.5211
17675TIP3    H174440   5.696   4.810  11.853  0.3893 -0.3029  1.2490
17675TIP3    H274441   5.553   4.857  11.833  0.9423  0.7074 -0.5856
17676TIP3   OH274442   6.705   5.013   4.290  0.3274 -0.0305 -0.1433
17676TIP3    H174443   6.781   5.037   4.236  0.6988 -0.8228  0.0212
17676TIP3    H274444   6.724   5.051   4.375  0.1782  0.4220 -0.3082
17677TIP3   OH274445   6.105   3.100  11.752  0.0124  0.4609 -0.5416
17677TIP3    H174446   6.134   3.191  11.764  1.0385 -0.1045  1.8674
17677TIP3    H274447   6.080   3.072  11.840  0.4212 -1.8193 -1.1089
17678TIP3   OH274448   0.693   2.634   5.665  0.7250  0.0562 -0.0224
17678TIP3    H174449   0.700   2.693   5.740  0.3982 -0.3291  0.3167
17678TIP3    H274450   0.782   2.632   5.627  0.9388  0.0932  0.4728
17679TIP3   OH274451   2.460   1.366   1.241  0.1164  0.0335 -0.0461
17679TIP3    H174452   2.543   1.325   1.266 -0.2134 -0.3847  0.3752
17679TIP3    H274453   2.450   1.439   1.302  1.0286  1.1729 -1.2168
17680TIP3   OH274454   0.510   3.114  15.535 -0.2558 -0.0170  0.2244
17680TIP3    H174455   0.499   3.101  15.629  1.8060  0.6268  0.6085
17680TIP3    H274456   0.604   3.102  15.520 -0.9103 -3.3649 -2.3425
17681TIP3   OH274457   0.534   5.084  11.984  0.4805  0.2384 -0.2207
17681TIP3    H174458   0.513   5.174  12.009 -0.3906 -0.6055  2.3886
17681TIP3    H274459   0.475   5.065  11.911  1.1589  1.9506 -1.2784
17682TIP3   OH274460   0.120   5.651   6.714  0.1577  0.3118  0.5222
17682TIP3    H174461   0.136   5.642   6.620 -1.8976 -1.4911  0.2452
17682TIP3    H274462   0.122   5.561   6.747 -1.1227  0.7130  1.7968
17683TIP3   OH274463   6.622   4.186  16.844 -0.5368 -0.1428  0.0046
17683TIP3    H174464   6.534   4.167  16.876 -0.6621 -1.9565 -1.2275
17683TIP3    H274465   6.680   4.136  16.902 -0.4424 -0.0378  0.0004
17684TIP3   OH274466   3.712   3.559   3.867  0.3183 -0.2123  0.3290
17684TIP3    H174467   3.781   3.624   3.878  0.0924  0.1025 -0.1343
17684TIP3    H274468   3.665   3.585   3.788 -1.6939  0.8309  1.7535
17685TIP3   OH274469   3.254   1.743  14.114  0.3756 -0.4252  0.1281
17685TIP3    H174470   3.184   1.792  14.157 -0.3227 -0.1313 -1.2972
17685TIP3    H274471   3.325   1.807  14.103  0.5057 -0.4665  0.6979
17686TIP3   OH274472   0.595   2.511  16.611 -0.6233  0.2027 -0.5990
17686TIP3    H174473   0.597   2.526  16.516 -1.5977  0.4338 -0.5935
17686TIP3    H274474   0.612   2.598  16.648  2.4274 -0.3255 -0.5174
17687TIP3   OH274475   2.745   1.546   5.477  0.0541  0.2962  0.8696
17687TIP3    H174476   2.743   1.621   5.536 -1.5813  1.4535 -0.5515
17687TIP3    H274477   2.659   1.505   5.487  0.0260  0.0729 -0.1365
17688TIP3   OH274478   5.235   0.185  15.774  0.2662  0.2851 -0.2065
17688TIP3    H174479   5.207   0.247  15.842  0.4648 -1.7162  1.8298
17688TIP3    H274480   5.190   0.214  15.695  1.0739  3.5288  0.3943
17689TIP3   OH274481   5.923   5.235   2.725  0.0113 -0.6823 -0.0491
17689TIP3    H174482   5.835   5.266   2.702  0.4106 -0.5337 -1.4534
17689TIP3    H274483   5.958   5.199   2.644  1.9279  0.8593  0.0157
17690TIP3   OH274484   2.661   5.106  13.226 -0.5760 -0.1152 -0.1821
17690TIP3    H174485   2.577   5.096  13.271 -0.2958 -0.4244  0.2777
17690TIP3    H274486   2.725   5.065  13.284  0.3744  2.7516  0.9558
17691TIP3   OH274487   1.871   3.315  11.756  0.3693 -0.2218 -0.1433
17691TIP3    H174488   1.820   3.294  11.835 -2.2667  0.5150 -1.5364
17691TIP3    H274489   1.907   3.402  11.773  4.0794 -1.9338  2.1318
17692TIP3   OH274490   0.506   2.170   4.847 -0.7998 -0.3282  0.0707
17692TIP3    H174491   0.433   2.158   4.787 -1.4261 -0.0018  0.7540
17692TIP3    H274492   0.471   2.148   4.933  0.2387 -1.3373  0.2587
17693TIP3   OH274493   3.104   3.809   5.344 -0.8224  0.2637  0.5925
17693TIP3    H174494   3.147   3.747   5.403 -0.5679 -1.0057 -0.8543
17693TIP3    H274495   3.041   3.856   5.399 -0.3124 -0.5796  1.9364
17694TIP3   OH274496   3.626   6.264  11.745 -0.3994  0.0372 -0.1484
17694TIP3    H174497   3.549   6.213  11.768 -1.5065  1.5751 -0.2789
17694TIP3    H274498   3.630   6.333  11.811  0.4780  0.3750 -0.5340
17695TIP3   OH274499   1.125   0.602   4.694  0.4081 -0.3380 -0.4745
17695TIP3    H174500   1.086   0.690   4.698 -2.9357 -1.6139 -1.5282
17695TIP3    H274501   1.173   0.601   4.611  0.5833  0.5064 -0.3991
17696TIP3   OH274502   4.195   1.069   3.010  0.4338  0.0026 -0.1566
17696TIP3    H174503   4.149   1.025   3.081 -0.1963  2.8753  1.3527
17696TIP3    H274504   4.287   1.062   3.033  0.2606  0.5244  0.7096
17697TIP3   OH274505   0.579   2.447   4.695  0.7889 -0.3802  0.1364
17697TIP3    H174506   0.558   2.427   4.786  1.5954 -0.2020  0.3616
17697TIP3    H274507   0.666   2.410   4.681  1.0943  0.4834 -0.2687
17698TIP3   OH274508   5.046   3.808   1.062  0.5092  0.0235  0.6256
17698TIP3    H174509   5.011   3.768   1.141 -1.2262  0.0963 -0.0683
17698TIP3    H274510   4.970   3.839   1.014  1.5458  0.4797 -0.8228
17699TIP3   OH274511   1.538   6.381   0.522 -0.6165  0.0867  0.0605
17699TIP3    H174512   1.458   6.431   0.538  0.5479  1.8681  0.5856
17699TIP3    H274513   1.540   6.369   0.427 -0.5629  1.7215 -0.1719
17700TIP3   OH274514   1.731   5.976   4.045 -0.0281 -0.1251 -0.2029
17700TIP3    H174515   1.741   5.881   4.044  1.4657 -0.0010  0.4525
17700TIP3    H274516   1.795   6.007   3.981  0.3743  0.4997  0.4942
17701TIP3   OH274517   0.691   3.284  13.094  0.3791 -0.2199  0.5884
17701TIP3    H174518   0.750   3.341  13.044  1.0458 -0.0924  1.4872
17701TIP3    H274519   0.712   3.196  13.065  0.6563 -0.1367  0.5301
17702TIP3   OH274520   0.921   5.210   1.313  0.2892 -0.0688 -0.5897
17702TIP3    H174521   0.885   5.159   1.240  2.1301 -0.3673 -1.3434
17702TIP3    H274522   1.016   5.200   1.305  0.5658 -0.0548  1.8276
17703TIP3   OH274523   2.994   5.349   5.287 -0.2148  0.3497 -0.0315
17703TIP3    H174524   3.012   5.293   5.362 -0.9784  0.8122  0.5016
17703TIP3    H274525   2.934   5.298   5.233  2.2986 -1.0851 -1.6805
17704TIP3   OH274526   3.535   2.919   2.555 -0.2012 -0.5618  0.0099
17704TIP3    H174527   3.452   2.964   2.568  0.8885  1.4723  0.3874
17704TIP3    H274528   3.529   2.885   2.465 -1.6231 -0.9168  0.2134
17705TIP3   OH274529   5.663   0.974   6.026 -0.0783  0.3390 -0.6898
17705TIP3    H174530   5.676   1.025   5.946  1.5813  1.2961  0.1373
17705TIP3    H274531   5.743   0.988   6.076 -1.8825  1.4415  2.0782
17706TIP3   OH274532   3.589   1.521   0.087 -0.1262  0.3278 -0.5840
17706TIP3    H174533   3.595   1.487  -0.002 -0.0622  0.6084 -0.6881
17706TIP3    H274534   3.605   1.615   0.078  0.8469  0.2183 -0.1629
17707TIP3   OH274535   3.882   1.620  11.381  0.4282  0.1885  0.5851
17707TIP3    H174536   3.912   1.656  11.297 -1.9258  0.5265 -0.1948
17707TIP3    H274537   3.810   1.678  11.407  0.5060 -0.4756  2.3947
17708TIP3   OH274538   5.030   1.733   0.737  0.1378 -0.0208  0.1690
17708TIP3    H174539   5.050   1.640   0.750  1.4145  0.2067 -0.0166
17708TIP3    H274540   5.017   1.767   0.826  1.4433 -0.0262  0.3940
17709TIP3   OH274541   1.717   6.750   4.953 -0.1248 -0.5986 -0.8626
17709TIP3    H174542   1.638   6.722   5.000 -0.1112 -1.2833 -1.2218
17709TIP3    H274543   1.789   6.730   5.012 -0.2119  0.0231 -0.5357
17710TIP3   OH274544   6.509   1.283   4.475 -0.2013  0.1233 -0.2989
17710TIP3    H174545   6.503   1.250   4.385  1.2390  1.2320 -0.8308
17710TIP3    H274546   6.425   1.260   4.514 -1.8452  1.6772 -2.6298
17711TIP3   OH274547   4.985   4.571  16.621 -0.5193 -0.1659  0.1179
17711TIP3    H174548   5.078   4.588  16.606 -1.0350  2.0893 -0.9191
17711TIP3    H274549   4.940   4.645  16.581 -2.7820 -1.1489  0.6758
17712TIP3   OH274550   0.418   5.554   4.471  0.2321 -0.0373  0.1188
17712TIP3    H174551   0.345   5.576   4.529 -0.3718  0.9324 -0.9661
17712TIP3    H274552   0.411   5.616   4.399  1.8195 -0.2803 -0.2907
17713TIP3   OH274553   6.343   3.900  14.873  0.3866  1.0819  0.1898
17713TIP3    H174554   6.404   3.972  14.860  0.2205  1.2758  0.4661
17713TIP3    H274555   6.351   3.877  14.966  0.9387  0.2830 -0.0488
17714TIP3   OH274556   2.967   1.383   4.349  0.1125 -1.0978  0.2300
17714TIP3    H174557   2.912   1.315   4.386  1.3496 -1.7267  0.9871
17714TIP3    H274558   2.915   1.463   4.357 -0.0623 -1.3829  2.4402
17715TIP3   OH274559   1.098   0.689  13.000 -0.4027  0.0082 -0.5188
17715TIP3    H174560   1.082   0.658  12.911 -0.3822  0.4605 -0.6825
17715TIP3    H274561   1.033   0.759  13.014  0.8566  1.3123 -0.9041
17716TIP3   OH274562   6.258   0.816   3.601  0.3909  0.2366  0.3308
17716TIP3    H174563   6.302   0.735   3.625 -1.1349 -0.7605 -0.0332
17716TIP3    H274564   6.175   0.813   3.648 -0.5816  0.5579 -1.2704
17717TIP3   OH274565   0.975   3.733   5.756  0.3434  0.2028  0.9276
17717TIP3    H174566   0.989   3.827   5.763 -0.9886  0.4418  0.6353
17717TIP3    H274567   0.919   3.712   5.831 -1.9475  0.2249 -0.6806
17718TIP3   OH274568   3.681   5.495  13.705 -0.4389 -0.3228 -0.0936
17718TIP3    H174569   3.745   5.469  13.772 -1.2253 -1.8049  0.1094
17718TIP3    H274570   3.639   5.573  13.743 -0.8346 -1.1023  1.1404
17719TIP3   OH274571   1.078   1.193   2.882  0.0956 -0.4994 -0.2516
17719TIP3    H174572   1.080   1.131   2.954 -0.5868  0.2799  0.4615
17719TIP3    H274573   1.170   1.220   2.871  0.6012 -2.5606 -1.4300
17720TIP3   OH274574   5.914   0.038  15.128 -0.2257  0.0009 -0.6992
17720TIP3    H174575   5.972   0.111  15.146  0.8238 -0.8304 -0.6472
17720TIP3    H274576   5.879   0.012  15.213  0.3787 -0.3496 -0.5538
17721TIP3   OH274577   4.746   0.785  13.912 -0.5625  0.3450 -0.5679
17721TIP3    H174578   4.760   0.853  13.979 -1.7486  1.1125 -1.0702
17721TIP3    H274579   4.782   0.823  13.832  0.2960 -0.3236 -0.5102
17722TIP3   OH274580   5.604   1.122   6.998  0.2956  0.4188 -0.0646
17722TIP3    H174581   5.612   1.080   7.084  4.5570 -0.2814 -0.5699
17722TIP3    H274582   5.572   1.053   6.940  1.1118 -0.2699  0.2891
17723TIP3   OH274583   3.866   2.236   1.200 -0.1515  0.1614  0.3065
17723TIP3    H174584   3.839   2.194   1.118  0.1316 -0.0510  0.3210
17723TIP3    H274585   3.820   2.187   1.268 -0.3718  0.3255  0.2775
17724TIP3   OH274586   6.747   2.471   4.890  0.3022  0.0117  0.4296
17724TIP3    H174587   6.811   2.400   4.902 -0.8383 -0.8566  1.5944
17724TIP3    H274588   6.758   2.528   4.966  0.5287  0.5541  0.0000
17725TIP3   OH274589   1.869   3.809  11.525 -0.0768 -0.0536  0.6856
17725TIP3    H174590   1.858   3.895  11.567  0.1786 -0.6411  2.0084
17725TIP3    H274591   1.958   3.812  11.489 -1.0218  1.2239 -1.7308
17726TIP3   OH274592   1.064   0.250   5.031 -0.5541  0.3803  0.4950
17726TIP3    H174593   1.144   0.204   5.055 -1.6882 -1.2263  1.3574
17726TIP3    H274594   1.035   0.293   5.111 -1.6727 -0.8419  0.7856
17727TIP3   OH274595   1.276   3.819  11.397 -0.5038  0.1269 -0.3490
17727TIP3    H174596   1.363   3.843  11.428  0.0887 -1.4701 -0.7150
17727TIP3    H274597   1.290   3.781  11.310 -1.2936 -1.8310  0.3161
17728TIP3   OH274598   2.055   5.482   1.720  0.2905  0.3158 -0.0784
17728TIP3    H174599   1.975   5.516   1.760 -0.0342 -0.4217 -0.0774
17728TIP3    H274600   2.027   5.445   1.636  0.3434 -1.2403  0.5411
17729TIP3   OH274601   5.001   2.790   2.640  0.3469 -0.4850  0.0664
17729TIP3    H174602   5.014   2.882   2.666  0.1485 -0.5746  0.4915
17729TIP3    H274603   5.020   2.789   2.546  0.3950 -0.0170  0.0671
17730TIP3   OH274604   3.989   2.541   2.728  0.1456  0.6648  0.0825
17730TIP3    H174605   4.006   2.600   2.802  0.2761  1.4105 -0.5285
17730TIP3    H274606   3.894   2.532   2.727  0.2436 -2.1895  2.4864
17731TIP3   OH274607   6.275   3.947   3.252 -0.1060  0.6290 -0.1659
17731TIP3    H174608   6.259   4.039   3.273  0.0385  0.6910 -0.3264
17731TIP3    H274609   6.339   3.918   3.317 -0.9849  0.3324  0.5894
17732TIP3   OH274610   1.640   1.965   1.752  0.5028 -0.1184  0.5527
17732TIP3    H174611   1.634   1.951   1.658  1.9402  2.5878 -0.0368
17732TIP3    H274612   1.733   1.952   1.773  0.4645  0.7195  1.3057
17733TIP3   OH274613   5.954   2.578   4.342  0.8943  0.3276 -0.3725
17733TIP3    H174614   5.953   2.541   4.430 -0.4056 -1.2921 -1.0106
17733TIP3    H274615   5.886   2.645   4.343  1.4462  0.8883  0.0658
17734TIP3   OH274616   1.217   2.088   1.673 -0.4680  0.3230 -0.2361
17734TIP3    H174617   1.302   2.108   1.633  0.3239  0.0807  1.2259
17734TIP3    H274618   1.203   1.995   1.655 -0.1676  0.2412 -0.0623
17735TIP3   OH274619   2.163   1.710  15.301  0.2367 -0.0633 -0.5306
17735TIP3    H174620   2.158   1.624  15.341  0.8017 -0.2197 -0.7852
17735TIP3    H274621   2.099   1.763  15.349 -0.1031 -0.6142 -0.3646
17736TIP3   OH274622   6.325   2.260  16.777 -0.9020 -0.4090  0.0478
17736TIP3    H174623   6.410   2.231  16.745 -0.8809 -0.5904  0.2731
17736TIP3    H274624   6.271   2.181  16.778 -1.0284 -0.3239  0.0558
17737TIP3   OH274625   3.770   0.898  13.770  0.2021  0.0445  0.3099
17737TIP3    H174626   3.837   0.916  13.705  0.3415  1.0938  0.7318
17737TIP3    H274627   3.818   0.864  13.846  0.0750 -0.8461 -0.0008
17738TIP3   OH274628   1.584   6.309  16.864 -0.1732  0.4864  0.3576
17738TIP3    H174629   1.573   6.386  16.920  2.3395  2.5346 -1.7454
17738TIP3    H274630   1.497   6.268  16.864 -1.5415  3.0617  1.8729
17739TIP3   OH274631   0.483   0.897   3.135 -0.6507  0.7189  0.0566
17739TIP3    H174632   0.513   0.889   3.044 -1.1991 -1.5785  0.0101
17739TIP3    H274633   0.387   0.895   3.129 -0.6966  0.7913  0.6769
17740TIP3   OH274634   4.649   4.145  16.156 -0.2450  0.1049 -0.9586
17740TIP3    H174635   4.696   4.192  16.224 -0.8285 -0.1384 -0.3827
17740TIP3    H274636   4.689   4.175  16.074  4.2020 -3.3446 -0.4775
17741TIP3   OH274637   6.496   5.753   1.039 -0.6866  0.6204  0.9803
17741TIP3    H174638   6.558   5.812   0.997 -0.6931  0.0032  0.0767
17741TIP3    H274639   6.462   5.802   1.114  0.1937  1.3066  0.9408
17742TIP3   OH274640   1.840   6.736   5.554 -0.2018 -0.4213  0.0907
17742TIP3    H174641   1.870   6.823   5.580 -0.2503 -0.8039  1.5272
17742TIP3    H274642   1.754   6.751   5.514  0.0816  0.2507 -0.2794
17743TIP3   OH274643   3.159   2.690   5.019 -0.0617 -0.2635  0.6213
17743TIP3    H174644   3.133   2.653   4.935  0.9418 -1.0981  0.6548
17743TIP3    H274645   3.105   2.767   5.030 -1.0642 -0.8296 -0.2254
17744TIP3   OH274646   6.558   3.301   0.451 -0.5475  0.4912 -0.4408
17744TIP3    H174647   6.464   3.316   0.456 -0.3767  2.0588 -1.2263
17744TIP3    H274648   6.569   3.208   0.470 -2.1095  0.5860  1.1228
17745TIP3   OH274649   0.429   1.128  12.407 -0.2959  0.1218  0.4563
17745TIP3    H174650   0.460   1.106  12.494 -1.9648  0.5096  1.1947
17745TIP3    H274651   0.381   1.210  12.419 -2.2438 -0.8272 -0.4183
17746TIP3   OH274652   3.135   6.651  16.980 -0.0124 -0.2561  0.4711
17746TIP3    H174653   3.143   6.726  17.038 -1.3786 -1.1998  1.9521
17746TIP3    H274654   3.117   6.689  16.894  0.8391  1.1334  0.8734
17747TIP3   OH274655   2.905   5.077   1.749  0.0715  0.0172 -0.3075
17747TIP3    H174656   2.984   5.042   1.789  0.6710  0.8733 -0.7081
17747TIP3    H274657   2.877   5.009   1.688 -0.3360 -0.9072  0.8812
17748TIP3   OH274658   3.624   3.210  14.503 -0.8459 -0.3438  0.8353
17748TIP3    H174659   3.680   3.160  14.443  0.4135  2.3773 -0.4441
17748TIP3    H274660   3.620   3.156  14.582  1.1965 -2.0051 -0.0833
17749TIP3   OH274661   5.830   5.826  14.638  0.1605  0.8338  0.3041
17749TIP3    H174662   5.814   5.761  14.707 -0.0391  0.7194  0.1535
17749TIP3    H274663   5.807   5.780  14.557  1.1698  0.6990  0.0849
17750TIP3   OH274664   0.843   1.884   4.539 -0.1257  0.2724 -0.3572
17750TIP3    H174665   0.844   1.796   4.577 -1.2372 -0.0137 -0.9585
17750TIP3    H274666   0.789   1.935   4.599  0.0433  0.4132 -0.3223
17751TIP3   OH274667   3.340   5.607   0.675 -0.5423 -0.2681 -0.7416
17751TIP3    H174668   3.258   5.656   0.669  0.1676  1.0047 -0.4180
17751TIP3    H274669   3.342   5.575   0.765 -0.9866 -0.8862 -0.9414
17752TIP3   OH274670   0.117   2.611   1.079  0.1253 -0.6507 -0.2097
17752TIP3    H174671   0.087   2.528   1.041  1.1311 -0.7241 -0.9090
17752TIP3    H274672   0.156   2.586   1.163  1.4582 -1.0933 -0.9165
17753TIP3   OH274673   3.333   2.079   1.805 -0.3298 -0.6336 -0.2753
17753TIP3    H174674   3.424   2.088   1.778 -0.7684  1.1093 -1.3006
17753TIP3    H274675   3.338   2.041   1.893  1.3496 -1.1299 -0.5548
17754TIP3   OH274676   2.794   3.737  12.912 -0.7039  1.0094 -0.3645
17754TIP3    H174677   2.724   3.802  12.909 -1.4516  0.4170  2.2728
17754TIP3    H274678   2.874   3.788  12.894 -1.3590  2.5151  0.7739
17755TIP3   OH274679   3.421   1.420  15.297 -0.8258  0.0442  0.6630
17755TIP3    H174680   3.357   1.487  15.275 -1.6903 -1.1497 -0.6223
17755TIP3    H274681   3.379   1.337  15.274  1.3721 -0.7575 -0.8424
17756TIP3   OH274682   1.137   0.153  13.952  0.4284  0.1368  0.3651
17756TIP3    H174683   1.057   0.182  13.995 -0.1010 -1.0605  0.2195
17756TIP3    H274684   1.203   0.153  14.022 -0.1782 -0.7903  0.9592
17757TIP3   OH274685   6.028   2.585  12.235  0.4631  0.1531  0.8106
17757TIP3    H174686   5.954   2.622  12.283  1.2544  1.2363  1.2228
17757TIP3    H274687   6.063   2.658  12.185  0.6238 -0.5965 -0.2113
17758TIP3   OH274688   3.651   5.542   2.872  0.0029 -0.1638 -0.1216
17758TIP3    H174689   3.626   5.512   2.785  0.1890 -0.4187 -0.0878
17758TIP3    H274690   3.662   5.637   2.862 -0.6712 -0.0904 -0.2046
17759TIP3   OH274691   1.118   0.431   2.989  0.8023  0.5946 -0.1288
17759TIP3    H174692   1.040   0.426   2.934  0.4113 -1.8272  0.5399
17759TIP3    H274693   1.086   0.460   3.075  0.6608 -0.1713  0.0813
17760TIP3   OH274694   0.300   0.033   1.351 -0.1614 -0.2672  0.1889
17760TIP3    H174695   0.294  -0.059   1.327  0.2553 -0.5652  1.1976
17760TIP3    H274696   0.364   0.036   1.422 -0.0841  0.8164  0.0971
17761TIP3   OH274697   5.559   1.722  12.975  0.2892 -0.5647  0.2235
17761TIP3    H174698   5.560   1.657  12.905 -2.0017 -1.0385  0.5658
17761TIP3    H274699   5.616   1.685  13.043 -0.0425 -1.6729 -0.0774
17762TIP3   OH274700   3.726   2.613  12.163 -0.4966 -0.2823  0.3464
17762TIP3    H174701   3.703   2.520  12.155 -1.6649  0.0146  0.0789
17762TIP3    H274702   3.820   2.616  12.147 -0.9343 -1.0418 -3.0246
17763TIP3   OH274703   2.311   3.612  14.244 -0.0737  0.3500 -0.5034
17763TIP3    H174704   2.325   3.691  14.192 -0.6503  1.1840  0.5712
17763TIP3    H274705   2.400   3.586  14.271  0.0696  1.0622 -0.2585
17764TIP3   OH274706   5.322   3.391  16.995  0.9194 -0.0524 -0.6216
17764TIP3    H174707   5.235   3.359  16.970  1.2226 -0.1820 -1.5303
17764TIP3    H274708   5.378   3.313  16.991  0.8599 -0.2188  1.0969
17765TIP3   OH274709   0.554   3.409   1.977 -0.3443  0.4082  0.6167
17765TIP3    H174710   0.506   3.443   1.902 -1.0732  2.0821  1.7891
17765TIP3    H274711   0.487   3.370   2.033  0.2708 -1.4128  0.1464
17766TIP3   OH274712   0.236   3.524  14.012 -0.2905 -0.2571  0.4395
17766TIP3    H174713   0.245   3.438  13.970  2.7575  0.4684 -0.7015
17766TIP3    H274714   0.270   3.511  14.100 -0.3063 -0.3441  0.4335
17767TIP3   OH274715   4.840   2.562   0.268 -0.2196  0.0535  0.1070
17767TIP3    H174716   4.844   2.541   0.175 -0.0626 -0.1004  0.1482
17767TIP3    H274717   4.915   2.516   0.307 -1.6440 -1.9255  0.6991
17768TIP3   OH274718   4.937   4.871   5.199  0.3103 -0.9072 -0.0325
17768TIP3    H174719   4.877   4.813   5.152  0.7723 -1.2230 -0.2479
17768TIP3    H274720   5.009   4.813   5.227  0.0124 -0.7476  1.1288
17769TIP3   OH274721   0.477   5.000   2.631  0.4084 -0.1065  0.4576
17769TIP3    H174722   0.467   5.095   2.616  2.3648  0.0708  0.0254
17769TIP3    H274723   0.432   4.960   2.557  0.6083  0.5318 -0.0221
17770TIP3   OH274724   4.630   5.184  16.851  0.3980 -0.2618  0.2814
17770TIP3    H174725   4.699   5.198  16.917  1.1777  0.8431 -0.7195
17770TIP3    H274726   4.591   5.270  16.839  2.0255  0.2172 -2.5306
17771TIP3   OH274727   6.167   1.595  16.620 -0.1870  0.2275 -0.6435
17771TIP3    H174728   6.251   1.580  16.662 -0.1975 -1.8246 -1.2425
17771TIP3    H274729   6.163   1.529  16.551 -1.7823  1.0649 -1.4040
17772TIP3   OH274730   1.025   6.254  15.541  0.0918 -0.1048  0.4345
17772TIP3    H174731   0.941   6.240  15.584  0.6584 -3.5450  0.6885
17772TIP3    H274732   1.075   6.306  15.604 -0.6427 -1.1908  1.9836
17773TIP3   OH274733   3.574   3.668   0.417  0.6960 -0.0670 -0.4513
17773TIP3    H174734   3.566   3.623   0.502  0.2790  0.1526 -0.3720
17773TIP3    H274735   3.559   3.760   0.437 -3.1507 -0.3201 -1.2414
17774TIP3   OH274736   0.076   3.710  16.491  0.3441 -0.4472  0.0494
17774TIP3    H174737   0.032   3.647  16.547  1.2563  0.2233  1.6037
17774TIP3    H274738   0.010   3.777  16.473 -0.2917 -1.2426 -0.6753
17775TIP3   OH274739   1.445   0.530   6.227  0.0497 -0.1817  0.1426
17775TIP3    H174740   1.431   0.619   6.194  1.2962  0.3218  0.8730
17775TIP3    H274741   1.358   0.500   6.254 -0.8003 -0.1305 -2.3050
17776TIP3   OH274742   2.109   5.349   4.842  0.3759  0.2603  0.5960
17776TIP3    H174743   2.126   5.423   4.783  0.1420 -0.2455 -0.1202
17776TIP3    H274744   2.055   5.385   4.912  1.6044  1.1344  1.1326
17777TIP3   OH274745   4.350   4.237   5.441 -0.1561 -0.2878 -0.7838
17777TIP3    H174746   4.418   4.282   5.391 -0.4404  0.2113 -0.7173
17777TIP3    H274747   4.286   4.304   5.463 -0.1342 -0.5289  0.0870
17778TIP3   OH274748   0.391   1.894   2.870  0.0982  0.1319 -0.3055
17778TIP3    H174749   0.479   1.872   2.902 -0.0828  0.8253  0.6946
17778TIP3    H274750   0.407   1.959   2.801  0.3448  0.8285  0.3936
17779TIP3   OH274751   0.776   2.824   3.484  0.5869 -0.0701  0.1731
17779TIP3    H174752   0.780   2.855   3.393  0.2489  0.7193  0.4185
17779TIP3    H274753   0.685   2.839   3.510  0.8346  0.3123  0.8462
17780TIP3   OH274754   5.841   2.783   0.830  0.2186 -0.3694  0.2497
17780TIP3    H174755   5.791   2.803   0.751 -0.4972  0.2733  0.8474
17780TIP3    H274756   5.799   2.835   0.899  1.9418  0.5046  0.7062
17781TIP3   OH274757   3.674   2.758   2.965  0.5688 -0.0823 -0.1096
17781TIP3    H174758   3.752   2.770   3.018  0.1331  1.7004  0.2006
17781TIP3    H274759   3.702   2.774   2.876  0.7549 -0.4165 -0.1110
17782TIP3   OH274760   3.070   3.561  10.470 -0.2673  0.3993  0.3476
17782TIP3    H174761   3.128   3.630  10.502  2.4192 -1.0485 -0.9416
17782TIP3    H274762   3.126   3.510  10.411 -3.6981  0.5103 -3.3711
17783TIP3   OH274763   4.925   2.935  12.713  0.3470 -0.3822  0.3294
17783TIP3    H174764   4.962   2.855  12.751  0.8752 -1.4782 -2.2971
17783TIP3    H274765   5.001   2.982  12.679 -0.0956  0.5977  0.6625
17784TIP3   OH274766   0.666   3.494   0.594 -0.2811  0.1474 -0.1633
17784TIP3    H174767   0.672   3.498   0.689  1.4479  0.3783 -0.2426
17784TIP3    H274768   0.579   3.457   0.576 -1.5504  2.1527  1.4326
17785TIP3   OH274769   3.958   3.306   1.492 -0.2707  0.1199  0.5645
17785TIP3    H174770   3.889   3.262   1.542 -0.1826 -1.8283 -0.9097
17785TIP3    H274771   3.948   3.272   1.403  0.9260  1.8490 -0.2852
17786TIP3   OH274772   0.556   0.770  14.669 -0.0583 -0.1327 -0.4405
17786TIP3    H174773   0.504   0.847  14.644 -1.4430 -1.3438 -1.4831
17786TIP3    H274774   0.638   0.780  14.621 -0.4038  0.4755 -0.9254
17787TIP3   OH274775   6.363   3.492  17.054 -0.0067  0.1750  1.0216
17787TIP3    H174776   6.444   3.445  17.032 -1.2613 -1.8384  0.4237
17787TIP3    H274777   6.388   3.552  17.124  2.6258  1.7423 -1.0685
17788TIP3   OH274778   1.594   3.744   4.315 -0.0912  0.5493  0.4382
17788TIP3    H174779   1.510   3.771   4.351 -0.8620  0.1562 -0.9674
17788TIP3    H274780   1.594   3.780   4.226  0.0698 -1.6385 -0.4995
17789TIP3   OH274781   2.062   4.066  10.600 -0.0412 -0.5358  0.3865
17789TIP3    H174782   1.986   4.123  10.609  0.7750  0.8232 -0.8890
17789TIP3    H274783   2.050   4.022  10.515  0.3235 -0.7368  0.4354
17790TIP3   OH274784   2.958   0.645   5.508  0.5098  0.5561  0.0087
17790TIP3    H174785   2.919   0.689   5.583 -1.2486  0.1288 -0.5993
17790TIP3    H274786   2.961   0.713   5.440 -3.3377 -0.3532 -1.3245
17791TIP3   OH274787   6.293   1.046   6.213  0.0058  0.5600 -1.0245
17791TIP3    H174788   6.242   1.118   6.249  3.4225  2.4662  0.4311
17791TIP3    H274789   6.299   0.983   6.284 -1.0234 -0.1111 -1.5114
17792TIP3   OH274790   4.542   0.479   4.331 -0.1676 -0.6570 -0.4601
17792TIP3    H174791   4.525   0.390   4.364  1.6072 -0.3198  1.5576
17792TIP3    H274792   4.454   0.515   4.315 -0.9857 -2.1209  0.4958
17793TIP3   OH274793   3.183   4.885   5.521 -0.1122 -0.0819 -0.1996
17793TIP3    H174794   3.228   4.807   5.489 -0.1094  0.1392 -0.7603
17793TIP3    H274795   3.133   4.915   5.445 -0.1533  0.4324  0.0298
17794TIP3   OH274796   5.813   5.779   0.672 -0.1273  0.5813  0.1779
17794TIP3    H174797   5.861   5.792   0.754 -1.0426 -2.8348  1.4150
17794TIP3    H274798   5.723   5.759   0.700 -0.4862 -0.6108 -1.6407
17795TIP3   OH274799   1.982   5.474   3.206  0.0266  0.0868 -0.3392
17795TIP3    H174800   2.008   5.566   3.196  0.8534 -0.0807  0.2245
17795TIP3    H274801   1.993   5.437   3.118  1.5475  0.0673 -0.1601
17796TIP3   OH274802   6.315   3.945  13.127 -0.7064 -0.0926  0.3937
17796TIP3    H174803   6.302   4.008  13.197  1.0157  1.2352 -0.4245
17796TIP3    H274804   6.281   3.863  13.162 -2.2388  1.0768  1.7870
17797TIP3   OH274805   2.033   5.423   0.265  0.2444 -0.5357  0.0936
17797TIP3    H174806   2.103   5.446   0.205 -0.2281 -0.3543 -0.3962
17797TIP3    H274807   2.005   5.336   0.236 -0.3841 -0.1999 -0.3393
17798TIP3   OH274808   2.264   3.650  13.568 -0.3377 -0.4208 -0.4706
17798TIP3    H174809   2.300   3.692  13.490 -2.7783  1.5848 -0.6319
17798TIP3    H274810   2.187   3.602  13.536  0.9864 -3.1223  0.1176
17799TIP3   OH274811   6.736   4.346  11.946  0.2598 -0.0660 -0.2152
17799TIP3    H174812   6.655   4.374  11.988  0.2897  0.2628 -0.3729
17799TIP3    H274813   6.751   4.257  11.979 -1.4100 -1.0903 -1.9802
17800TIP3   OH274814   0.705   6.496  12.766 -0.2801  0.0749  0.1139
17800TIP3    H174815   0.798   6.504  12.787 -0.3109  0.3869  0.1373
17800TIP3    H274816   0.690   6.563  12.698 -0.7460  0.8501  0.9620
17801TIP3   OH274817   1.083   6.259   4.048 -0.4561  0.2121 -0.5244
17801TIP3    H174818   1.080   6.164   4.039  1.5678  0.0296  0.3462
17801TIP3    H274819   1.150   6.287   3.985 -2.8993  1.4223 -2.7996
17802TIP3   OH274820   1.472   6.054  15.203  0.0564 -0.3425  0.5970
17802TIP3    H174821   1.560   6.090  15.214 -0.0762 -0.1767  1.1368
17802TIP3    H274822   1.476   5.968  15.245 -0.2377 -0.0309  1.2783
17803TIP3   OH274823   1.659   0.309  13.084 -0.3244  0.0836 -0.0763
17803TIP3    H174824   1.588   0.297  13.021 -0.1515 -0.0988 -0.2344
17803TIP3    H274825   1.632   0.259  13.161 -1.3860  1.7156  0.6829
17804TIP3   OH274826   5.816   3.353  13.525 -0.2505 -0.5813  0.1159
17804TIP3    H174827   5.748   3.367  13.590  0.6242 -0.5019  1.0320
17804TIP3    H274828   5.874   3.429  13.534 -0.6111 -0.0827 -1.4113
17805TIP3   OH274829   0.275   6.347   0.871  0.4034  0.4066  0.9688
17805TIP3    H174830   0.229   6.264   0.887  1.0081 -0.2325 -0.4510
17805TIP3    H274831   0.360   6.336   0.914  0.4149  0.3532  0.9330
17806TIP3   OH274832   1.519   0.867  13.387 -0.0504 -0.1969  0.2081
17806TIP3    H174833   1.424   0.859  13.384 -0.1495  0.9804 -1.0293
17806TIP3    H274834   1.549   0.836  13.302  0.5101  0.8995 -0.0246
17807TIP3   OH274835   6.601   3.232   2.468 -0.2079 -0.4316  0.4957
17807TIP3    H174836   6.526   3.179   2.440 -1.4856  1.6968 -0.3039
17807TIP3    H274837   6.652   3.246   2.387 -0.3845  0.3073  0.5053
17808TIP3   OH274838   1.559   1.496   0.255  0.1366 -0.3266 -0.1828
17808TIP3    H174839   1.482   1.503   0.199  0.0905 -1.1200 -0.2371
17808TIP3    H274840   1.540   1.422   0.313 -0.1572  0.9893  1.4393
17809TIP3   OH274841   5.245   1.904   2.160  0.7587 -0.0701 -0.5206
17809TIP3    H174842   5.283   1.937   2.242  2.0220 -0.8139 -0.7819
17809TIP3    H274843   5.193   1.978   2.127 -0.7376 -0.1173  1.4906
17810TIP3   OH274844   4.964   6.340   4.148  0.5443 -0.3365  0.3183
17810TIP3    H174845   5.055   6.354   4.122  1.1655  0.3856  2.5869
17810TIP3    H274846   4.961   6.247   4.173  0.1671 -0.8084 -1.3937
17811TIP3   OH274847   5.442   0.946   1.437 -0.4556 -0.0740  0.1520
17811TIP3    H174848   5.463   0.965   1.345 -0.5012  1.4084  0.4268
17811TIP3    H274849   5.481   1.018   1.486  0.8314 -1.5798  1.4682
17812TIP3   OH274850   5.121   6.786  15.526  0.2569 -0.6610 -0.4928
17812TIP3    H174851   5.035   6.751  15.548  1.0695 -2.8156 -0.5788
17812TIP3    H274852   5.172   6.778  15.607  0.1038  1.7582 -0.0619
17813TIP3   OH274853   1.684   5.904   5.008 -0.3933 -0.2321  0.2281
17813TIP3    H174854   1.774   5.874   5.001 -0.9444 -2.1279  0.5914
17813TIP3    H274855   1.662   5.933   4.919  0.4392 -0.1576  0.0376
17814TIP3   OH274856   6.004   0.963   5.551 -0.4317 -0.0189 -0.3166
17814TIP3    H174857   6.094   0.940   5.526 -0.6407 -1.7960  0.4243
17814TIP3    H274858   6.009   0.979   5.645 -1.2183 -2.0880  0.1092
17815TIP3   OH274859   5.277   0.243  11.597  0.1246 -0.2425 -0.0393
17815TIP3    H174860   5.259   0.150  11.609 -1.1242 -0.1555 -1.0266
17815TIP3    H274861   5.336   0.247  11.521  1.1658 -0.2812  0.7450
17816TIP3   OH274862   3.011   3.869  12.143 -0.1323  0.4509  0.0372
17816TIP3    H174863   2.916   3.876  12.131 -0.0842  0.1123 -0.5849
17816TIP3    H274864   3.032   3.782  12.110  0.4351  0.6359 -0.0863
17817TIP3   OH274865   4.006   6.656   6.373  0.1270 -0.4603 -0.3267
17817TIP3    H174866   3.965   6.724   6.319 -0.3509  1.0088  1.7818
17817TIP3    H274867   4.084   6.631   6.324 -0.1028  1.0491 -1.5371
17818TIP3   OH274868   3.229   6.671   5.035  0.0301  0.0497  0.0528
17818TIP3    H174869   3.234   6.664   4.940 -0.4644  0.6675 -0.0195
17818TIP3    H274870   3.269   6.755   5.056  2.0502 -0.9687  0.5844
17819TIP3   OH274871   4.648   6.250   3.253  0.8035 -0.0501 -0.0223
17819TIP3    H174872   4.623   6.303   3.329  1.0717  2.2941 -1.4751
17819TIP3    H274873   4.567   6.206   3.227  0.4257  0.0758  0.8874
17820TIP3   OH274874   3.097   4.240  14.535  0.0228  0.1598  0.0370
17820TIP3    H174875   3.146   4.209  14.612  0.3013  0.7063  0.0850
17820TIP3    H274876   3.119   4.333  14.529 -0.8867  0.3722 -0.0429
17821TIP3   OH274877   0.516   4.096   1.412 -0.1029 -0.0322 -0.0305
17821TIP3    H174878   0.493   4.160   1.344  0.6511 -1.3473 -1.5873
17821TIP3    H274879   0.594   4.132   1.453  1.0549 -0.5040 -1.7394
17822TIP3   OH274880   5.758   0.649  15.841  0.2698  0.0160  1.0823
17822TIP3    H174881   5.797   0.569  15.805 -0.6152  0.1652 -0.2921
17822TIP3    H274882   5.682   0.666  15.785  0.4235  1.8116  1.3530
17823TIP3   OH274883   3.476   3.632   5.426 -0.0680 -0.0918  0.0396
17823TIP3    H174884   3.485   3.713   5.476 -1.0167 -0.0406  0.1527
17823TIP3    H274885   3.381   3.619   5.419  0.0494 -1.7817  1.0068
17824TIP3   OH274886   2.776   6.234   0.125  0.0105 -0.1949  0.4327
17824TIP3    H174887   2.734   6.154   0.094  1.6327 -0.6996 -0.6257
17824TIP3    H274888   2.867   6.227   0.093  0.5543  1.4170  1.5038
17825TIP3   OH274889   6.510   0.627   1.577  0.0953  0.5080  0.4686
17825TIP3    H174890   6.497   0.631   1.672 -0.6919 -0.3831  0.4155
17825TIP3    H274891   6.465   0.704   1.543 -1.9130 -0.5359  0.6184
17826TIP3   OH274892   1.938   3.543  16.023 -0.1657  0.3100  0.1250
17826TIP3    H174893   1.887   3.536  15.942  1.9416 -0.0036 -1.2510
17826TIP3    H274894   2.000   3.470  16.019  1.1629  1.3271  1.1545
17827TIP3   OH274895   5.730   2.158   3.682 -0.3345 -0.6133 -0.2192
17827TIP3    H174896   5.726   2.098   3.757 -0.4471 -1.0422 -0.5684
17827TIP3    H274897   5.648   2.145   3.636 -0.3155 -0.2614 -0.3554
17828TIP3   OH274898   1.703   0.930  13.893 -0.1685  0.3464  0.4757
17828TIP3    H174899   1.664   0.934  13.806  0.2438 -0.6959  0.2322
17828TIP3    H274900   1.791   0.894  13.879  0.8912  2.5036  1.0268
17829TIP3   OH274901   2.756   5.971  16.087  0.7094  0.4011 -0.3726
17829TIP3    H174902   2.672   5.924  16.089 -0.8756  3.0225 -0.2574
17829TIP3    H274903   2.796   5.951  16.171  0.7920 -1.7752 -0.8622
17830TIP3   OH274904   5.172   5.422   2.361 -0.1532  0.6554 -0.6056
17830TIP3    H174905   5.161   5.334   2.397 -1.0443  0.1772 -1.9641
17830TIP3    H274906   5.250   5.416   2.305  1.1359  1.3552  1.0443
17831TIP3   OH274907   0.003   1.458  12.670 -0.2810 -0.5144 -0.7282
17831TIP3    H174908   0.028   1.424  12.756 -1.1809  0.0040 -0.2460
17831TIP3    H274909  -0.060   1.527  12.689 -0.6587 -0.5367 -1.8202
17832TIP3   OH274910   3.470   0.519   4.086  0.2054  0.2383  0.2312
17832TIP3    H174911   3.550   0.466   4.088  0.6123  0.7579 -1.0086
17832TIP3    H274912   3.414   0.481   4.154  0.5020 -1.7331 -0.5556
17833TIP3   OH274913   2.998   3.833  13.439 -0.3368  0.5637  0.0367
17833TIP3    H174914   2.976   3.740  13.431 -1.4477  0.6941  1.2843
17833TIP3    H274915   3.063   3.836  13.510 -0.4335  0.7615  0.1175
17834TIP3   OH274916   4.836   0.973  12.737  0.3125  0.3791 -0.5983
17834TIP3    H174917   4.874   0.893  12.774 -0.4299  0.5441  0.5617
17834TIP3    H274918   4.777   1.005  12.805 -1.5738  0.3815 -2.1614
17835TIP3   OH274919   3.509   6.778   0.647  0.0613  0.7929 -0.4667
17835TIP3    H174920   3.430   6.759   0.596  0.2543  0.6146 -0.7026
17835TIP3    H274921   3.559   6.838   0.593 -0.2241  1.4424 -0.0218
17836TIP3   OH274922   2.785   1.808   2.660 -0.2885 -0.3027 -0.2611
17836TIP3    H174923   2.764   1.747   2.731  0.0294 -1.2376 -0.9333
17836TIP3    H274924   2.880   1.808   2.656 -0.3048 -0.7119 -1.0325
17837TIP3   OH274925   5.831   1.766   5.947  0.6049  0.4278  0.5230
17837TIP3    H174926   5.848   1.838   6.009 -1.7813  1.4444  0.0968
17837TIP3    H274927   5.806   1.693   6.003  0.6400  0.6652  0.8568
17838TIP3   OH274928   1.615   1.042   1.423 -0.4445 -0.7116  0.2587
17838TIP3    H174929   1.596   1.128   1.386 -2.0183 -0.6225  1.1948
17838TIP3    H274930   1.637   0.988   1.347  1.2292  0.6279 -0.2959
17839TIP3   OH274931   5.892   0.973  15.030 -0.2130  0.0042  0.5253
17839TIP3    H174932   5.884   1.055  14.982 -0.7312 -2.0240 -3.2276
17839TIP3    H274933   5.983   0.947  15.016 -0.2016 -0.3338  1.2205
17840TIP3   OH274934   1.797   6.321  12.219  0.2782 -0.2535  0.2723
17840TIP3    H174935   1.769   6.413  12.226  3.0748  0.6552  0.5032
17840TIP3    H274936   1.747   6.276  12.288 -0.7795  1.1561  0.4786
17841TIP3   OH274937   2.013   4.602   0.701 -0.3067 -0.3401  0.7147
17841TIP3    H174938   2.058   4.520   0.720  0.6478  0.1485  0.6609
17841TIP3    H274939   2.016   4.651   0.783  2.6611  1.2316 -0.1600
17842TIP3   OH274940   1.041   4.756  13.471 -0.0046  0.0964  0.5254
17842TIP3    H174941   1.111   4.750  13.405 -1.3130  0.3389 -0.9248
17842TIP3    H274942   1.028   4.666  13.500 -1.4188 -0.5133 -1.7515
17843TIP3   OH274943   1.337   6.507  13.842  0.6598 -0.2067  0.0106
17843TIP3    H174944   1.406   6.528  13.779  1.1347  0.8578  0.8674
17843TIP3    H274945   1.268   6.571  13.823  0.3904 -0.5123 -0.0576
17844TIP3   OH274946   4.258   2.961  16.224  0.2221 -0.5623  0.1674
17844TIP3    H174947   4.256   2.990  16.133  0.3275 -0.8233  0.0793
17844TIP3    H274948   4.284   3.038  16.274  0.2105 -0.4310 -0.0305
17845TIP3   OH274949   4.868   0.611   3.409  0.6427  0.5390  0.3406
17845TIP3    H174950   4.933   0.655   3.353  1.5493  1.0308  1.7316
17845TIP3    H274951   4.880   0.651   3.495 -1.9450  1.0742  0.5281
17846TIP3   OH274952   3.087   3.734   0.600  0.1400 -0.2845 -0.0099
17846TIP3    H174953   3.111   3.742   0.692 -0.6600 -1.1652  0.2935
17846TIP3    H274954   3.105   3.820   0.563  0.2664  0.1463  1.0246
17847TIP3   OH274955   3.550   1.551   1.949 -0.2066  0.2607  0.0019
17847TIP3    H174956   3.589   1.638   1.938  0.6633 -0.1471 -0.2606
17847TIP3    H274957   3.463   1.568   1.985 -0.7512  1.3181 -1.7140
17848TIP3   OH274958   3.709   6.118  12.162  0.2915  0.5918  0.0396
17848TIP3    H174959   3.649   6.176  12.115 -0.0628  2.8434  2.9553
17848TIP3    H274960   3.796   6.142  12.130 -0.0169  1.0774 -0.4476
17849TIP3   OH274961   3.243   4.319   3.283  1.0029 -0.3302  0.0321
17849TIP3    H174962   3.337   4.338   3.281  1.0335 -0.4125  0.6434
17849TIP3    H274963   3.204   4.390   3.232  1.4309 -0.5092 -0.5496
17850TIP3   OH274964   6.061   6.183  12.718 -0.0787  0.2724 -0.4689
17850TIP3    H174965   6.100   6.104  12.754  0.2580  0.9958  0.7800
17850TIP3    H274966   6.077   6.177  12.624  0.0058 -1.0973 -0.3786
17851TIP3   OH274967   2.871   4.814  15.683  0.1877  0.2996 -0.3423
17851TIP3    H174968   2.815   4.788  15.756 -0.2969 -0.6501 -1.0358
17851TIP3    H274969   2.919   4.734  15.660 -0.2901  0.3473 -1.6029
17852TIP3   OH274970   0.035   4.170  11.520  0.3012 -0.1983 -0.0452
17852TIP3    H174971  -0.024   4.096  11.536  1.7977 -1.4069  0.1025
17852TIP3    H274972   0.021   4.228  11.595 -0.6108 -0.5128  0.0376
17853TIP3   OH274973   6.137   6.163   0.068 -0.3799 -0.5535 -0.1240
17853TIP3    H174974   6.166   6.142  -0.020 -0.1850 -1.5458  0.1681
17853TIP3    H274975   6.045   6.186   0.059 -0.3265 -0.5241 -0.5986
17854TIP3   OH274976   2.302   0.668  14.151  0.1079  0.3481 -0.5456
17854TIP3    H174977   2.335   0.582  14.126 -0.7252  0.0127 -0.5132
17854TIP3    H274978   2.332   0.727  14.082  3.1508  0.6242  0.8106
17855TIP3   OH274979   4.276   2.421   2.724 -0.1618  0.1249  0.0144
17855TIP3    H174980   4.291   2.435   2.818 -1.3846 -0.5844  0.3430
17855TIP3    H274981   4.357   2.383   2.692  0.2450  0.3089  0.8029
17856TIP3   OH274982   5.830   5.102  13.261  0.4109 -0.0565 -0.5188
17856TIP3    H174983   5.789   5.048  13.194  0.1365  0.1357 -0.5090
17856TIP3    H274984   5.883   5.166  13.212 -0.2777  0.4751 -0.5780
17857TIP3   OH274985   5.067   5.168  10.662 -0.5137  0.2721  0.9621
17857TIP3    H174986   4.988   5.119  10.686  0.0934 -0.8752  0.6637
17857TIP3    H274987   5.045   5.210  10.579 -0.3895 -1.1108  0.2059
17858TIP3   OH274988   5.684   3.662  15.370  0.7651 -0.4033 -0.4239
17858TIP3    H174989   5.730   3.713  15.437 -0.2855  0.5241 -0.3785
17858TIP3    H274990   5.618   3.613  15.418 -0.9415  1.3392 -0.8692
17859TIP3   OH274991   1.645   5.299   2.097  0.1826  0.0383  0.2979
17859TIP3    H174992   1.581   5.233   2.073  0.5530 -0.4433  0.6304
17859TIP3    H274993   1.686   5.324   2.014  0.1708 -0.2819  0.1958
17860TIP3   OH274994   1.902   0.079   1.221  0.6823 -0.3062 -0.5749
17860TIP3    H174995   1.891   0.126   1.138  2.3532  0.2726 -0.5100
17860TIP3    H274996   1.997   0.068   1.229  0.6127  0.3502  1.6274
17861TIP3   OH274997   0.542   4.077  14.677  0.3079  0.2205 -0.1505
17861TIP3    H174998   0.566   4.118  14.761  0.2766  0.3329 -0.1962
17861TIP3    H274999   0.544   3.983  14.695 -1.0493  0.2591  0.3645
17862TIP3   OH275000   0.518   3.907   1.962  0.1877 -0.1077  0.0292
17862TIP3    H175001   0.585   3.971   1.940  1.5152 -1.5377 -0.2599
17862TIP3    H275002   0.459   3.907   1.887 -0.4921  1.5475  0.5161
17863TIP3   OH275003   5.561   5.257   1.055 -0.4068 -0.1327  0.1475
17863TIP3    H175004   5.511   5.328   1.014  2.4942  1.3095 -1.1389
17863TIP3    H275005   5.609   5.217   0.983  0.4321 -1.3475  1.3443
17864TIP3   OH275006   1.574   3.439  11.784 -0.1084  0.5597 -0.0028
17864TIP3    H175007   1.498   3.467  11.733  0.0172  0.0212 -0.4978
17864TIP3    H275008   1.643   3.500  11.760  0.1783 -0.1530 -1.1169
17865TIP3   OH275009   2.364   6.694  12.313 -0.5201  0.4900 -0.4733
17865TIP3    H175010   2.329   6.779  12.284  0.1178  0.7057 -0.6354
17865TIP3    H275011   2.453   6.693  12.278 -1.1549 -1.0990 -2.1955
17866TIP3   OH275012   5.453   3.020   5.205  0.3216 -0.2131  0.2270
17866TIP3    H175013   5.418   3.086   5.264  0.4899 -0.2299  0.3435
17866TIP3    H275014   5.515   2.970   5.257  1.4405  0.5849 -0.2998
17867TIP3   OH275015   0.390   0.128  14.656  0.3372  0.1007 -0.4077
17867TIP3    H175016   0.474   0.174  14.652  1.9086 -2.6303 -1.6186
17867TIP3    H275017   0.383   0.098  14.747  1.0885 -0.3559 -0.4970
17868TIP3   OH275018   5.815   4.474   1.669 -0.0006 -0.1175  0.1311
17868TIP3    H175019   5.786   4.449   1.582  1.2889 -1.7046  0.0961
17868TIP3    H275020   5.765   4.418   1.728 -0.6993  0.7853  0.4191
17869TIP3   OH275021   5.441   4.483  10.945 -0.3285  0.4414  0.4896
17869TIP3    H175022   5.380   4.422  10.986 -0.9316  1.1200  0.6164
17869TIP3    H275023   5.435   4.464  10.851  0.2160 -0.3484  0.6078
17870TIP3   OH275024   6.523   0.999  13.432 -0.0697 -0.3518 -0.9021
17870TIP3    H175025   6.527   0.989  13.336 -2.5749  2.0453 -1.3862
17870TIP3    H275026   6.487   1.086  13.445 -0.8500 -1.0270  2.2540
17871TIP3   OH275027   4.498   4.417  16.379  0.3654  0.0440 -1.0237
17871TIP3    H175028   4.559   4.481  16.343 -0.7207  1.2348 -0.8352
17871TIP3    H275029   4.521   4.411  16.472 -1.1384  2.1920 -0.4295
17872TIP3   OH275030   1.852   0.532   0.728  0.2510 -0.3270  0.5010
17872TIP3    H175031   1.938   0.499   0.700  0.1514 -1.9067  1.8842
17872TIP3    H275032   1.870   0.583   0.807  0.0346  0.3178  0.1413
17873TIP3   OH275033   2.627   1.383   3.370  0.2099 -0.4390  0.3594
17873TIP3    H175034   2.612   1.449   3.437 -0.2638  2.0260 -2.0294
17873TIP3    H275035   2.721   1.387   3.352 -0.1240  1.3626 -1.3672
17874TIP3   OH275036   6.793   1.546   3.540  0.1598  0.4674 -0.2601
17874TIP3    H175037   6.832   1.573   3.457  2.0322  1.9795  1.0284
17874TIP3    H275038   6.716   1.603   3.549 -0.7708 -0.5242 -1.4463
17875TIP3   OH275039   5.378   1.562  10.968  0.4382  0.0529 -0.3116
17875TIP3    H175040   5.442   1.498  10.936 -1.2668 -1.4264 -0.9830
17875TIP3    H275041   5.380   1.552  11.063  1.5448  0.4000 -0.2860
17876TIP3   OH275042   2.990   5.680   4.397  0.2459  0.1279 -0.0255
17876TIP3    H175043   2.974   5.766   4.437 -0.1289  0.2515 -0.4307
17876TIP3    H275044   3.085   5.674   4.391  0.4241 -0.5579  2.3339
17877TIP3   OH275045   6.127   0.150   0.884  0.2954  0.3401  0.2338
17877TIP3    H175046   6.047   0.102   0.904 -0.3151  1.7489  1.3889
17877TIP3    H275047   6.185   0.134   0.958  0.8753 -0.2375 -0.3410
17878TIP3   OH275048   5.017   0.333  11.665 -0.0274 -0.4240 -0.3731
17878TIP3    H175049   5.097   0.293  11.631  0.1340 -0.4832  0.0731
17878TIP3    H275050   4.985   0.272  11.731  1.2312  1.0229  1.6657
17879TIP3   OH275051   0.036   1.200  15.910 -0.0574 -0.2101  0.0219
17879TIP3    H175052  -0.019   1.278  15.907 -2.1712 -1.4833  2.4303
17879TIP3    H275053   0.119   1.231  15.947 -0.6291  0.9970  0.3542
17880TIP3   OH275054   1.481   3.867  14.578 -0.3318 -0.2358 -0.1458
17880TIP3    H175055   1.498   3.778  14.606  0.8599  0.3017  0.9567
17880TIP3    H275056   1.414   3.899  14.637  1.0474  0.3831  1.1456
17881TIP3   OH275057   2.344   2.781  17.128 -0.2438 -0.3950 -0.4270
17881TIP3    H175058   2.333   2.842  17.056  0.4057 -0.2283 -0.3903
17881TIP3    H275059   2.338   2.835  17.207  0.4373 -0.3538 -0.3963
17882TIP3   OH275060   2.030   1.707   4.252 -0.2666  0.3611 -0.3010
17882TIP3    H175061   2.020   1.643   4.322  2.5269 -1.3447 -1.3225
17882TIP3    H275062   2.042   1.655   4.173  0.7735  2.1704 -1.4018
17883TIP3   OH275063   5.552   5.640   0.748 -0.2445 -0.2520  0.0020
17883TIP3    H175064   5.536   5.685   0.665  2.0956 -1.0485 -0.9618
17883TIP3    H275065   5.488   5.568   0.749  0.3336 -0.8471 -1.6449
17884TIP3   OH275066   0.856   0.047   5.749  0.1403 -1.0552  0.1409
17884TIP3    H175067   0.794   0.017   5.815  0.1602 -2.0553 -0.2651
17884TIP3    H275068   0.894  -0.034   5.714  0.8353 -0.5058 -0.4131
17885TIP3   OH275069   5.813   5.763   5.169  0.1170 -0.1598 -0.4405
17885TIP3    H175070   5.721   5.761   5.143 -0.1508  0.3337  0.4430
17885TIP3    H275071   5.854   5.823   5.106 -0.7831  2.0606  0.9999
17886TIP3   OH275072   4.349   1.575  16.327 -0.1892  0.4043  0.1311
17886TIP3    H175073   4.264   1.538  16.349 -0.0982  0.4789  0.6367
17886TIP3    H275074   4.344   1.595  16.234 -0.9174  0.9076  0.2727
17887TIP3   OH275075   6.148   4.457   5.555 -0.3902 -0.3540 -0.2902
17887TIP3    H175076   6.134   4.458   5.461  2.7458  0.3938 -0.8506
17887TIP3    H275077   6.123   4.545   5.584 -1.2477 -0.5509 -0.3835
17888TIP3   OH275078   4.826   6.696   4.844  0.2826 -0.6099 -0.1660
17888TIP3    H175079   4.732   6.682   4.836  0.2045  0.2192 -0.9656
17888TIP3    H275080   4.865   6.618   4.806 -0.0058 -2.5279  3.1890
17889TIP3   OH275081   4.664   0.039  16.912  0.2381  0.1068  0.0153
17889TIP3    H175082   4.643   0.051  17.005  1.1590  1.7644  0.0346
17889TIP3    H275083   4.615  -0.040  16.887  1.3164 -1.3928  2.3171
17890TIP3   OH275084   0.022   0.354  11.750  0.1258 -0.5339 -0.0771
17890TIP3    H175085   0.044   0.263  11.731  0.8977 -1.0361  2.7337
17890TIP3    H275086   0.099   0.388  11.796 -0.7135  1.1208  0.1880
17891TIP3   OH275087   0.151   1.089   1.472 -0.0044  0.3406  0.4460
17891TIP3    H175088   0.212   1.099   1.545 -0.3045 -1.3000  0.9823
17891TIP3    H275089   0.158   1.171   1.423  1.7766  0.6431  1.1153
17892TIP3   OH275090   0.143   0.589   2.575  0.0822  0.1398  0.0104
17892TIP3    H175091   0.087   0.651   2.529  0.2176 -0.9246 -1.6794
17892TIP3    H275092   0.232   0.619   2.556  0.2014 -1.2354 -1.9504
17893TIP3   OH275093   4.054   0.889   1.419 -0.4612  0.0889 -0.3076
17893TIP3    H175094   4.107   0.945   1.362  0.0284 -0.6646 -0.6043
17893TIP3    H275095   4.118   0.847   1.477 -0.7906 -0.4044 -0.2983
17894TIP3   OH275096   5.981   4.357  14.075 -0.3194  0.0429  0.7451
17894TIP3    H175097   6.013   4.445  14.053  0.7149 -0.2825  0.8903
17894TIP3    H275098   5.905   4.372  14.130 -0.5106  0.8556  0.2730
17895TIP3   OH275099   6.038   0.120   6.179  0.7116 -0.1624 -0.5009
17895TIP3    H175100   6.024   0.208   6.144 -0.9020  0.4697  1.5051
17895TIP3    H275101   5.960   0.103   6.233  1.3134 -2.5489 -0.2572
17896TIP3   OH275102   3.581   3.648  16.747  0.2217 -0.2775 -0.1923
17896TIP3    H175103   3.595   3.726  16.799 -0.3661  0.0950 -0.5874
17896TIP3    H275104   3.622   3.578  16.797  0.6368  0.2585  0.2249
17897TIP3   OH275105   6.429   0.186   5.405  0.0573  0.0766  0.4501
17897TIP3    H175106   6.356   0.232   5.364  0.6665  2.3424  1.7082
17897TIP3    H275107   6.414   0.094   5.384 -2.1818  0.6332 -0.7899
17898TIP3   OH275108   4.317   4.579   1.799 -0.2524  0.4635 -0.2356
17898TIP3    H175109   4.340   4.586   1.891  1.3615  3.6598 -0.7497
17898TIP3    H275110   4.251   4.509   1.796 -0.6061  0.4649  3.3326
17899TIP3   OH275111   2.098   0.896   0.865 -0.4369  0.2855 -0.1457
17899TIP3    H175112   2.104   0.887   0.960 -1.6366  1.0404  0.0214
17899TIP3    H275113   2.145   0.820   0.830 -0.9631 -0.6111  1.0567
17900TIP3   OH275114   0.103   3.221  12.318  0.0613  0.8917 -0.2355
17900TIP3    H175115   0.067   3.306  12.343 -3.3600 -0.5139  0.2827
17900TIP3    H275116   0.080   3.211  12.226 -1.0981 -0.0520  0.1184
17901TIP3   OH275117   5.017   1.825   4.261  0.1164 -0.4444 -0.5301
17901TIP3    H175118   5.010   1.780   4.177  2.5172  1.5375 -1.9337
17901TIP3    H275119   5.056   1.909   4.240  0.7571  0.1701  2.6042
17902TIP3   OH275120   0.204   3.988   5.773 -0.5165 -0.3388 -0.3042
17902TIP3    H175121   0.163   3.910   5.811 -1.0324 -0.2123 -0.5862
17902TIP3    H275122   0.143   4.015   5.705 -0.4303  0.4200 -0.0807
17903TIP3   OH275123   5.160   4.784   1.136 -0.2474 -0.2054 -0.0324
17903TIP3    H175124   5.180   4.703   1.181  1.4520  0.7694  1.0574
17903TIP3    H275125   5.116   4.757   1.055 -0.0127 -2.1637  0.4619
17904TIP3   OH275126   4.189   3.724   0.132  0.7743 -0.4394  0.3015
17904TIP3    H175127   4.182   3.629   0.135  1.7151 -0.5716 -1.0269
17904TIP3    H275128   4.196   3.750   0.224 -0.0123 -1.5884  0.7146
17905TIP3   OH275129   4.256   1.774  15.542  0.1659  0.1463  0.1922
17905TIP3    H175130   4.260   1.757  15.448 -1.2008  1.9714 -0.2751
17905TIP3    H275131   4.172   1.819  15.554  1.4817  2.4090  1.8079
17906TIP3   OH275132   2.381   4.243   1.597 -0.2487  0.5646  0.0522
17906TIP3    H175133   2.455   4.275   1.544  2.0062 -0.3699  2.4256
17906TIP3    H275134   2.352   4.320   1.646  0.4055  0.5629  0.4567
17907TIP3   OH275135   1.906   4.322   6.006 -0.2025 -0.1905 -0.2969
17907TIP3    H175136   1.885   4.244   5.955  1.1502 -0.6019 -0.2781
17907TIP3    H275137   1.894   4.296   6.097  0.3656 -0.4273 -0.2855
17908TIP3   OH275138   5.988   4.786  12.000  0.6367 -0.8493 -0.0979
17908TIP3    H175139   5.975   4.695  12.025 -0.8728 -0.5541  0.2672
17908TIP3    H275140   5.959   4.791  11.909  0.2211 -0.6301  0.0451
17909TIP3   OH275141   1.129   4.147   0.713  0.1906 -0.0784 -0.0394
17909TIP3    H175142   1.058   4.123   0.774  0.0775  0.1904 -0.0650
17909TIP3    H275143   1.180   4.067   0.704 -0.6342 -0.5449 -0.7277
17910TIP3   OH275144   0.726   4.066   2.311  0.1028 -0.8726  0.8763
17910TIP3    H175145   0.815   4.042   2.339  0.1604 -0.4337  1.0720
17910TIP3    H275146   0.735   4.083   2.217  0.1672 -1.0980  0.8397
17911TIP3   OH275147   6.537   2.783  12.779 -0.2529 -0.1690  0.2364
17911TIP3    H175148   6.493   2.832  12.709  0.1353  0.8597  0.6889
17911TIP3    H275149   6.467   2.753  12.836 -0.5850 -1.1163 -0.6342
17912TIP3   OH275150   0.696   2.807  16.023  0.2015 -0.2869  0.1167
17912TIP3    H175151   0.685   2.825  15.930  1.5568  1.9492  0.3064
17912TIP3    H275152   0.778   2.759  16.029  0.7477  0.6350  0.2189
17913TIP3   OH275153   2.739   3.638   6.064  0.0144  0.1526 -0.2255
17913TIP3    H175154   2.737   3.685   5.980 -0.0495 -0.4236 -0.5553
17913TIP3    H275155   2.764   3.549   6.040  1.1685  0.2677  0.5124
17914TIP3   OH275156   6.000   2.244  16.608 -0.4204 -0.5002 -0.0825
17914TIP3    H175157   6.039   2.232  16.522 -1.2854 -1.6555 -0.3453
17914TIP3    H275158   5.970   2.157  16.633 -1.8240  0.1287  0.5705
17915TIP3   OH275159   4.469   4.062   0.656  0.2320  0.1146  0.1360
17915TIP3    H175160   4.451   3.971   0.633 -1.3088 -0.6481  3.6287
17915TIP3    H275161   4.477   4.107   0.572  0.3205 -3.0583 -1.7359
17916TIP3   OH275162   6.771   0.835  14.986  0.2469  0.1890 -0.3430
17916TIP3    H175163   6.849   0.851  15.040 -0.7021  1.9596  0.6112
17916TIP3    H275164   6.803   0.839  14.896  1.2551  0.9289  0.0217
17917TIP3   OH275165   2.511   0.899   5.921 -0.3157  0.0958  0.2328
17917TIP3    H175166   2.592   0.887   5.971 -0.7491  0.2368  0.9725
17917TIP3    H275167   2.441   0.882   5.983 -0.8716  0.7116 -0.2080
17918TIP3   OH275168   2.464   3.356  11.180 -0.3834  0.0298  0.2615
17918TIP3    H175169   2.407   3.430  11.159  0.5720  0.3996 -1.2310
17918TIP3    H275170   2.474   3.309  11.097  2.6369  0.8373  0.0497
17919TIP3   OH275171   4.149   2.261   3.142 -0.0561 -0.4217 -0.4523
17919TIP3    H175172   4.200   2.217   3.210 -1.4357  0.2045  1.0689
17919TIP3    H275173   4.103   2.331   3.189 -1.4709 -0.3013 -1.9366
17920TIP3   OH275174   5.381   2.569   4.332  0.1305  0.0391 -0.3805
17920TIP3    H175175   5.297   2.550   4.290  0.2500  0.7245 -0.9281
17920TIP3    H275176   5.358   2.591   4.422 -0.2797  0.2756 -0.5429
17921TIP3   OH275177   1.572   5.293   0.725 -0.0943  0.1718  0.7043
17921TIP3    H175178   1.531   5.230   0.665  0.3731  0.4032  0.1392
17921TIP3    H275179   1.597   5.241   0.801 -2.1923  0.1492  1.4599
17922TIP3   OH275180   6.054   4.306  13.092  0.1654  0.6251 -0.3146
17922TIP3    H175181   6.030   4.320  13.183 -1.0565  2.2490 -0.8428
17922TIP3    H275182   5.970   4.300  13.046  0.7533 -0.5967 -1.2933
17923TIP3   OH275183   0.860   4.017  15.257 -0.3123  0.2516  0.2112
17923TIP3    H175184   0.941   4.050  15.218  0.4252 -0.5902  0.9777
17923TIP3    H275185   0.811   3.981  15.183 -0.4553  1.6598 -0.4065
17924TIP3   OH275186   0.932   1.823   1.716  0.2959  0.0619 -0.2026
17924TIP3    H175187   0.923   1.750   1.777 -0.9233  0.1850 -0.2135
17924TIP3    H275188   0.868   1.887   1.746  0.0664  0.3589 -1.2688
17925TIP3   OH275189   4.641   1.048   6.070 -0.4488 -0.0200 -0.0424
17925TIP3    H175190   4.703   1.052   6.143  1.5485  0.7325 -1.6707
17925TIP3    H275191   4.641   0.956   6.043  0.5676  0.0945 -0.4791
17926TIP3   OH275192   3.698   2.427  17.150 -0.0201 -0.0967 -0.3839
17926TIP3    H175193   3.713   2.334  17.136 -0.6527 -0.0392 -1.5234
17926TIP3    H275194   3.721   2.468  17.066  0.9300  0.8603  0.3141
17927TIP3   OH275195   1.251   6.432   5.112 -0.1847 -0.1780  0.1837
17927TIP3    H175196   1.249   6.339   5.136 -1.3239  0.2510  1.9602
17927TIP3    H275197   1.344   6.454   5.113 -0.0062 -0.3957  3.9118
17928TIP3   OH275198   3.638   5.157   1.190 -0.0051 -0.3672 -0.0051
17928TIP3    H175199   3.703   5.215   1.230 -0.3936  1.0300 -1.2696
17928TIP3    H275200   3.556   5.178   1.236 -0.8821  2.6501 -2.5320
17929TIP3   OH275201   4.250   0.805   5.455 -0.1355 -0.1320  0.1739
17929TIP3    H175202   4.235   0.897   5.474  3.3136  0.2197  1.9770
17929TIP3    H275203   4.301   0.773   5.530  1.6137 -2.6010 -1.8948
17930TIP3   OH275204   1.901   3.864  13.268 -0.8880  0.1057  0.0659
17930TIP3    H175205   1.913   3.771  13.286  1.3093  0.3819  0.2688
17930TIP3    H275206   1.974   3.907  13.313  0.0700  1.6090 -2.6978
17931TIP3   OH275207   1.186   2.441   2.763  0.2778  0.0987 -0.3047
17931TIP3    H175208   1.152   2.486   2.840  1.4210  0.7194 -0.1315
17931TIP3    H275209   1.111   2.436   2.703 -0.2868  0.8114  0.3115
17932TIP3   OH275210   6.468   2.024   6.433 -0.1276 -0.5453  0.1725
17932TIP3    H175211   6.458   2.002   6.526 -1.0325 -1.5209 -0.1413
17932TIP3    H275212   6.409   1.964   6.387  0.2575 -0.0334 -1.0363
17933TIP3   OH275213   0.206   5.626  16.642  0.0530  0.1512 -0.3240
17933TIP3    H175214   0.226   5.683  16.568 -0.3556 -0.3652 -0.8517
17933TIP3    H275215   0.196   5.539  16.603 -2.7925  0.2681 -0.1123
17934TIP3   OH275216   5.321   5.264  12.232  0.3129 -0.4033 -0.4644
17934TIP3    H175217   5.389   5.284  12.296  0.3582 -1.6436 -0.1015
17934TIP3    H275218   5.274   5.189  12.268 -1.3234  0.4681 -0.6678
17935TIP3   OH275219   0.794   6.758  15.781  0.4351 -0.4098  0.5234
17935TIP3    H175220   0.743   6.771  15.701  0.0162 -0.1660  0.8229
17935TIP3    H275221   0.728   6.743  15.849  0.8052 -1.3043  0.7017
17936TIP3   OH275222   2.555   2.623   5.753 -0.8638  0.0969  0.4685
17936TIP3    H175223   2.570   2.538   5.793 -0.0798  0.4814  0.9986
17936TIP3    H275224   2.609   2.623   5.674 -0.1462  0.4449  0.9509
17937TIP3   OH275225   4.681   1.080  14.722 -0.2141  0.5936 -0.1125
17937TIP3    H175226   4.634   1.153  14.763 -0.1269  1.6996 -1.8658
17937TIP3    H275227   4.763   1.119  14.691 -0.3065 -0.1474 -1.3637
17938TIP3   OH275228   5.522   1.161   0.934 -0.3358  0.0637 -0.1781
17938TIP3    H175229   5.606   1.207   0.943  0.2744 -1.0818  0.0712
17938TIP3    H275230   5.508   1.120   1.019 -0.5447 -0.7626 -0.6047
17939TIP3   OH275231   5.412   6.306   2.136 -0.1785 -0.5366 -0.0435
17939TIP3    H175232   5.470   6.350   2.073  0.2487  0.4223  0.9923
17939TIP3    H275233   5.467   6.290   2.212 -0.8496 -1.1357  0.3177
17940TIP3   OH275234   6.395   3.179  10.484 -0.3928 -0.2138  0.0754
17940TIP3    H175235   6.324   3.211  10.428 -0.0939  1.0674  0.3775
17940TIP3    H275236   6.465   3.244  10.472 -0.0332 -0.3435  1.3400
17941TIP3   OH275237   0.638   4.859  15.633 -0.5675  0.1766 -0.2843
17941TIP3    H175238   0.600   4.771  15.638 -2.5086  0.9969  0.3539
17941TIP3    H275239   0.581   4.906  15.572  0.4843  1.0036 -0.6639
17942TIP3   OH275240   6.418   3.041   3.816 -0.3889  0.2690  0.1870
17942TIP3    H175241   6.409   3.056   3.910 -0.0544 -1.0875  0.4437
17942TIP3    H275242   6.466   3.118   3.784 -3.3438  2.4346  0.5249
17943TIP3   OH275243   5.228   1.191  16.703 -0.4786 -0.0406  0.1815
17943TIP3    H175244   5.216   1.269  16.648 -0.6489 -0.3163 -0.1766
17943TIP3    H275245   5.285   1.220  16.774  0.0042  0.2379 -0.3105
17944TIP3   OH275246   4.213   3.840   3.430  0.1865 -0.3905 -0.2578
17944TIP3    H175247   4.254   3.887   3.357 -0.3289  0.3897 -0.0645
17944TIP3    H275248   4.125   3.878   3.436  0.0012 -0.9001  0.3558
17945TIP3   OH275249   5.157   2.811   4.581  0.6727  0.5646  0.4993
17945TIP3    H175250   5.107   2.786   4.503  0.1621 -1.1306  1.3282
17945TIP3    H275251   5.185   2.728   4.620  0.5925  1.3318  2.3210
17946TIP3   OH275252   3.999   3.149   0.446 -0.3177 -0.0877 -0.0120
17946TIP3    H175253   3.959   3.232   0.422  3.1720  2.3475  1.7280
17946TIP3    H275254   3.979   3.138   0.539  1.8604  0.6333  0.6201
17947TIP3   OH275255   0.682   0.018   4.160  0.1978  0.2450  0.0764
17947TIP3    H175256   0.633  -0.002   4.080 -2.3397  3.1380  0.7170
17947TIP3    H275257   0.765   0.053   4.129  0.2041 -0.8162 -1.1994
17948TIP3   OH275258   6.388   5.335  15.235 -0.6481 -0.5762 -0.2551
17948TIP3    H175259   6.463   5.394  15.244 -0.8872 -0.0271 -1.5943
17948TIP3    H275260   6.427   5.250  15.215 -0.3085 -0.8973  1.5526
17949TIP3   OH275261   1.070   0.418  13.006  0.0762 -0.0580 -0.4298
17949TIP3    H175262   1.113   0.503  12.998  0.4657 -0.2043  0.0630
17949TIP3    H275263   1.136   0.362  13.047 -0.5686 -0.3027  0.2969
17950TIP3   OH275264   1.475   4.119   3.739  0.4321 -0.4145 -0.4135
17950TIP3    H175265   1.476   4.123   3.834 -1.2345 -1.6341 -0.3007
17950TIP3    H275266   1.548   4.062   3.716  0.6514 -0.3678  0.1541
17951TIP3   OH275267   2.175   2.202   4.595 -0.4244 -0.1115 -0.1844
17951TIP3    H175268   2.259   2.161   4.611 -0.8717 -0.5936  1.0323
17951TIP3    H275269   2.188   2.294   4.618 -0.3726 -0.2992  0.5554
17952TIP3   OH275270   2.214   2.140  15.653 -0.6613  0.6967  0.0992
17952TIP3    H175271   2.281   2.127  15.586 -0.5559 -0.2131  0.3573
17952TIP3    H275272   2.256   2.110  15.734 -1.3379  0.2048  0.2743
17953TIP3   OH275273   5.248   0.003   4.181 -0.4251 -0.1377 -0.3231
17953TIP3    H175274   5.195  -0.047   4.243  0.5992 -2.1368 -0.9578
17953TIP3    H275275   5.240  -0.045   4.098  2.5834 -0.7665 -0.3630
17954TIP3   OH275276   3.543   1.471  13.976 -0.7280  0.0285  0.0088
17954TIP3    H175277   3.562   1.459  13.883 -0.1591 -0.6130  0.1923
17954TIP3    H275278   3.567   1.562  13.994 -1.3527  0.3118 -0.5845
17955TIP3   OH275279   6.042   1.442  15.494  0.2007 -0.2727 -0.1122
17955TIP3    H175280   6.006   1.358  15.464 -1.3931  0.7649 -1.2417
17955TIP3    H275281   6.072   1.485  15.414 -0.0741  0.7180  0.3012
17956TIP3   OH275282   4.146   0.826  16.679 -0.1539  0.4190 -0.6663
17956TIP3    H175283   4.122   0.895  16.618  0.7242 -0.5853 -2.2103
17956TIP3    H275284   4.242   0.829  16.682 -0.1723  0.5825  0.8690
17957TIP3   OH275285   0.689   1.789  11.667  0.5768 -0.4915 -0.1562
17957TIP3    H175286   0.630   1.864  11.663 -0.9056 -1.6202 -0.2049
17957TIP3    H275287   0.752   1.804  11.597 -1.0630 -0.3617 -1.6858
17958TIP3   OH275288   5.567   0.210   5.407  0.3386  0.1474 -0.4647
17958TIP3    H175289   5.581   0.138   5.345  1.0736 -0.1694  0.0562
17958TIP3    H275290   5.554   0.167   5.491  1.5667  0.6224 -0.0019
17959TIP3   OH275291   2.555   0.541  11.461  0.2580 -0.0868 -0.2871
17959TIP3    H175292   2.598   0.473  11.514  0.0056 -0.7538 -0.9073
17959TIP3    H275293   2.488   0.577  11.518  0.2604 -0.5024 -0.0139
17960TIP3   OH275294   3.441   4.524  13.396  0.0734  0.0411  0.3153
17960TIP3    H175295   3.449   4.445  13.450 -1.2274 -0.1293  0.3042
17960TIP3    H275296   3.447   4.596  13.459  1.1264 -0.0566  0.3438
17961TIP3   OH275297   4.909   2.659   3.143  0.4516  0.3338  0.1724
17961TIP3    H175298   4.855   2.602   3.197 -1.3211 -1.0518 -2.8064
17961TIP3    H275299   4.861   2.741   3.138  0.0036  0.0560 -0.2073
17962TIP3   OH275300   5.721   3.948   2.744 -0.3534 -0.1610  0.0511
17962TIP3    H175301   5.627   3.940   2.733 -0.8295  2.8376  0.9131
17962TIP3    H275302   5.733   3.971   2.836  1.0494  0.8446 -0.3252
17963TIP3   OH275303   2.522   3.043   4.445 -1.0805 -0.1587 -0.1828
17963TIP3    H175304   2.487   3.067   4.359 -1.6260  0.8704  0.2974
17963TIP3    H275305   2.447   3.053   4.505 -0.2963  0.8080  0.6696
17964TIP3   OH275306   1.931   0.590  13.237  0.1914  0.5032  0.0403
17964TIP3    H175307   1.955   0.498  13.237  1.1967  0.7504  0.8140
17964TIP3    H275308   1.853   0.595  13.292 -0.0276  0.0857 -0.2279
17965TIP3   OH275309   4.469   1.129   4.250 -0.4935 -0.3747 -0.0495
17965TIP3    H175310   4.373   1.134   4.242 -0.5300  0.0235  0.5370
17965TIP3    H275311   4.494   1.214   4.287 -0.1018 -1.1168  1.4633
17966TIP3   OH275312   3.959   3.063  16.762 -0.1530  0.0170 -0.1655
17966TIP3    H175313   3.926   3.033  16.847 -2.8311  0.6207 -0.8825
17966TIP3    H275314   3.956   2.986  16.706 -2.5060  0.4616 -0.7618
17967TIP3   OH275315   0.627   1.135  14.035  0.1180  0.0221  0.3090
17967TIP3    H175316   0.610   1.052  14.079 -0.2427 -0.2378 -0.3129
17967TIP3    H275317   0.549   1.188  14.052  0.8819  0.7373  1.8125
17968TIP3   OH275318   3.360   5.500  10.587 -0.2889 -0.1690 -0.1508
17968TIP3    H175319   3.305   5.423  10.570  0.9598 -1.0100 -0.5588
17968TIP3    H275320   3.386   5.492  10.678  0.3999 -0.6232 -0.3788
17969TIP3   OH275321   3.929   2.870   1.591 -0.2308 -0.0798 -0.1635
17969TIP3    H175322   3.909   2.781   1.562 -0.8332 -0.2041  0.6093
17969TIP3    H275323   3.971   2.859   1.676 -0.6524  0.3940  0.1122
17970TIP3   OH275324   3.814   1.430   1.698  0.3223 -0.3445  0.0386
17970TIP3    H175325   3.779   1.364   1.758  2.2303 -0.8400  0.6584
17970TIP3    H275326   3.853   1.381   1.627  0.4279  0.1637 -0.2605
17971TIP3   OH275327   3.762   5.240   1.958 -0.4509 -1.2331  0.3612
17971TIP3    H175328   3.717   5.319   1.929 -1.0408 -0.9054  2.0495
17971TIP3    H275329   3.691   5.180   1.982 -0.0507 -2.6793 -1.7518
17972TIP3   OH275330   4.671   2.510  11.718  0.7640 -0.3539  0.3834
17972TIP3    H175331   4.676   2.448  11.646 -0.7139  0.6582 -0.6354
17972TIP3    H275332   4.597   2.481  11.771  0.2587  0.3472  0.0738
17973TIP3   OH275333   6.043   3.118   3.815 -0.0725 -0.0425  0.6513
17973TIP3    H175334   6.110   3.185   3.831 -0.3201  0.5900 -0.8036
17973TIP3    H275335   6.039   3.069   3.897  0.9597  0.9732  1.3522
17974TIP3   OH275336   1.894   5.737   4.717  0.7082 -0.3531 -0.1079
17974TIP3    H175337   1.850   5.652   4.725 -0.7424  0.4894  1.5892
17974TIP3    H275338   1.831   5.800   4.750  0.1651  1.9977 -4.8249
17975TIP3   OH275339   3.677   0.147   4.409 -0.6479 -0.7225 -1.0133
17975TIP3    H175340   3.623   0.085   4.459  1.7249 -1.7050  0.4945
17975TIP3    H275341   3.747   0.093   4.371  1.4433  0.9516  0.2680
17976TIP3   OH275342   3.336   0.195  14.240  0.5086  0.1212 -0.2415
17976TIP3    H175343   3.348   0.101  14.252  0.9603  0.3274  1.0007
17976TIP3    H275344   3.336   0.231  14.328 -1.6055  1.0779 -0.5621
17977TIP3   OH275345   6.444   1.323   3.881  0.5823  0.7227 -0.3681
17977TIP3    H175346   6.368   1.277   3.918  0.4330 -0.4872 -2.0935
17977TIP3    H275347   6.515   1.259   3.885  0.7184  0.7799 -1.5599
17978TIP3   OH275348   6.454   0.324   2.544 -0.4734 -0.2973  0.4143
17978TIP3    H175349   6.446   0.245   2.597 -2.7750 -0.7865 -0.5607
17978TIP3    H275350   6.547   0.348   2.551  0.1648 -2.7187  1.2297
17979TIP3   OH275351   2.439   3.603   4.293 -0.5683 -0.7238  0.2928
17979TIP3    H175352   2.428   3.549   4.214 -2.0550 -0.2088  0.0957
17979TIP3    H275353   2.532   3.624   4.296 -0.7930  1.4310 -2.8592
17980TIP3   OH275354   5.736   1.471   3.657 -0.5283 -0.8006 -0.2943
17980TIP3    H175355   5.683   1.397   3.687 -0.0788 -1.5018 -1.1937
17980TIP3    H275356   5.819   1.432   3.630 -0.3097  0.0270 -0.8462
17981TIP3   OH275357   5.404   3.845  14.519 -0.1515  0.0813  0.2567
17981TIP3    H175358   5.465   3.870  14.589 -1.1679  0.1613  1.1390
17981TIP3    H275359   5.326   3.813  14.565 -0.4555 -0.8498 -0.8428
17982TIP3   OH275360   0.318   1.784   5.227  0.4706 -0.6308  0.3746
17982TIP3    H175361   0.325   1.866   5.179 -1.5242 -2.1657 -2.8255
17982TIP3    H275362   0.406   1.746   5.223  0.6312 -0.1427 -1.0346
17983TIP3   OH275363   4.468   6.472  11.393 -0.3161 -0.4739 -0.1801
17983TIP3    H175364   4.404   6.476  11.323  0.2776  0.4524 -0.6978
17983TIP3    H275365   4.553   6.470  11.348  0.2078  2.4838  0.4305
17984TIP3   OH275366   1.245   5.329  12.731 -0.0245 -0.2178  0.3043
17984TIP3    H175367   1.217   5.265  12.666  0.8729  1.4803 -1.8850
17984TIP3    H275368   1.331   5.359  12.700  1.2558 -0.4899  3.1981
17985TIP3   OH275369   5.764   0.317   4.976  0.0578  0.3723 -0.1316
17985TIP3    H175370   5.782   0.363   5.058  1.6361 -3.0807  1.6571
17985TIP3    H275371   5.835   0.254   4.967 -0.4884  0.0539 -3.8178
17986TIP3   OH275372   1.196   0.968  16.285 -0.3053  0.4683  0.2893
17986TIP3    H175373   1.258   0.895  16.282  1.5972  2.0113 -0.2746
17986TIP3    H275374   1.129   0.939  16.347  1.5508 -0.8894  1.8126
17987TIP3   OH275375   5.106   4.116  12.506  0.3633  0.4696 -0.5424
17987TIP3    H175376   5.077   4.120  12.415 -0.7657  1.5023 -0.1783
17987TIP3    H275377   5.034   4.157  12.555 -0.2493 -2.3536  1.1159
17988TIP3   OH275378   5.678   1.427  16.635 -0.1559 -0.5517 -0.0582
17988TIP3    H175379   5.735   1.467  16.569  0.9853  0.3921  1.4125
17988TIP3    H275380   5.668   1.336  16.607  0.3466 -0.1964 -1.4754
17989TIP3   OH275381   1.970   3.217  10.895  0.5481 -0.4340  0.4123
17989TIP3    H175382   2.039   3.217  10.961  1.7370  1.4480 -0.7335
17989TIP3    H275383   1.889   3.209  10.946  1.5102 -1.5460  1.8701
17990TIP3   OH275384   0.544   6.038   4.429  0.0165  0.4415  0.2498
17990TIP3    H175385   0.578   6.007   4.514  1.1890 -0.3960 -0.4957
17990TIP3    H275386   0.507   5.960   4.388 -0.4327  0.8197 -0.0726
17991TIP3   OH275387   6.402   1.398   1.271 -0.3674  0.0479  0.6643
17991TIP3    H175388   6.428   1.434   1.356 -1.0331 -1.0234  1.3435
17991TIP3    H275389   6.479   1.350   1.241 -0.3530 -0.1442  0.9961
17992TIP3   OH275390   6.065   6.146  13.461 -0.0308 -0.4356  0.3445
17992TIP3    H175391   6.088   6.239  13.462 -0.4595 -0.3176 -0.3629
17992TIP3    H275392   6.032   6.130  13.373  1.2971 -1.5739  0.0159
17993TIP3   OH275393   6.660   5.876  14.195 -0.4856 -0.5308  0.0797
17993TIP3    H175394   6.698   5.800  14.151 -1.2001 -1.0206  0.2811
17993TIP3    H275395   6.577   5.844  14.231 -1.9239  0.9117 -1.7476
17994TIP3   OH275396   5.294   4.402   0.880 -0.1714  0.5609 -0.2780
17994TIP3    H175397   5.341   4.383   0.961  0.5063  2.6803 -0.1084
17994TIP3    H275398   5.337   4.349   0.814 -1.1982 -1.7730  0.8115
17995TIP3   OH275399   3.777   5.766  15.660  0.0969  0.0546 -0.2101
17995TIP3    H175400   3.871   5.747  15.664 -0.3550 -2.5197  0.2878
17995TIP3    H275401   3.753   5.787  15.750 -0.2329 -2.1680  0.2930
17996TIP3   OH275402   1.442   0.453   4.548  0.6474  0.5544  0.4556
17996TIP3    H175403   1.354   0.450   4.510  1.4341 -2.2855 -1.5259
17996TIP3    H275404   1.445   0.377   4.607  1.3626  1.4287  1.5773
17997TIP3   OH275405   1.939   1.153  16.127 -0.8245  0.7472  0.3413
17997TIP3    H175406   1.958   1.247  16.128 -0.3313  0.6888 -0.9666
17997TIP3    H275407   1.931   1.128  16.219 -0.9336  2.0632  0.6995
17998TIP3   OH275408   0.975   4.597   0.961  1.1652 -0.3605 -0.2509
17998TIP3    H175409   1.040   4.618   1.028 -1.0149  1.8876  1.3408
17998TIP3    H275410   0.921   4.528   0.999 -0.3119  1.1814  0.6045
17999TIP3   OH275411   5.942   3.938  13.776 -0.2690 -0.0186 -0.6163
17999TIP3    H175412   5.877   3.896  13.720 -0.9587 -1.5909  1.2358
17999TIP3    H275413   5.950   3.879  13.851  1.9250  1.0894  0.1018
18000TIP3   OH275414   5.938   3.357  12.659 -0.4712  0.2456 -0.0977
18000TIP3    H175415   5.959   3.400  12.576 -2.4525  1.9753  0.1977
18000TIP3    H275416   5.989   3.404  12.725  2.4052 -2.1930 -0.3828
18001TIP3   OH275417   2.738   6.709   5.824 -0.3748 -0.1997  0.1202
18001TIP3    H175418   2.670   6.755   5.873 -0.1732 -0.5533  0.7446
18001TIP3    H275419   2.727   6.739   5.733  0.5885  2.0972  0.6863
18002TIP3   OH275420   4.512   0.241   4.451  0.6834  0.1439 -0.4607
18002TIP3    H175421   4.495   0.220   4.359 -0.3620 -1.3785  0.0439
18002TIP3    H275422   4.566   0.169   4.482 -1.0517 -0.6746  0.7426
18003TIP3   OH275423   4.651   2.126   5.156 -0.2198  0.4200  0.0764
18003TIP3    H175424   4.583   2.184   5.121 -1.3502 -0.8106  0.1834
18003TIP3    H275425   4.725   2.136   5.096 -1.1701  0.3520 -1.1247
18004TIP3   OH275426   5.649   2.941   4.690 -0.1235  0.4159 -0.5972
18004TIP3    H175427   5.601   2.970   4.612  1.2007 -0.2202 -1.7073
18004TIP3    H275428   5.702   3.017   4.715  0.1472  0.3345 -0.9071
18005TIP3   OH275429   4.251   2.779   2.172  0.8647  0.1260 -0.0701
18005TIP3    H175430   4.231   2.872   2.177  0.8441  0.1256 -0.1326
18005TIP3    H275431   4.331   2.774   2.120  0.2815  0.0450 -0.9904
18006TIP3   OH275432   2.428   4.180  12.484  0.6446 -0.0306  0.0706
18006TIP3    H175433   2.496   4.112  12.483 -0.2608 -1.0279  1.9605
18006TIP3    H275434   2.434   4.220  12.397  1.6157 -2.1181 -0.9044
18007TIP3   OH275435   6.130   3.014   3.542  0.4004  0.2203  0.3278
18007TIP3    H175436   6.090   2.999   3.627  0.1802 -0.9275  0.0274
18007TIP3    H275437   6.090   3.095   3.510 -0.9649 -0.3915  0.4520
18008TIP3   OH275438   1.971   0.463   3.705  0.9226  0.3321  0.1272
18008TIP3    H175439   1.877   0.478   3.715  0.3049 -1.6376 -1.9139
18008TIP3    H275440   1.994   0.404   3.776  0.1164 -0.8592 -0.5803
18009TIP3   OH275441   1.971   3.128  16.842 -0.1562  0.1999  0.3995
18009TIP3    H175442   1.926   3.210  16.864  0.4270  0.9818 -1.1496
18009TIP3    H275443   1.908   3.081  16.787 -0.1622 -0.0055  0.5818
18010TIP3   OH275444   1.288   6.794  13.417  0.4635  0.1861 -0.1952
18010TIP3    H175445   1.207   6.843  13.436 -0.5806 -1.0253 -1.3274
18010TIP3    H275446   1.318   6.830  13.333  0.7477  0.1770 -0.0995
18011TIP3   OH275447   5.373   2.106   6.392  0.0435 -0.2580  0.1153
18011TIP3    H175448   5.419   2.176   6.346 -0.0249 -0.7194 -0.6763
18011TIP3    H275449   5.353   2.042   6.324 -1.3006 -0.3175  0.5338
18012TIP3   OH275450   5.540   4.859  16.420  0.5278  0.2662  0.1902
18012TIP3    H175451   5.612   4.910  16.384  0.1164 -1.4183 -3.4587
18012TIP3    H275452   5.474   4.924  16.445  1.6977  1.6445 -0.1878
18013TIP3   OH275453   3.846   5.858  12.288  0.1868 -0.1258  0.4989
18013TIP3    H175454   3.921   5.868  12.346  1.3094  1.3710 -1.0990
18013TIP3    H275455   3.811   5.947  12.278 -0.7911 -0.5561 -0.0682
18014TIP3   OH275456   3.861   5.902   0.024  0.0199 -0.8929  0.2706
18014TIP3    H175457   3.793   5.839   0.050 -1.4804  0.7662  0.5928
18014TIP3    H275458   3.899   5.931   0.107 -0.2859 -0.3385  0.2188
18015TIP3   OH275459   6.036   1.246   5.901  0.3073 -0.1604  0.5170
18015TIP3    H175460   5.965   1.210   5.954 -0.5798 -0.1377 -0.6145
18015TIP3    H275461   6.061   1.175   5.842  1.0742 -0.0920  0.7478
18016TIP3   OH275462   2.165   4.909   1.304  0.1482  0.6724  0.1182
18016TIP3    H175463   2.224   4.921   1.229 -0.3177  0.6987 -0.2504
18016TIP3    H275464   2.089   4.963   1.284  0.5173  1.6177  1.1770
18017TIP3   OH275465   0.192   0.765  11.228 -0.5062 -0.3043 -0.3586
18017TIP3    H175466   0.199   0.850  11.184 -0.3509 -0.2927 -0.3116
18017TIP3    H275467   0.167   0.704  11.158  0.1423 -0.3624 -0.5519
18018TIP3   OH275468   4.985   4.678  12.535 -0.2631  0.1824 -0.6411
18018TIP3    H175469   5.026   4.661  12.450  0.1190  1.0127 -0.6356
18018TIP3    H275470   4.963   4.771  12.533  1.3412  0.6455  0.8180
18019TIP3   OH275471   4.582   6.113  11.356 -0.3324  0.1372  0.3329
18019TIP3    H175472   4.645   6.064  11.302  0.4512  1.0033  0.4315
18019TIP3    H275473   4.610   6.204  11.348 -2.0064  0.6318 -0.1579
18020TIP3   OH275474   4.267   2.688  11.742  0.2305 -0.1316 -0.4520
18020TIP3    H175475   4.324   2.647  11.677 -0.1917  0.0872 -0.9655
18020TIP3    H275476   4.231   2.615  11.792 -1.1721 -0.4856 -1.8979
18021TIP3   OH275477   2.372   4.363   0.644  0.2555 -0.3773 -0.0757
18021TIP3    H175478   2.461   4.328   0.638  0.9884  1.1455  1.1445
18021TIP3    H275479   2.362   4.418   0.567  1.4972  1.7331  1.1726
18022TIP3   OH275480   5.082   2.120  11.916  0.7771  0.0377 -0.1282
18022TIP3    H175481   5.136   2.197  11.903  0.6157 -0.0589 -1.4963
18022TIP3    H275482   4.993   2.149  11.898  0.7545 -0.5334 -1.0016
18023TIP3   OH275483   4.679   0.856   6.336  0.0112  0.7293  0.0428
18023TIP3    H175484   4.748   0.911   6.298  1.0078 -0.3475  0.2499
18023TIP3    H275485   4.672   0.782   6.276 -1.4307  1.1103 -0.3176
18024TIP3   OH275486   4.500   2.012  10.484  0.0384  0.2376 -0.0375
18024TIP3    H175487   4.567   1.945  10.473  0.8609  0.0619  4.3335
18024TIP3    H275488   4.522   2.079  10.419  2.4348 -1.2958 -0.9348
18025TIP3   OH275489   0.739   0.032   4.619  0.0000  0.1983 -0.0872
18025TIP3    H175490   0.705   0.120   4.632 -0.1695  0.1475 -0.1841
18025TIP3    H275491   0.753  -0.001   4.708  0.4211  0.4566 -0.0527
18026TIP3   OH275492   3.977   6.089   3.087  0.0088 -0.2381 -0.0847
18026TIP3    H175493   4.004   6.008   3.130 -1.4232  0.2191  1.8165
18026TIP3    H275494   4.050   6.150   3.102 -0.0828 -0.3654  0.9397
18027TIP3   OH275495   3.664   1.684   3.620  0.1541  0.6100 -0.3011
18027TIP3    H175496   3.691   1.633   3.544  0.0298 -1.1174  0.7530
18027TIP3    H275497   3.729   1.663   3.687 -1.4069 -0.3497  0.9974
18028TIP3   OH275498   6.358   2.493   2.846 -0.3892 -0.1782  0.1381
18028TIP3    H175499   6.410   2.530   2.917  1.7129 -1.4847 -0.6454
18028TIP3    H275500   6.318   2.569   2.803  1.8758  1.0474  0.0322
18029TIP3   OH275501   4.161   2.616   4.477  0.0525  0.5627  0.4066
18029TIP3    H175502   4.119   2.688   4.429  1.3638  1.1995  0.1808
18029TIP3    H275503   4.237   2.656   4.518  2.1503 -1.1199 -1.6074
18030TIP3   OH275504   5.113   1.880   0.430  0.4239  0.1958  0.2318
18030TIP3    H175505   5.158   1.835   0.359  0.5900 -1.8732  1.5673
18030TIP3    H275506   5.175   1.880   0.502 -0.6986 -0.1542  1.2222
18031TIP3   OH275507   6.035   3.490  11.293  0.2676 -0.3907 -0.2370
18031TIP3    H175508   5.963   3.554  11.292 -2.3310 -3.1157 -0.7299
18031TIP3    H275509   6.063   3.485  11.201  0.5255  0.0567 -0.1868
18032TIP3   OH275510   4.772   2.787   0.127 -0.0785  0.1067  0.0995
18032TIP3    H175511   4.795   2.723   0.195  1.2129 -0.3110 -0.6970
18032TIP3    H275512   4.678   2.774   0.112 -0.0624 -0.8168  0.7496
18033TIP3   OH275513   3.165   0.458   4.664 -0.3044 -0.1181  0.0524
18033TIP3    H175514   3.255   0.464   4.633 -0.1172  0.9415  0.7315
18033TIP3    H275515   3.119   0.528   4.617 -0.6372 -0.2679  0.1494
18034TIP3   OH275516   0.823   0.823  11.162 -0.2192 -0.4639  0.4385
18034TIP3    H175517   0.732   0.850  11.177  0.0878  0.5674  0.4908
18034TIP3    H275518   0.875   0.885  11.212  0.5821 -0.1910 -0.6888
18035TIP3   OH275519   3.673   6.527   4.578  0.0869  0.4621  0.1394
18035TIP3    H175520   3.738   6.580   4.625 -1.2609  1.3103  1.1125
18035TIP3    H275521   3.725   6.479   4.513  1.7878  0.5401  1.3534
18036TIP3   OH275522   2.135   0.334  16.117  0.5056  0.2563  0.4203
18036TIP3    H175523   2.059   0.282  16.145 -0.7709  0.8884 -1.6460
18036TIP3    H275524   2.201   0.318  16.184 -1.3675 -0.5060  2.1832
18037TIP3   OH275525   1.635   2.261   0.190  0.5786 -0.6837 -0.3006
18037TIP3    H175526   1.552   2.249   0.143 -0.6919  2.5847  0.7360
18037TIP3    H275527   1.692   2.307   0.128  0.0935  0.6470  0.1895
18038TIP3   OH275528   4.144   3.762  13.828 -0.4285  0.2062 -0.3565
18038TIP3    H175529   4.064   3.813  13.830 -1.7602 -1.7685 -0.5076
18038TIP3    H275530   4.122   3.681  13.874  1.0240 -1.0136 -1.7024
18039TIP3   OH275531   2.708   4.735   0.483  0.1984 -0.3780  0.7391
18039TIP3    H175532   2.670   4.808   0.433  1.0642 -0.1881  0.3217
18039TIP3    H275533   2.649   4.723   0.557 -1.2218 -0.7831 -0.4244
18040TIP3   OH275534   5.519   4.591   2.617  0.2421  0.3292  0.1706
18040TIP3    H175535   5.494   4.676   2.581 -0.7841  0.1106  0.3322
18040TIP3    H275536   5.615   4.593   2.620  0.2232  1.6118  0.4934
18041TIP3   OH275537   3.096   2.743  13.223 -0.1039  0.1242 -0.3137
18041TIP3    H175538   3.013   2.791  13.231 -0.1056  0.1772 -0.6296
18041TIP3    H275539   3.099   2.688  13.301  0.8549  2.0723  1.0782
18042TIP3   OH275540   6.076   3.826  12.811  0.7765  0.3909 -0.1399
18042TIP3    H175541   6.063   3.893  12.877  3.1511 -1.5354  2.5383
18042TIP3    H275542   6.124   3.869  12.741  0.4022  1.9248  0.5107
18043TIP3   OH275543   4.418   6.768   5.801  0.1907 -0.2862 -0.0555
18043TIP3    H175544   4.448   6.679   5.781  1.0541  0.3947 -2.0491
18043TIP3    H275545   4.323   6.765   5.790  0.1427 -1.0817  0.4835
18044TIP3   OH275546   4.989   6.606  13.282 -0.3268  0.0131 -0.0273
18044TIP3    H175547   4.992   6.674  13.349 -1.3164  1.2935 -1.2306
18044TIP3    H275548   4.958   6.528  13.328  0.3021  0.4896  1.2629
18045TIP3   OH275549   1.798   2.972  15.419  0.1110 -0.7479 -0.0025
18045TIP3    H175550   1.762   3.051  15.459  0.3880  0.2733 -1.6673
18045TIP3    H275551   1.775   2.902  15.479  0.3277  0.6586  1.8031
18046TIP3   OH275552   5.670   2.020   5.530 -0.5527  0.3774  0.0329
18046TIP3    H175553   5.688   1.969   5.451  2.5796 -0.1616  0.9679
18046TIP3    H275554   5.683   2.111   5.504 -3.4179  0.6130 -0.9412
18047TIP3   OH275555   6.524   4.671   6.136  0.4991  0.8963  1.1751
18047TIP3    H175556   6.518   4.765   6.118 -0.0629  0.2627 -2.8519
18047TIP3    H275557   6.436   4.646   6.163  0.3126  1.3236  0.9783
18048TIP3   OH275558   0.310   2.426   2.723 -0.0955 -0.7197  0.7457
18048TIP3    H175559   0.327   2.499   2.664  1.6544 -2.0033 -0.4569
18048TIP3    H275560   0.349   2.454   2.807 -0.3128  0.0945  0.5825
18049TIP3   OH275561   3.945   0.059   2.141  0.5027  0.2167  0.3366
18049TIP3    H175562   3.997  -0.003   2.090 -0.0960 -0.5689  0.6747
18049TIP3    H275563   3.879   0.092   2.080 -0.0857 -0.5689  0.5471
18050TIP3   OH275564   0.710   2.183   4.435 -0.4687  1.1164 -0.8165
18050TIP3    H175565   0.714   2.152   4.525 -2.3747  0.0191 -1.0576
18050TIP3    H275566   0.798   2.215   4.417  0.0628  1.0193  1.2983
18051TIP3   OH275567   6.189   5.473  17.173  0.9031  0.2438 -0.1100
18051TIP3    H175568   6.276   5.509  17.195 -0.0240  1.1387  2.5152
18051TIP3    H275569   6.149   5.540  17.118  1.7069  0.0239 -0.9799
18052TIP3   OH275570   3.653   0.179  15.833  0.4998  0.5101 -0.4374
18052TIP3    H175571   3.735   0.222  15.808 -0.1222  0.2052 -3.3942
18052TIP3    H275572   3.632   0.216  15.919  3.3927  1.0257  0.1725
18053TIP3   OH275573   6.355   4.314  16.918 -0.2515 -1.0150  0.8413
18053TIP3    H175574   6.274   4.263  16.911 -0.2609 -1.1009  1.5218
18053TIP3    H275575   6.377   4.312  17.011 -0.6011  0.7488  0.9970
18054TIP3   OH275576   4.217   6.024  14.104  0.2999  0.2321 -0.3164
18054TIP3    H175577   4.238   6.115  14.082 -0.5159  0.6120  0.3822
18054TIP3    H275578   4.290   5.973  14.071  0.1766  1.0041 -1.8692
18055TIP3   OH275579   5.020   4.584  14.898 -0.0130  0.2435 -0.0691
18055TIP3    H175580   4.978   4.508  14.857 -0.3852  0.1205  0.5279
18055TIP3    H275581   5.100   4.598  14.847 -0.5328  0.1784 -0.9243
18056TIP3   OH275582   1.285   2.026   1.221  0.6268  0.1562 -0.2034
18056TIP3    H175583   1.267   1.932   1.232  1.4374 -0.0111 -0.2457
18056TIP3    H275584   1.279   2.040   1.126  2.2175 -0.2350 -0.3921
18057TIP3   OH275585   4.616   4.428   4.131  0.0289 -0.3726  0.0765
18057TIP3    H175586   4.675   4.503   4.137 -0.0111 -0.4353  1.8798
18057TIP3    H275587   4.529   4.465   4.144 -0.0780 -0.6152  0.0589
18058TIP3   OH275588   2.367   4.683   1.371  0.0066 -0.3376  0.1716
18058TIP3    H175589   2.336   4.774   1.367  0.9718  0.0145  0.4358
18058TIP3    H275590   2.462   4.691   1.377  0.2024 -1.4144 -1.2715
18059TIP3   OH275591   6.330   0.663  12.108 -0.3093  0.9362 -0.0156
18059TIP3    H175592   6.328   0.695  12.198 -0.8823 -2.2031  1.2446
18059TIP3    H275593   6.239   0.663  12.080 -0.0966  2.2074 -0.7407
18060TIP3   OH275594   4.674   0.204   2.320 -0.2656 -0.5312  0.3937
18060TIP3    H175595   4.603   0.231   2.262  0.0176 -2.3308 -0.8363
18060TIP3    H275596   4.665   0.262   2.396 -1.1678  1.3081 -1.0269
18061TIP3   OH275597   5.132   1.487   1.996  0.0945 -0.1269 -0.1733
18061TIP3    H175598   5.043   1.519   1.979 -0.2310 -1.0746 -0.2949
18061TIP3    H275599   5.119   1.400   2.034  0.8803  0.7662  2.3386
18062TIP3   OH275600   4.193   6.341  15.354  0.7349 -0.2519 -0.5043
18062TIP3    H175601   4.131   6.393  15.405  0.8134 -0.5315 -0.1191
18062TIP3    H275602   4.278   6.359  15.394  0.4915 -2.5739  1.2990
18063TIP3   OH275603   3.825   6.496   3.517  0.2047 -0.1959 -0.5095
18063TIP3    H175604   3.770   6.561   3.473 -0.4591 -0.3430  0.0818
18063TIP3    H275605   3.891   6.548   3.563 -0.1888  0.0465 -0.2192
18064TIP3   OH275606   1.015   1.973  14.281 -0.9547 -0.5417  0.0816
18064TIP3    H175607   1.013   1.966  14.186  0.0459 -1.7142  0.1236
18064TIP3    H275608   0.949   2.040  14.301 -0.4923  0.4488 -1.4837
18065TIP3   OH275609   4.128   5.367   0.185  0.3754 -0.6379 -0.0270
18065TIP3    H175610   4.046   5.351   0.232 -0.0376 -1.0172 -0.8411
18065TIP3    H275611   4.115   5.323   0.101  1.1649 -0.1392 -0.4160
18066TIP3   OH275612   4.968   2.428  12.946 -0.1161 -0.4229 -0.1500
18066TIP3    H175613   4.960   2.334  12.965 -0.0077 -0.0738  1.8615
18066TIP3    H275614   4.916   2.470  13.014  0.3116  1.0089 -0.6854
18067TIP3   OH275615   1.217   0.428  12.408 -0.5931 -0.4824 -0.1073
18067TIP3    H175616   1.141   0.472  12.371 -0.4066  0.1918  0.2837
18067TIP3    H275617   1.216   0.341  12.369 -1.2445 -0.2925 -0.5329
18068TIP3   OH275618   6.052   3.658  16.793 -0.0726 -0.1877 -0.4048
18068TIP3    H175619   5.982   3.642  16.730 -1.3502  0.3346  0.8177
18068TIP3    H275620   6.066   3.753  16.789  0.3551 -0.2464 -0.4016
18069TIP3   OH275621   0.427   6.685   3.612 -0.0852 -0.7577 -0.1175
18069TIP3    H175622   0.512   6.642   3.600 -0.8760 -2.1832 -1.0024
18069TIP3    H275623   0.423   6.751   3.543  0.9267  0.4472  0.9222
18070TIP3   OH275624   1.598   1.498   5.815  0.4801  0.0432  0.0788
18070TIP3    H175625   1.559   1.457   5.892  0.7877  1.1699  0.8545
18070TIP3    H275626   1.525   1.510   5.755  0.3764 -1.6257 -0.2012
18071TIP3   OH275627   5.546   0.932   0.245  0.4557  0.7467  0.3307
18071TIP3    H175628   5.624   0.984   0.263  0.6603 -0.1272  2.2986
18071TIP3    H275629   5.491   0.945   0.322  0.4141 -1.6868  0.8027
18072TIP3   OH275630   2.312   1.498   3.683  0.1171 -0.1519 -0.9352
18072TIP3    H175631   2.361   1.417   3.672  0.6711 -0.1337  0.9970
18072TIP3    H275632   2.221   1.471   3.690  0.5034 -1.0011  2.4497
18073TIP3   OH275633   6.648   0.795  16.628  0.1622 -0.2193 -0.1477
18073TIP3    H175634   6.588   0.804  16.553 -0.8405  1.0527  0.7649
18073TIP3    H275635   6.719   0.856  16.608 -1.4218  2.1817  1.1077
18074TIP3   OH275636   4.773   1.877  11.869  0.2874 -0.2629 -0.1617
18074TIP3    H175637   4.767   1.957  11.818 -2.7250  0.7369  1.5146
18074TIP3    H275638   4.742   1.808  11.810 -0.6723  0.4464 -0.5095
18075TIP3   OH275639   2.251   2.660  13.276 -0.6679  0.3404  0.3128
18075TIP3    H175640   2.218   2.715  13.348 -0.8009  0.9747 -0.2218
18075TIP3    H275641   2.235   2.571  13.306 -2.7553  0.5986  0.1585
18076TIP3   OH275642   3.673   5.709   2.319  0.2596  0.0104 -0.4687
18076TIP3    H175643   3.742   5.729   2.257  0.1256  0.8022 -0.3742
18076TIP3    H275644   3.715   5.712   2.405  0.5653 -1.6253 -0.5387
18077TIP3   OH275645   5.137   2.936  16.259 -0.3153  0.7503 -0.4872
18077TIP3    H175646   5.203   3.002  16.280 -0.0697  0.4597 -0.3295
18077TIP3    H275647   5.064   2.954  16.317 -0.4927  1.2575 -0.8702
18078TIP3   OH275648   4.314   1.396  12.993 -0.1536 -0.3833 -0.5144
18078TIP3    H175649   4.311   1.490  13.013 -0.8703  0.1640 -2.8656
18078TIP3    H275650   4.223   1.371  12.981  0.0661 -1.2875 -0.3790
18079TIP3   OH275651   4.443   4.264   3.689  0.3492 -0.0367  0.0037
18079TIP3    H175652   4.532   4.256   3.724 -0.2905 -1.6204  1.4195
18079TIP3    H275653   4.424   4.177   3.653 -1.1721 -0.2342  1.1832
18080TIP3   OH275654   3.290   2.432   0.436  0.0051 -0.1977 -0.1825
18080TIP3    H175655   3.331   2.399   0.516 -1.6369 -1.3506  0.2576
18080TIP3    H275656   3.323   2.521   0.426  0.5173 -0.1581  1.5844
18081TIP3   OH275657   2.817   0.279  15.075 -0.6151 -0.6905 -0.0220
18081TIP3    H175658   2.741   0.292  15.019 -1.6032  1.9855  1.7546
18081TIP3    H275659   2.786   0.301  15.163  2.1249  0.2817  0.7939
18082TIP3   OH275660   0.038   0.978  16.556 -0.9502 -0.3178 -0.2093
18082TIP3    H175661   0.006   1.059  16.594 -0.7047 -0.9337  1.4089
18082TIP3    H275662   0.130   0.996  16.534 -1.5244  0.5329 -2.0783
18083TIP3   OH275663   0.458   0.016   2.111 -0.4567 -0.4538 -0.5338
18083TIP3    H175664   0.513  -0.026   2.177 -1.0028 -2.5055 -1.2811
18083TIP3    H275665   0.369  -0.008   2.136 -0.8758  1.0058 -0.5502
18084TIP3   OH275666   3.984   1.137   4.392  0.4860 -0.2307 -0.1297
18084TIP3    H175667   4.002   1.101   4.479 -1.4437 -1.4314 -0.1678
18084TIP3    H275668   3.949   1.224   4.410 -2.7017 -1.5146  0.6137
18085TIP3   OH275669   4.945   3.406   0.865 -0.4304 -0.1550 -0.2842
18085TIP3    H175670   4.994   3.399   0.783  0.7817 -2.3017  0.5137
18085TIP3    H275671   4.990   3.345   0.924 -3.7891 -1.9895  0.6690
18086TIP3   OH275672   0.346   4.142   0.922 -0.5543  0.2811  0.2722
18086TIP3    H175673   0.331   4.153   0.828  0.5359  2.4617  0.3061
18086TIP3    H275674   0.430   4.097   0.927  0.3089  1.8178  0.1705
18087TIP3   OH275675   0.249   0.901  14.212  0.1199  0.1543  0.5417
18087TIP3    H175676   0.335   0.869  14.184  0.2212  1.0438 -0.2170
18087TIP3    H275677   0.202   0.822  14.239 -0.4242 -1.0778 -3.2727
18088TIP3   OH275678   6.481   2.705  14.918 -0.1650  0.0452  0.2787
18088TIP3    H175679   6.433   2.773  14.870  1.9157  0.3578 -1.5353
18088TIP3    H275680   6.564   2.697  14.871  1.8941  0.0156  3.5776
18089TIP3   OH275681   4.188   0.564  15.541  0.1533 -0.1379 -0.5420
18089TIP3    H175682   4.218   0.633  15.600  1.5222 -0.9132 -0.2809
18089TIP3    H275683   4.098   0.547  15.568  0.1488  0.8145  0.0804
18090TIP3   OH275684   6.108   4.569   2.029  0.5009  0.8968  0.0470
18090TIP3    H175685   6.065   4.595   1.947 -1.0377  2.0927  1.1625
18090TIP3    H275686   6.200   4.588   2.014  0.3998  0.2621 -1.6967
18091TIP3   OH275687   3.531   4.483   5.523  0.2143 -0.1749 -0.0964
18091TIP3    H175688   3.496   4.452   5.440 -0.2395 -1.5492  0.5760
18091TIP3    H275689   3.504   4.417   5.587  0.7871  0.7031  1.1019
18092TIP3   OH275690   1.670   3.732   3.943 -0.1306 -0.7228  0.6425
18092TIP3    H175691   1.643   3.818   3.975 -0.1060 -1.3080  2.3172
18092TIP3    H275692   1.589   3.689   3.917  0.0753  1.0426 -3.7619
18093TIP3   OH275693   1.714   6.242  13.255  0.1229 -0.3335  0.2306
18093TIP3    H175694   1.698   6.323  13.302 -0.8076 -0.1887 -0.3230
18093TIP3    H275695   1.632   6.194  13.260 -0.0919 -0.2011 -1.4508
18094TIP3   OH275696   3.665   0.308   4.173 -0.0015  0.6812 -0.1618
18094TIP3    H175697   3.656   0.213   4.165  1.4504  0.6193 -1.9422
18094TIP3    H275698   3.733   0.320   4.239  0.7147  0.4114 -0.8341
18095TIP3   OH275699   4.823   1.601  14.648  0.3208  0.5957 -0.1410
18095TIP3    H175700   4.902   1.615  14.597  0.6934 -1.5701 -0.2250
18095TIP3    H275701   4.766   1.549  14.592  0.2836 -0.8625  1.1565
18096TIP3   OH275702   0.875   0.783   5.368  0.1371 -0.1841  0.2972
18096TIP3    H175703   0.875   0.795   5.463  4.2682  0.5549  0.3944
18096TIP3    H275704   0.894   0.870   5.333  0.7564 -0.8445 -1.0673
18097TIP3   OH275705   5.878   0.148   0.491 -0.7423 -0.0042  0.1056
18097TIP3    H175706   5.921   0.227   0.458  0.6591 -0.9502 -0.4209
18097TIP3    H275707   5.790   0.151   0.452 -0.4954  0.9646 -0.4226
18098TIP3   OH275708   2.998   4.750  13.258  0.4041 -0.4164  0.9704
18098TIP3    H175709   3.077   4.697  13.266  0.2183 -1.0698 -0.9944
18098TIP3    H275710   2.927   4.692  13.284  0.5564  0.3568  3.3367
18099TIP3   OH275711   3.560   5.417   1.889 -0.1107 -0.2763 -0.1532
18099TIP3    H175712   3.496   5.426   1.960  0.1031  0.3587 -0.0317
18099TIP3    H275713   3.511   5.376   1.818 -1.0316  1.3087 -0.4987
18100TIP3   OH275714   4.229   4.596  16.795  0.4718  0.0132 -0.2524
18100TIP3    H175715   4.251   4.537  16.867 -0.0099  1.7125  1.3641
18100TIP3    H275716   4.134   4.585  16.785  0.3826  0.4615  0.0460
18101TIP3   OH275717   2.604   5.301   3.593 -0.1881 -0.0636  0.0921
18101TIP3    H175718   2.530   5.288   3.652 -0.0853 -1.0743  0.0074
18101TIP3    H275719   2.567   5.290   3.505 -0.0167 -0.1858  0.0346
18102TIP3   OH275720   1.694   0.327   4.867  0.5997 -0.5636 -0.7143
18102TIP3    H175721   1.617   0.283   4.904 -0.9483  0.8450 -2.0449
18102TIP3    H275722   1.740   0.362   4.943  0.7860 -2.6773  0.2198
18103TIP3   OH275723   2.208   6.100  16.733 -0.5458 -0.1881 -0.3803
18103TIP3    H175724   2.115   6.085  16.716 -0.9987  1.8529 -0.0346
18103TIP3    H275725   2.214   6.194  16.753  1.4300 -0.4719  0.6764
18104TIP3   OH275726   1.679   2.501   2.180 -0.0799  0.4966 -0.0518
18104TIP3    H175727   1.624   2.458   2.245 -0.0658  3.1473  1.8801
18104TIP3    H275728   1.619   2.557   2.130  0.2952  0.3814 -0.6551
18105TIP3   OH275729   2.016   1.388  12.445  0.3712 -0.3785  0.0564
18105TIP3    H175730   2.069   1.312  12.421  0.1427 -0.6006  0.2564
18105TIP3    H275731   1.946   1.390  12.380  1.2804  0.6100 -0.9361
18106TIP3   OH275732   2.684   1.274  15.947 -0.2183  0.1827 -0.1147
18106TIP3    H175733   2.630   1.341  15.990  0.6903  1.6088 -1.1176
18106TIP3    H275734   2.770   1.315  15.937  0.6438 -1.4945  0.0664
18107TIP3   OH275735   0.550   4.469   6.076  0.5433  0.0626 -0.1407
18107TIP3    H175736   0.458   4.443   6.086  0.2400  0.3500 -1.8337
18107TIP3    H275737   0.547   4.565   6.071  0.6598  0.0067 -2.1512
18108TIP3   OH275738   3.003   4.738   5.730 -0.4044 -0.8691 -0.0461
18108TIP3    H175739   3.073   4.776   5.677 -0.2663 -0.3435  0.5068
18108TIP3    H275740   3.045   4.719   5.814 -0.5892 -1.8080 -0.1504
18109TIP3   OH275741   2.517   3.850  15.214  0.1400 -0.0837 -0.2226
18109TIP3    H175742   2.449   3.817  15.273  0.0527  0.1020 -0.2191
18109TIP3    H275743   2.582   3.890  15.272 -0.0047  0.2067 -0.2590
18110TIP3   OH275744   4.362   0.397   3.879  0.1243  0.2588  0.2979
18110TIP3    H175745   4.348   0.452   3.955 -0.6507  0.3246  0.1073
18110TIP3    H275746   4.410   0.452   3.817 -0.7527  0.7687  0.0584
18111TIP3   OH275747   2.454   4.859  12.233 -0.7190 -0.0539  0.3484
18111TIP3    H175748   2.381   4.805  12.202  0.0973 -1.5129  0.9130
18111TIP3    H275749   2.518   4.855  12.163 -1.5202  2.0481 -0.5951
18112TIP3   OH275750   1.843   3.803  14.745  0.3096 -0.4857 -0.3264
18112TIP3    H175751   1.807   3.775  14.830 -1.3492  2.5004  0.1031
18112TIP3    H275752   1.932   3.830  14.765 -0.3460  1.0232  0.7265
18113TIP3   OH275753   4.614   4.524   1.272  0.7223  0.2250 -0.6922
18113TIP3    H175754   4.584   4.613   1.253 -1.3631  0.1138  1.6966
18113TIP3    H275755   4.656   4.531   1.358  0.2086 -1.1386 -0.3123
18114TIP3   OH275756   1.789   4.273  15.145 -0.1274 -0.1491 -0.1439
18114TIP3    H175757   1.811   4.284  15.238  0.5794  0.6403 -0.3933
18114TIP3    H275758   1.825   4.187  15.122  2.7789  1.0284 -0.5131
18115TIP3   OH275759   5.332   5.714  13.183 -0.1164  0.0011 -0.0728
18115TIP3    H175760   5.315   5.714  13.278  0.3607  1.4492  0.0335
18115TIP3    H275761   5.405   5.654  13.172 -0.4271 -0.4866  0.4168
18116TIP3   OH275762   3.994   1.994   4.599  0.0141 -0.5475  0.3316
18116TIP3    H175763   4.014   1.975   4.690 -0.8544 -0.5133  0.5334
18116TIP3    H275764   3.921   1.936   4.578 -1.2374  0.9722  0.3079
18117TIP3   OH275765   3.182   6.575   3.356 -0.5117  0.5771  1.0425
18117TIP3    H175766   3.176   6.501   3.296 -0.1719  1.6803 -0.4180
18117TIP3    H275767   3.272   6.570   3.390 -0.1183  0.9211  0.0956
18118TIP3   OH275768   1.849   0.819  13.574 -0.4298  0.1101  0.3557
18118TIP3    H175769   1.812   0.740  13.614 -3.0094 -0.0994 -2.0910
18118TIP3    H275770   1.780   0.849  13.514  1.3703  2.9554 -0.4408
18119TIP3   OH275771   5.863   5.484  11.243  0.1739  0.5103 -0.3481
18119TIP3    H175772   5.938   5.436  11.278  0.2056 -0.0814 -1.1827
18119TIP3    H275773   5.894   5.574  11.233 -0.3460  1.1313  2.6794
18120TIP3   OH275774   1.588   3.557  10.960  0.0434  0.1309  0.6054
18120TIP3    H175775   1.546   3.599  11.036 -0.2184 -0.8288  0.9977
18120TIP3    H275776   1.525   3.568  10.889 -0.7302 -0.9571  1.0976
18121TIP3   OH275777   6.674   6.522   4.993  0.4508  0.2769  0.3312
18121TIP3    H175778   6.624   6.484   4.920 -0.4870 -0.2801  1.2368
18121TIP3    H275779   6.624   6.599   5.018  1.4891  1.2446 -0.4463
18122TIP3   OH275780   0.866   2.203   0.359 -0.6152  0.3362  0.8940
18122TIP3    H175781   0.794   2.258   0.329  0.4310  0.7859 -0.9546
18122TIP3    H275782   0.944   2.242   0.320  0.4763 -0.9184  1.7355
18123TIP3   OH275783   0.826   1.005   4.377 -0.0125 -0.0896 -0.1599
18123TIP3    H175784   0.871   1.012   4.293 -1.8699  3.5097 -1.0646
18123TIP3    H275785   0.865   1.073   4.431 -3.0489  2.1242 -0.4761
18124TIP3   OH275786   4.600   1.601   4.624 -0.4917  0.5047 -0.2873
18124TIP3    H175787   4.599   1.696   4.611 -0.3984  0.9407  2.3699
18124TIP3    H275788   4.680   1.584   4.672 -0.0832 -1.0903 -1.4431
18125TIP3   OH275789   5.140   2.902  16.982  0.6867 -0.1474  0.1611
18125TIP3    H175790   5.083   2.907  17.059 -0.1530  0.4980 -0.4888
18125TIP3    H275791   5.224   2.872  17.017  0.8169  1.6892  1.6027
18126TIP3   OH275792   2.585   6.545  15.291 -0.0344  0.1035 -0.2058
18126TIP3    H175793   2.650   6.510  15.231 -0.6172  0.6579 -1.1837
18126TIP3    H275794   2.572   6.635  15.264 -1.6194 -0.1444 -0.4219
18127TIP3   OH275795   2.982   0.743  11.571  0.0942 -0.1745  0.0505
18127TIP3    H175796   2.894   0.725  11.540 -1.0576  0.5540  2.6225
18127TIP3    H275797   3.016   0.657  11.597 -0.5897 -0.2351  0.7672
18128TIP3   OH275798   4.156   2.240  16.667  0.3353 -0.4233  0.1041
18128TIP3    H175799   4.101   2.188  16.726 -0.9011  1.3527  0.6032
18128TIP3    H275800   4.096   2.268  16.597  0.9851  0.2276 -0.2141
18129TIP3   OH275801   2.863   3.415  15.512  0.1465 -0.0689 -0.1655
18129TIP3    H175802   2.903   3.332  15.488 -0.6096 -0.2990 -0.6501
18129TIP3    H275803   2.932   3.480  15.498  0.9774 -0.6904  0.9145
18130TIP3   OH275804   0.856   2.356  12.256 -0.0451 -0.1853 -0.1976
18130TIP3    H175805   0.832   2.420  12.189 -0.8033  0.9719  1.1208
18130TIP3    H275806   0.797   2.281  12.239 -1.1419  0.6156 -0.0468
18131TIP3   OH275807   0.941   1.654   3.213 -0.4488  0.5569 -0.3644
18131TIP3    H175808   0.898   1.569   3.207  1.5172 -0.4683 -0.6113
18131TIP3    H275809   0.962   1.664   3.306  0.2642  0.2924 -0.4992
18132TIP3   OH275810   6.440   3.734   4.174  0.8106  0.0254  0.4235
18132TIP3    H175811   6.352   3.720   4.139  0.6365  0.6719  0.5958
18132TIP3    H275812   6.434   3.815   4.223  2.1255  1.5711 -1.7956
18133TIP3   OH275813   5.521   0.238   5.085  0.1986 -0.3982  0.8075
18133TIP3    H175814   5.605   0.251   5.041 -1.0524 -0.3039 -1.7586
18133TIP3    H275815   5.509   0.143   5.087  1.1607 -0.5337  2.9503
18134TIP3   OH275816   3.865   0.845  11.415 -0.0149 -0.5172  0.2427
18134TIP3    H175817   3.875   0.825  11.508  2.7851  1.1449  0.4007
18134TIP3    H275818   3.847   0.939  11.412  0.8200 -0.3655 -0.8995
18135TIP3   OH275819   0.167   0.110  11.764 -0.2681 -0.1421  0.7326
18135TIP3    H175820   0.250   0.110  11.812 -0.3503 -1.6589  0.8967
18135TIP3    H275821   0.193   0.132  11.674  0.2618 -0.1893  0.8664
18136TIP3   OH275822   1.694   4.055   5.056 -0.3160 -0.4316  0.0226
18136TIP3    H175823   1.625   4.010   5.008  0.3382 -2.0215  0.4956
18136TIP3    H275824   1.733   3.987   5.111  0.8974  0.6722  0.5822
18137TIP3   OH275825   3.478   0.931  11.217 -0.4719 -0.4878 -0.1225
18137TIP3    H175826   3.547   0.965  11.159  1.1732 -0.5313  1.6954
18137TIP3    H275827   3.440   0.859  11.168  1.2659 -0.9105 -0.9543
18138TIP3   OH275828   3.358   4.381   5.315 -0.0653 -0.2268 -0.3490
18138TIP3    H175829   3.331   4.289   5.303  2.7015 -1.0617 -0.8422
18138TIP3    H275830   3.323   4.426   5.238 -1.7069 -0.7684  0.0451
18139TIP3   OH275831   2.445   5.962   1.859 -0.1588 -0.8961  0.1946
18139TIP3    H175832   2.457   6.054   1.884  2.0316 -1.2432  0.6117
18139TIP3    H275833   2.389   5.926   1.928  0.0581 -0.1779  0.7651
18140TIP3   OH275834   1.067   1.510   4.313  0.3462 -0.2827 -0.2861
18140TIP3    H175835   1.036   1.568   4.383  0.6151 -0.9847  0.4364
18140TIP3    H275836   0.992   1.455   4.292  0.9752 -1.8912  1.3688
18141TIP3   OH275837   0.525   6.167   6.405  0.5225  0.0715 -0.4374
18141TIP3    H175838   0.561   6.078   6.410  0.4275  0.0948  1.4618
18141TIP3    H275839   0.434   6.154   6.377  1.1955 -0.1815 -2.7294
18142TIP3   OH275840   4.415   6.364   4.730  0.4992 -0.6607 -0.0209
18142TIP3    H175841   4.474   6.333   4.661  0.6679  1.7990 -1.1132
18142TIP3    H275842   4.449   6.450   4.754 -0.9391 -0.4502  1.4656
18143TIP3   OH275843   6.365   4.430  16.510 -0.0865  0.3835 -0.1422
18143TIP3    H175844   6.432   4.362  16.522  0.8996  0.9500 -2.0069
18143TIP3    H275845   6.361   4.475  16.594  0.3949 -0.9541  0.6306
18144TIP3   OH275846   3.228   6.630   4.753  0.0228  0.0455  0.0691
18144TIP3    H175847   3.163   6.614   4.684  1.2954  1.9677 -1.6696
18144TIP3    H275848   3.301   6.572   4.731  1.2298  2.0032 -1.4443
18145TIP3   OH275849   4.814   4.085  14.054  0.4424 -0.2120 -0.0681
18145TIP3    H175850   4.783   4.174  14.071 -0.6062 -0.2990 -1.3654
18145TIP3    H275851   4.909   4.091  14.061  0.5512  1.4901 -2.0543
18146TIP3   OH275852   0.164   4.385   2.627 -0.2746  0.3097  0.4780
18146TIP3    H175853   0.181   4.325   2.700 -1.0901  0.0426  0.4629
18146TIP3    H275854   0.077   4.360   2.596  0.0600  0.4172 -0.5937
18147TIP3   OH275855   3.156   6.572  12.327 -0.1659  0.1249  0.3855
18147TIP3    H175856   3.117   6.488  12.303  0.0971 -0.0481  0.5564
18147TIP3    H275857   3.161   6.620  12.245 -0.0122 -0.1555  0.2287
18148TIP3   OH275858   0.373   5.135  16.236 -0.4427  0.2821 -0.0207
18148TIP3    H175859   0.402   5.048  16.262 -1.5542 -0.0580  0.1281
18148TIP3    H275860   0.454   5.186  16.228  0.1604 -0.5352  0.7014
18149TIP3   OH275861   2.050   4.747   1.507 -0.6642 -0.5512 -0.4885
18149TIP3    H175862   1.966   4.788   1.526 -0.4151  0.2270 -0.9977
18149TIP3    H275863   2.089   4.803   1.440  0.2991 -0.8542 -0.1954
18150TIP3   OH275864   4.575   3.202  11.368  0.4013  0.3159  0.1023
18150TIP3    H175865   4.665   3.196  11.399  0.7491 -0.0399 -0.9681
18150TIP3    H275866   4.572   3.148  11.290 -0.8749 -0.0818  0.4010
18151TIP3   OH275867   0.941   1.366   0.550 -0.3294 -0.3989 -0.0368
18151TIP3    H175868   0.924   1.403   0.637  0.9165 -0.2583  0.1676
18151TIP3    H275869   0.938   1.440   0.491  0.8466 -0.1420  0.1906
18152TIP3   OH275870   6.076   3.118   1.313  0.3254 -0.2938 -0.0969
18152TIP3    H175871   5.995   3.163   1.291  0.2013 -0.5136 -0.0935
18152TIP3    H275872   6.106   3.161   1.393  0.4686  0.1122 -0.3684
18153TIP3   OH275873   2.045   3.019  14.597 -0.0512 -0.2279 -0.0755
18153TIP3    H175874   1.956   3.008  14.566 -1.0455  0.8933  2.1511
18153TIP3    H275875   2.059   2.945  14.657 -0.1449  0.5112  0.8893
18154TIP3   OH275876   6.454   6.743   2.150  0.1951 -0.0987  0.2082
18154TIP3    H175877   6.453   6.742   2.246 -0.0734  0.2987  0.2117
18154TIP3    H275878   6.381   6.800   2.126 -0.5878 -1.2492 -0.2544
18155TIP3   OH275879   5.406   2.143  11.967  0.3740  0.2438 -0.3269
18155TIP3    H175880   5.489   2.190  11.960  0.6166 -0.1272 -0.0115
18155TIP3    H275881   5.347   2.189  11.908  1.3161 -0.5885 -1.9877
18156TIP3   OH275882   0.141   5.186   0.073  0.7193  0.0882 -0.1316
18156TIP3    H175883   0.048   5.195   0.093  0.1107 -2.3659 -1.4630
18156TIP3    H275884   0.163   5.266   0.026 -0.9927  0.2334 -0.7656
18157TIP3   OH275885   2.114   4.459   1.877 -0.1821 -0.2850 -0.5207
18157TIP3    H175886   2.147   4.493   1.794 -0.2557  2.5778  0.5202
18157TIP3    H275887   2.019   4.462   1.868 -0.2644  2.5083  0.4764
18158TIP3   OH275888   4.026   2.912  16.367  0.1581 -0.3730  0.2905
18158TIP3    H175889   4.103   2.917  16.310  0.9205 -0.4775  1.2869
18158TIP3    H275890   3.983   2.997  16.356  0.3464 -0.3563 -0.3569
18159TIP3   OH275891   2.384   4.629  14.239  0.6122  0.4204  0.4208
18159TIP3    H175892   2.415   4.582  14.317  0.7828  0.9730  0.6951
18159TIP3    H275893   2.383   4.563  14.170 -2.1581 -0.7920  1.4729
18160TIP3   OH275894   6.157   4.291   4.740 -0.1721 -0.2655 -0.0140
18160TIP3    H175895   6.069   4.325   4.719  0.4901  0.8187 -1.2466
18160TIP3    H275896   6.152   4.198   4.718 -0.3006  0.2874 -2.7762
18161TIP3   OH275897   0.311   3.892  13.140 -0.3841 -0.2227  0.1117
18161TIP3    H175898   0.391   3.893  13.088 -1.3744  1.4396 -1.4981
18161TIP3    H275899   0.341   3.887  13.230  1.5010 -0.4786 -0.4903
18162TIP3   OH275900   1.749   4.310  14.851  0.1345 -0.3741  0.0063
18162TIP3    H175901   1.732   4.217  14.862 -4.4652  0.2267 -0.0733
18162TIP3    H275902   1.760   4.343  14.940  1.4265 -0.8470  0.0509
18163TIP3   OH275903   1.046   3.835  13.309 -0.1689  0.2533  0.2418
18163TIP3    H175904   1.008   3.872  13.229 -0.4435  0.9849  0.6949
18163TIP3    H275905   1.116   3.896  13.333  2.7838 -2.1048 -1.6931
18164TIP3   OH275906   0.604   2.536  13.778 -0.6907 -1.2444 -0.1326
18164TIP3    H175907   0.691   2.576  13.785 -1.3198  0.4610 -1.3359
18164TIP3    H275908   0.589   2.526  13.684 -2.0861 -0.7728  0.0054
18165TIP3   OH275909   1.547   1.567  13.547 -0.5223 -0.2668 -0.2952
18165TIP3    H175910   1.529   1.624  13.622  1.7092  1.0858 -0.6847
18165TIP3    H275911   1.587   1.489  13.584  0.5261  0.3764 -0.0405
18166TIP3   OH275912   5.987   6.266   2.472 -0.3960 -0.3252 -0.0040
18166TIP3    H175913   5.943   6.289   2.554 -2.6044 -0.3096 -1.1310
18166TIP3    H275914   5.962   6.175   2.456  1.7957 -1.0652  0.3654
18167TIP3   OH275915   0.205   5.166   1.400 -0.2664  0.6063 -0.0291
18167TIP3    H175916   0.200   5.232   1.469  1.0561  0.0317  0.6497
18167TIP3    H275917   0.284   5.188   1.351 -0.9025  0.6853 -1.0484
18168TIP3   OH275918   0.172   6.219  16.887 -0.1510  0.3095  0.1359
18168TIP3    H175919   0.168   6.263  16.972 -1.4520  1.2403 -0.3661
18168TIP3    H275920   0.081   6.214  16.859  0.2736  0.1727 -1.2788
18169TIP3   OH275921   3.046   4.314   3.841 -0.0414  0.2375  0.4869
18169TIP3    H175922   3.048   4.335   3.747  0.7343 -2.0934 -0.0781
18169TIP3    H275923   2.953   4.314   3.863 -0.1845  2.3715  0.1720
18170TIP3   OH275924   4.888   4.016   4.438  0.4841 -0.2703 -0.1694
18170TIP3    H175925   4.845   4.098   4.458  0.9691 -0.3231  1.1806
18170TIP3    H275926   4.970   4.041   4.395 -0.3740 -0.1439 -1.8174
18171TIP3   OH275927   4.858   2.654   5.268 -0.2042 -0.2099  0.4354
18171TIP3    H175928   4.820   2.627   5.351 -0.9822 -1.3074 -0.2574
18171TIP3    H275929   4.835   2.585   5.207  0.4137  0.5445 -0.6915
18172TIP3   OH275930   3.336   5.405   1.564  0.2363  0.1866  0.5162
18172TIP3    H175931   3.327   5.332   1.626  0.8078  1.0511  1.6461
18172TIP3    H275932   3.248   5.417   1.528  0.3864 -1.9176 -0.7188
18173TIP3   OH275933   3.876   0.914   1.182 -0.5277 -0.7861  0.2685
18173TIP3    H175934   3.968   0.932   1.204 -0.9695 -1.5673  3.1889
18173TIP3    H275935   3.881   0.839   1.122  0.7667  0.5270 -1.3670
18174TIP3   OH275936   6.743   1.515   2.085  0.7864  0.6201  0.1489
18174TIP3    H175937   6.760   1.448   2.151 -1.2524 -0.2056 -0.0935
18174TIP3    H275938   6.828   1.556   2.071  1.8710 -1.1195  1.1727
18175TIP3   OH275939   2.547   6.549   2.986  0.1170 -0.7103  0.2625
18175TIP3    H175940   2.608   6.538   3.059 -0.6224 -2.2621  0.7151
18175TIP3    H275941   2.476   6.487   3.005  0.5892 -2.2640 -2.4857
18176TIP3   OH275942   1.470   4.211   0.541 -0.7865 -0.0837 -0.4429
18176TIP3    H175943   1.507   4.144   0.484 -0.5582 -0.5163  0.2022
18176TIP3    H275944   1.494   4.184   0.630  0.3701  1.4920 -0.2356
18177TIP3   OH275945   6.693   0.149   3.161  0.1499  0.5875  0.1176
18177TIP3    H175946   6.622   0.100   3.202  1.6932 -2.0884 -0.1060
18177TIP3    H275947   6.769   0.133   3.218  1.0988  1.4207 -0.8549
18178TIP3   OH275948   3.884   0.148   3.541 -0.7312 -0.2107  0.2104
18178TIP3    H175949   3.872   0.099   3.623  1.2501  0.9049  1.2462
18178TIP3    H275950   3.899   0.080   3.475 -3.3881 -1.1903  0.4886
18179TIP3   OH275951   5.543   0.559   4.429 -0.2874 -0.3353 -0.2651
18179TIP3    H175952   5.494   0.580   4.349 -0.7941 -1.0724 -0.1554
18179TIP3    H275953   5.489   0.495   4.475  0.2378 -0.2952  0.4296
18180TIP3   OH275954   1.877   2.260  10.808  0.2825 -0.1691  0.1547
18180TIP3    H175955   1.808   2.289  10.867  0.7826  0.2793  0.5247
18180TIP3    H275956   1.920   2.340  10.778  0.8672 -0.4520  0.2045
18181TIP3   OH275957   1.834   4.014   4.313  0.0954  0.0185  0.0063
18181TIP3    H175958   1.741   4.031   4.325 -0.5380 -2.9004  0.1046
18181TIP3    H275959   1.855   3.950   4.382  2.2571  0.8057  0.1490
18182TIP3   OH275960   3.279   5.241   0.852 -0.0880  0.1378  0.2353
18182TIP3    H175961   3.364   5.273   0.884  0.2101  1.3103 -1.5304
18182TIP3    H275962   3.293   5.148   0.833  1.1590  0.5299 -0.9715
18183TIP3   OH275963   0.014   6.604   1.489 -0.4502 -0.0322  0.3902
18183TIP3    H175964   0.029   6.681   1.543  1.5740  1.4627 -2.1096
18183TIP3    H275965   0.055   6.532   1.538  0.4607  1.0701  1.2902
18184TIP3   OH275966   1.871   0.940  11.445 -0.0661 -0.6861  0.9530
18184TIP3    H175967   1.931   1.011  11.421 -0.6570 -0.3445  0.4497
18184TIP3    H275968   1.784   0.976  11.429 -0.3601 -1.9114 -0.4595
18185TIP3   OH275969   6.339   1.823   5.666  0.1324  0.2391 -0.2619
18185TIP3    H175970   6.340   1.874   5.747 -0.5997  1.2393 -0.8630
18185TIP3    H275971   6.247   1.818   5.641  0.3286 -0.2398 -0.9232
18186TIP3   OH275972   3.736   2.276   0.230 -0.4245 -0.4950  0.0330
18186TIP3    H175973   3.826   2.269   0.199 -0.4054  2.3346 -0.8415
18186TIP3    H275974   3.698   2.347   0.178 -2.5717 -0.3030  1.7079
18187TIP3   OH275975   1.284   5.409   3.759 -0.1861  0.2609 -0.0968
18187TIP3    H175976   1.373   5.376   3.750 -0.1750  0.6217 -1.8275
18187TIP3    H275977   1.286   5.465   3.837  0.6751 -0.9862  0.8020
18188TIP3   OH275978   2.880   2.530   1.135  0.4108  0.2331  0.2345
18188TIP3    H175979   2.788   2.524   1.108  0.5879  0.5951 -0.4872
18188TIP3    H275980   2.890   2.459   1.199 -0.3766  0.2120  0.3555
18189TIP3   OH275981   0.885   4.186  16.877  0.0353  0.3722 -0.7553
18189TIP3    H175982   0.855   4.273  16.851 -0.7989  0.3524  0.1141
18189TIP3    H275983   0.832   4.125  16.825 -1.5026  0.3375  0.7566
18190TIP3   OH275984   4.575   5.569   3.294 -0.2649 -0.2527 -0.2414
18190TIP3    H175985   4.558   5.476   3.276 -0.2144 -0.1383 -0.8920
18190TIP3    H275986   4.490   5.604   3.321 -0.3539 -0.4163 -0.3078
18191TIP3   OH275987   6.041   4.766   5.196  0.0899  0.6361  0.1995
18191TIP3    H175988   5.966   4.820   5.170  1.6273  2.8470  0.0294
18191TIP3    H275989   6.106   4.782   5.128  1.8071  1.2771  1.9039
18192TIP3   OH275990   1.137   3.905   4.284 -0.5187 -0.2657  0.5356
18192TIP3    H175991   1.199   3.970   4.253  1.1715 -1.6925  0.7647
18192TIP3    H275992   1.093   3.947   4.359  0.4400  0.6410  0.6094
18193TIP3   OH275993   4.232   5.368  16.096  0.0530 -0.0225  0.8522
18193TIP3    H175994   4.305   5.414  16.054 -0.9291  0.6253 -0.1975
18193TIP3    H275995   4.168   5.357  16.026 -1.3790  0.5451  2.0277
18194TIP3   OH275996   4.910   4.776   2.703 -0.1683  0.3760  0.2011
18194TIP3    H175997   4.865   4.699   2.669  0.6672 -0.2501  0.4814
18194TIP3    H275998   4.992   4.779   2.653  0.2288  0.5315  0.8583
18195TIP3   OH275999   6.693   4.609   4.812  0.3246  0.2352 -0.2170
18195TIP3    H176000   6.787   4.598   4.828  0.6122  0.4433 -1.6011
18195TIP3    H276001   6.663   4.523   4.782  0.3141  0.4376 -0.8087
18196TIP3   OH276002   2.053   1.801  11.363 -0.3766 -0.2121  0.2652
18196TIP3    H176003   2.073   1.730  11.423  0.6350 -0.4715 -0.3449
18196TIP3    H276004   2.072   1.765  11.276 -1.1176  0.3827 -0.1504
18197TIP3   OH276005   6.098   6.780   1.154  0.2975 -0.2055 -0.9530
18197TIP3    H176006   6.114   6.706   1.096  1.2752 -0.8454  0.0832
18197TIP3    H276007   6.067   6.740   1.236  0.0220  0.5923 -0.6531
18198TIP3   OH276008   3.844   0.855  14.566  0.4062 -0.2182 -0.0600
18198TIP3    H176009   3.848   0.943  14.603 -1.3182  0.0946 -0.5018
18198TIP3    H276010   3.935   0.831  14.551  0.9360  1.3408  0.4187
18199TIP3   OH276011   4.269   5.436   5.598  0.1184 -0.4094 -0.3123
18199TIP3    H176012   4.359   5.415   5.624  0.1957  0.2206 -0.0787
18199TIP3    H276013   4.216   5.410   5.673  0.2426  0.4719  0.0915
18200TIP3   OH276014   0.988   3.578   5.515  0.0970 -0.1895  0.2734
18200TIP3    H176015   1.063   3.518   5.520  0.7669  0.6182  0.1787
18200TIP3    H276016   0.975   3.608   5.605  0.3453  0.2024  0.1842
18201TIP3   OH276017   1.497   3.408   4.125 -0.2618  0.4615  0.5375
18201TIP3    H176018   1.566   3.351   4.092  0.0433 -0.0397  1.9704
18201TIP3    H276019   1.490   3.478   4.059  0.0669 -0.6549 -0.7225
18202TIP3   OH276020   4.332   2.767  15.423  0.3562 -0.1744 -0.3023
18202TIP3    H176021   4.271   2.699  15.450  0.8142 -1.0555 -1.3885
18202TIP3    H276022   4.287   2.849  15.443 -0.2329 -0.7880  0.9698
18203TIP3   OH276023   5.869   5.856  10.904 -0.0681 -0.3146 -0.3730
18203TIP3    H176024   5.952   5.836  10.861  0.0149 -0.7035 -0.0388
18203TIP3    H276025   5.894   5.901  10.985 -0.2364  0.7403 -0.8981
18204TIP3   OH276026   0.424   3.390   0.471 -0.0565  0.0150  0.0986
18204TIP3    H176027   0.379   3.405   0.388 -0.7065 -0.7980  0.2840
18204TIP3    H276028   0.364   3.422   0.538 -0.1602 -0.6317  0.3248
18205TIP3   OH276029   5.640   5.115   2.856  0.2129  0.0053  0.1038
18205TIP3    H176030   5.545   5.125   2.853  0.2399  0.3240  0.3077
18205TIP3    H276031   5.657   5.036   2.804 -0.1734 -0.1289  0.1748
18206TIP3   OH276032   6.050   4.912  12.913 -0.1953  0.5837  0.3856
18206TIP3    H176033   5.999   4.859  12.852  2.7288 -0.5178 -1.3049
18206TIP3    H276034   6.021   4.882  13.000 -1.2210 -1.1665 -0.4999
18207TIP3   OH276035   2.504   5.117   2.699 -0.1731 -0.0183 -0.1003
18207TIP3    H176036   2.553   5.169   2.762 -1.5705  1.3824 -0.0921
18207TIP3    H276037   2.458   5.052   2.752 -0.1221  0.1585  0.1646
18208TIP3   OH276038   0.851   2.654   2.427  0.1295  0.4602  0.2237
18208TIP3    H176039   0.756   2.665   2.420  0.1009 -0.3685 -0.8654
18208TIP3    H276040   0.886   2.696   2.349  0.5289 -0.6804 -0.2230
18209TIP3   OH276041   1.963   6.756   2.516 -0.2376  0.0460 -0.4830
18209TIP3    H176042   1.887   6.753   2.457 -1.7056 -1.1347  1.3587
18209TIP3    H276043   1.942   6.825   2.578  0.6674  0.3475 -0.5006
18210TIP3   OH276044   0.844   3.535  14.936  0.3130  0.3039  0.5195
18210TIP3    H176045   0.918   3.593  14.953  0.1122  0.4290  0.9949
18210TIP3    H276046   0.774   3.592  14.906 -0.0759  0.4039  1.5665
18211TIP3   OH276047   4.679   5.786  15.038  0.0854 -0.9472 -0.5948
18211TIP3    H176048   4.677   5.844  15.115 -1.3353 -1.4284 -0.2368
18211TIP3    H276049   4.703   5.700  15.074  2.0360 -0.6496 -1.1014
18212TIP3   OH276050   4.845   6.182  11.472  0.5567  0.3628  0.1247
18212TIP3    H176051   4.894   6.224  11.401 -0.1891  1.0351 -0.0045
18212TIP3    H276052   4.888   6.214  11.552  1.2422 -0.2047 -0.0079
18213TIP3   OH276053   1.610   1.181  14.855  0.2012  0.4289 -0.2033
18213TIP3    H176054   1.611   1.166  14.949 -0.7410  1.5378  0.0029
18213TIP3    H276055   1.615   1.093  14.817  0.7661 -0.0199  0.8644
18214TIP3   OH276056   5.141   2.846   0.376 -0.1871  0.4362 -0.1927
18214TIP3    H176057   5.157   2.796   0.296  0.3711  0.3969 -0.0661
18214TIP3    H276058   5.057   2.814   0.409  0.1999 -0.4962 -0.0604
18215TIP3   OH276059   1.664   5.318  10.532 -0.4753 -0.4209 -0.3094
18215TIP3    H176060   1.667   5.227  10.564  2.1673  0.1251  1.2496
18215TIP3    H276061   1.744   5.328  10.481 -0.1621  1.3380  0.4747
18216TIP3   OH276062   4.864   5.380   5.260  0.3137  0.4488 -0.3013
18216TIP3    H176063   4.855   5.429   5.178 -0.1912  0.9897  0.0674
18216TIP3    H276064   4.910   5.439   5.318  0.2970  0.2267 -0.0614
18217TIP3   OH276065   5.236   5.041   2.192 -0.1832 -0.3117  0.4925
18217TIP3    H176066   5.297   4.969   2.177 -0.3244 -0.1730 -0.8836
18217TIP3    H276067   5.279   5.096   2.258  0.4072 -1.0831  0.7690
18218TIP3   OH276068   1.282   5.731   1.939 -0.2462 -0.0092  0.4816
18218TIP3    H176069   1.371   5.726   1.975  0.2506 -1.2095 -0.8252
18218TIP3    H276070   1.293   5.712   1.846 -1.7994  0.5738  0.1481
18219TIP3   OH276071   2.097   1.207  13.253 -0.4245  0.2258  0.3596
18219TIP3    H176072   2.056   1.230  13.336 -1.4651 -0.0867 -0.0562
18219TIP3    H276073   2.169   1.269  13.243 -0.7845  0.7684  1.1132
18220TIP3   OH276074   4.995   5.655  14.591  0.1777  0.1952  0.4212
18220TIP3    H176075   5.084   5.628  14.614  0.3332 -0.3777 -0.7984
18220TIP3    H276076   5.007   5.742  14.553  0.5800 -0.8941 -2.1030
18221TIP3   OH276077   3.664   0.253   3.434  0.0073 -0.4402  0.6815
18221TIP3    H176078   3.708   0.292   3.358  0.0955  2.3540  2.0245
18221TIP3    H276079   3.731   0.198   3.474  0.2511 -1.1963 -0.7062
18222TIP3   OH276080   6.697   2.603   5.934  0.0860  0.0613 -0.0788
18222TIP3    H176081   6.686   2.643   6.020  3.1295  1.8794 -0.3819
18222TIP3    H276082   6.740   2.671   5.882 -0.6674 -1.3656 -2.7477
18223TIP3   OH276083   3.055   3.638  11.763 -0.0504 -0.3798  0.4805
18223TIP3    H176084   3.013   3.554  11.745 -0.1116 -0.2654  0.0891
18223TIP3    H276085   3.025   3.696  11.693  2.2887 -0.7974 -0.9675
18224TIP3   OH276086   5.288   0.131   0.954 -0.1162  0.0682 -0.5846
18224TIP3    H176087   5.326   0.216   0.973  0.6175  0.1795 -2.3424
18224TIP3    H276088   5.249   0.102   1.037  0.7727  1.5079  0.3639
18225TIP3   OH276089   6.681   3.527   6.632  0.0936 -0.1582 -0.5243
18225TIP3    H176090   6.770   3.561   6.645  0.1188 -0.1791 -0.6357
18225TIP3    H276091   6.625   3.584   6.683  0.4349 -1.6167  1.6189
18226TIP3   OH276092   0.521   4.169  16.235  0.5365 -0.1093  0.5000
18226TIP3    H176093   0.432   4.194  16.209  0.6418  1.8110  1.7592
18226TIP3    H276094   0.561   4.251  16.265  2.8478 -0.8778 -0.3107
18227TIP3   OH276095   3.695   5.876  14.973  0.4862 -0.2144  0.3555
18227TIP3    H176096   3.659   5.816  14.907  1.1541 -0.0954 -0.1270
18227TIP3    H276097   3.696   5.824  15.053 -0.2869 -0.3777  0.2730
18228TIP3   OH276098   4.456   2.945  11.487 -0.0503 -0.1105  0.0226
18228TIP3    H176099   4.532   2.908  11.533 -0.5536 -1.5827 -0.2511
18228TIP3    H276100   4.485   3.031  11.458  1.4041 -0.4923  0.2445
18229TIP3   OH276101   4.365   4.546   4.180  0.1512 -0.2456  0.5343
18229TIP3    H176102   4.364   4.587   4.093  1.8213  0.9791  1.0494
18229TIP3    H276103   4.294   4.589   4.227 -0.7618 -0.9113 -0.1807
18230TIP3   OH276104   1.372   4.469   5.842  0.0622  0.2668  0.1285
18230TIP3    H176105   1.376   4.392   5.899  1.0438  1.9582  2.5130
18230TIP3    H276106   1.282   4.499   5.849 -0.2992 -0.5350 -0.7323
18231TIP3   OH276107   1.505   1.142  12.021 -0.2419 -0.3105 -0.5480
18231TIP3    H176108   1.448   1.159  11.946 -1.0892 -0.3198  0.0850
18231TIP3    H276109   1.449   1.096  12.084  0.3135  0.1543  0.3033
18232TIP3   OH276110   3.217   3.434   3.386 -0.2132  0.0778  0.2184
18232TIP3    H176111   3.249   3.519   3.416  0.3144 -0.2871  0.6993
18232TIP3    H276112   3.218   3.379   3.465 -1.2163 -0.1813  0.0661
18233TIP3   OH276113   1.904   1.179   2.308  0.2287 -0.2446 -0.1925
18233TIP3    H176114   1.811   1.199   2.316  0.3799  0.3151  0.2732
18233TIP3    H276115   1.946   1.265   2.301  0.7466 -0.4713  0.0526
18234TIP3   OH276116   1.188   6.458  10.548 -0.9798 -0.6754  0.2754
18234TIP3    H176117   1.139   6.502  10.617 -0.5061 -0.7038  0.6330
18234TIP3    H276118   1.151   6.370  10.544 -1.6001 -0.4057 -0.1097
18235TIP3   OH276119   1.087   0.240   2.353 -0.2606  0.1059 -0.1917
18235TIP3    H176120   1.114   0.155   2.388 -1.7069  0.1091  1.0302
18235TIP3    H276121   0.994   0.229   2.333 -0.5257  1.4503  0.1908
18236TIP3   OH276122   3.027   1.383  13.612  0.0879 -0.4304 -1.4128
18236TIP3    H176123   3.107   1.351  13.654 -0.7764 -1.0426 -0.1820
18236TIP3    H276124   2.971   1.410  13.685 -0.7661  0.1598 -2.2673
18237TIP3   OH276125   2.891   4.522   2.147 -0.0406  0.3197  0.2160
18237TIP3    H176126   2.919   4.564   2.229 -0.3285  0.6543  0.1479
18237TIP3    H276127   2.815   4.470   2.172  1.4864 -1.8028  0.7062
18238TIP3   OH276128   6.068   0.740   3.835  0.0789  0.3031  0.2057
18238TIP3    H176129   6.030   0.821   3.869 -0.4759 -0.5198  1.6823
18238TIP3    H276130   6.083   0.687   3.913  1.2634 -0.6777 -0.6510
18239TIP3   OH276131   1.350   2.121   0.312  0.5826  0.1077  0.2200
18239TIP3    H176132   1.398   2.129   0.230  1.0706 -0.0282  0.4943
18239TIP3    H276133   1.314   2.209   0.327  0.2164  0.0542 -0.3020
18240TIP3   OH276134   5.743   4.178  12.249 -0.4942 -0.5311  0.1654
18240TIP3    H176135   5.665   4.210  12.205 -0.3353 -1.4770 -0.8504
18240TIP3    H276136   5.720   4.089  12.277 -0.3386 -0.2165  1.3673
18241TIP3   OH276137   2.406   6.656   2.770 -0.3061 -0.3948  0.2449
18241TIP3    H176138   2.429   6.580   2.717 -0.8964 -0.7126  0.4240
18241TIP3    H276139   2.440   6.636   2.857  0.9742  0.2847 -0.0794
18242TIP3   OH276140   2.436   3.615   5.279 -0.0499  0.1862  0.4209
18242TIP3    H176141   2.529   3.603   5.259 -0.4433 -1.4936 -0.6778
18242TIP3    H276142   2.406   3.680   5.215  0.2123  0.1818  0.2915
18243TIP3   OH276143   3.920   2.913   0.064 -0.1209  0.4612  0.0060
18243TIP3    H176144   3.838   2.867   0.050 -0.0479  0.0592  0.8336
18243TIP3    H276145   3.953   2.878   0.147  0.2272  1.5819  0.3541
18244TIP3   OH276146   4.404   4.070   4.405  0.3931  0.0403 -0.8045
18244TIP3    H176147   4.487   4.074   4.358  0.4559 -1.6361 -0.8926
18244TIP3    H276148   4.360   4.152   4.382  2.9666  2.1196  1.1812
18245TIP3   OH276149   6.459   2.013   3.104  0.4221  0.1844 -0.3278
18245TIP3    H176150   6.529   2.066   3.065 -0.3842  1.3552 -0.2479
18245TIP3    H276151   6.505   1.946   3.155  1.4838 -0.8863 -2.5799
18246TIP3   OH276152   6.592   0.980   4.617  0.4077 -0.1060 -0.0898
18246TIP3    H176153   6.635   1.066   4.624  1.8211 -0.8702  1.4376
18246TIP3    H276154   6.565   0.960   4.707 -1.0607 -0.7216 -0.6430
18247TIP3   OH276155   4.719   3.742  15.277 -0.9814  0.5516 -0.1439
18247TIP3    H176156   4.745   3.824  15.319  1.6438  0.0894 -0.6608
18247TIP3    H276157   4.764   3.744  15.192  0.3313 -1.9569  0.3851
18248TIP3   OH276158   6.082   1.047   1.825 -0.3871  0.3109 -0.0876
18248TIP3    H176159   6.082   1.067   1.731 -1.1856  0.6757 -0.0238
18248TIP3    H276160   6.097   1.131   1.868 -0.9132  0.3065  0.1218
18249TIP3   OH276161   2.658   5.457   1.999 -0.2059  0.2963 -0.3215
18249TIP3    H176162   2.696   5.517   1.934  1.8739  0.6454  1.1362
18249TIP3    H276163   2.679   5.370   1.966  0.2458  0.4561 -0.4661
18250TIP3   OH276164   0.196   6.098  11.720  0.0733 -0.0099 -0.2515
18250TIP3    H176165   0.161   6.024  11.771  0.5558  0.0079  0.1116
18250TIP3    H276166   0.195   6.067  11.630 -1.2431  0.1278 -0.3153
18251TIP3   OH276167   1.233   5.119   1.807 -0.6704  0.0935  0.2899
18251TIP3    H176168   1.144   5.135   1.777 -0.3564 -0.6568 -1.1330
18251TIP3    H276169   1.261   5.042   1.757  0.8776  0.5038  0.4960
18252TIP3   OH276170   2.216   2.827   2.648  0.3264  0.2294  0.1432
18252TIP3    H176171   2.231   2.884   2.723 -0.5342  1.7804 -0.7919
18252TIP3    H276172   2.224   2.886   2.572  0.7178 -1.1846 -0.9541
18253TIP3   OH276173   3.941   6.553   1.709 -0.3415 -0.3628 -0.1329
18253TIP3    H176174   3.920   6.530   1.800  1.0129  0.5674  0.4511
18253TIP3    H276175   4.027   6.513   1.694 -0.4379 -0.2823 -0.9102
18254TIP3   OH276176   5.755   3.953   2.478  0.0506  0.0876  0.1506
18254TIP3    H176177   5.713   4.035   2.452 -0.1053 -0.2312 -0.6150
18254TIP3    H276178   5.762   3.960   2.573 -0.6219  0.6811  0.1703
18255TIP3   OH276179   3.201   2.643  16.814 -0.1584 -0.0192 -0.6589
18255TIP3    H176180   3.218   2.660  16.721  1.6347 -1.1668 -0.5979
18255TIP3    H276181   3.284   2.609  16.847 -0.9386 -0.1709  1.2445
18256TIP3   OH276182   1.963   0.235   4.502 -0.1329  0.4631 -0.5608
18256TIP3    H176183   1.914   0.294   4.559 -0.4725 -0.0537 -0.3062
18256TIP3    H276184   2.047   0.224   4.547 -1.1988 -1.7425  1.1004
18257TIP3   OH276185   0.756   3.342   2.759 -0.5305 -0.1578  0.1050
18257TIP3    H176186   0.722   3.425   2.726 -1.6066 -0.5188  0.2667
18257TIP3    H276187   0.679   3.285   2.764 -0.2213 -0.4430  2.2142
18258TIP3   OH276188   0.087   5.024  11.997  0.2183 -0.2968 -0.4995
18258TIP3    H176189   0.080   5.105  11.947  2.6491 -0.0239 -0.5074
18258TIP3    H276190   0.084   4.955  11.930 -1.2847 -0.2181 -0.5419
18259TIP3   OH276191   3.310   3.276  15.957  0.2088  0.5653 -1.0858
18259TIP3    H176192   3.347   3.196  15.921  2.1657  0.5667  0.6791
18259TIP3    H276193   3.228   3.249  15.998  0.6746 -0.5000 -0.8245
18260TIP3   OH276194   6.603   4.795  11.909 -0.4895 -0.0341 -0.2940
18260TIP3    H176195   6.679   4.744  11.934 -1.6821 -0.0865  4.0645
18260TIP3    H276196   6.618   4.882  11.947 -1.2621  0.9652 -2.1159
18261TIP3   OH276197   2.904   2.233   0.119 -0.2000  0.6892 -0.0113
18261TIP3    H176198   2.966   2.165   0.090 -2.0943 -1.4878  0.7264
18261TIP3    H276199   2.832   2.228   0.057 -0.6799  1.5496  0.4617
18262TIP3   OH276200   1.247   0.750   4.974  0.2609  0.5127 -0.3471
18262TIP3    H176201   1.262   0.657   4.990  1.5154  0.4525 -1.6662
18262TIP3    H276202   1.326   0.780   4.929  0.2072  2.3956  0.7037
18263TIP3   OH276203   3.195   2.443  10.377 -0.0072  0.0496 -0.4618
18263TIP3    H176204   3.258   2.505  10.413 -0.8808  1.6457 -1.5899
18263TIP3    H276205   3.247   2.364  10.359  1.1338  0.4319  0.9276
18264TIP3   OH276206   6.007   2.065   3.048  0.2256 -0.3343 -0.1116
18264TIP3    H176207   5.958   2.137   3.087  0.2083 -0.1909 -0.4006
18264TIP3    H276208   6.094   2.070   3.088  0.1349 -0.3370  0.0893
18265TIP3   OH276209   1.775   5.658  14.904 -0.0286  0.7560 -0.2153
18265TIP3    H176210   1.726   5.579  14.928  0.0446 -0.0581 -2.4604
18265TIP3    H276211   1.718   5.730  14.929 -0.7505 -0.0650  0.5577
18266TIP3   OH276212   2.889   5.103  10.932 -0.1057  0.7050  0.8295
18266TIP3    H176213   2.870   5.018  10.894 -1.3910  1.0439  0.6709
18266TIP3    H276214   2.985   5.104  10.942 -0.1474 -1.1769  1.8722
18267TIP3   OH276215   1.340   0.346   0.427  0.3097 -0.3875 -0.1736
18267TIP3    H176216   1.360   0.287   0.355  0.3755 -0.9297  0.2756
18267TIP3    H276217   1.418   0.401   0.434 -0.1126  0.3514 -1.1626
18268TIP3   OH276218   0.309   5.442  11.537 -0.4140  0.4486  0.5294
18268TIP3    H176219   0.345   5.362  11.576  0.2408  1.5027  2.2050
18268TIP3    H276220   0.300   5.422  11.444  3.6019 -0.2783  0.1165
18269TIP3   OH276221   6.067   3.269   1.556 -0.3954  0.2419 -0.2343
18269TIP3    H176222   6.041   3.345   1.504  1.6619  0.6666 -0.7444
18269TIP3    H276223   6.129   3.303   1.621  3.5819 -1.2860 -2.8044
18270TIP3   OH276224   3.560   4.351  16.176  0.2955 -0.4624 -0.5131
18270TIP3    H176225   3.565   4.277  16.236  1.4696  0.2231  0.2860
18270TIP3    H276226   3.630   4.410  16.205 -0.7619  1.0765 -0.9533
18271TIP3   OH276227   1.017   6.307   2.140 -0.2935  0.4594  0.4586
18271TIP3    H176228   1.017   6.265   2.225  2.7957 -2.4177 -0.7441
18271TIP3    H276229   0.993   6.398   2.158  0.4355  0.0513  4.3785
18272TIP3   OH276230   3.439   4.386  14.879 -0.2537 -0.2477  0.0606
18272TIP3    H176231   3.460   4.474  14.912 -1.3739  0.1230 -0.1650
18272TIP3    H276232   3.345   4.390  14.858  0.1777 -0.7744 -2.1956
18273TIP3   OH276233   5.945   0.073   4.916  0.2299  0.1423 -0.2014
18273TIP3    H176234   5.852   0.054   4.902  0.3634 -0.2931 -0.5574
18273TIP3    H276235   5.989   0.033   4.840  0.6902  0.4804 -0.1182
18274TIP3   OH276236   0.186   5.960   0.360  0.2450  0.6366  0.1840
18274TIP3    H176237   0.196   5.885   0.419 -0.7831 -0.6028 -1.1489
18274TIP3    H276238   0.140   5.925   0.284  0.3202  2.4926 -0.7756
18275TIP3   OH276239   2.777   4.474   1.579 -0.5091 -0.4487  0.0154
18275TIP3    H176240   2.761   4.567   1.563 -0.8455 -0.5600 -0.3255
18275TIP3    H276241   2.699   4.431   1.544 -0.3526 -0.8587  0.1701
18276TIP3   OH276242   3.468   6.190   3.824 -0.0460  0.1995 -0.1379
18276TIP3    H176243   3.383   6.188   3.780  0.5700 -0.5843 -1.3456
18276TIP3    H276244   3.532   6.179   3.754  0.9355 -2.4450  1.0577
18277TIP3   OH276245   0.845   5.657   0.013 -0.3428  0.0003  0.1027
18277TIP3    H176246   0.915   5.713  -0.022 -0.2289 -0.3093 -0.1709
18277TIP3    H276247   0.887   5.574   0.032 -0.2655  0.3612  1.6210
18278TIP3   OH276248   3.759   3.263   1.000 -0.6895 -0.0973 -0.7168
18278TIP3    H176249   3.680   3.306   1.031  0.3451  1.5918 -0.3132
18278TIP3    H276250   3.738   3.170   1.000 -2.2867  0.2402  0.4705
18279TIP3   OH276251   2.386   5.848  12.523  0.1520 -0.2844  0.1776
18279TIP3    H176252   2.373   5.913  12.455  0.4669 -0.3767  0.0246
18279TIP3    H276253   2.462   5.797  12.493  0.1114 -0.5100  0.4533
18280TIP3   OH276254   3.946   0.392  15.264  0.0808 -0.5319 -0.6996
18280TIP3    H176255   3.873   0.402  15.325 -1.4732  0.7667 -2.6025
18280TIP3    H276256   4.001   0.469  15.280 -0.1202 -0.3928 -0.6701
18281TIP3   OH276257   0.937   2.352  13.372  0.0558 -0.6692 -0.6331
18281TIP3    H176258   1.030   2.360  13.390 -0.1662 -0.1928  0.3731
18281TIP3    H276259   0.931   2.349  13.277  1.2535 -2.7739 -0.7082
18282TIP3   OH276260   6.078   0.402   6.154  0.6840  0.2191 -0.2076
18282TIP3    H176261   6.170   0.396   6.128  1.6483 -0.0614  2.8533
18282TIP3    H276262   6.060   0.496   6.156  1.4178  0.3558  0.6700
18283TIP3   OH276263   0.157   1.099   1.033 -0.1147  0.3826 -0.4889
18283TIP3    H176264   0.234   1.107   1.089 -0.3646  0.9707 -0.2215
18283TIP3    H276265   0.085   1.133   1.086 -0.4149  0.5941 -1.0240
18284TIP3   OH276266   2.351   1.858  12.995 -1.4647 -0.0396 -0.7065
18284TIP3    H176267   2.364   1.763  12.999 -1.2141  0.0127 -0.0427
18284TIP3    H276268   2.420   1.889  12.937  1.3059  0.1776  2.4021
18285TIP3   OH276269   3.424   1.810  13.248 -0.4117  0.3358 -0.2092
18285TIP3    H176270   3.422   1.856  13.332  0.3533  0.4534 -0.2511
18285TIP3    H276271   3.505   1.838  13.207 -0.3702 -0.3649 -0.6268
18286TIP3   OH276272   2.200   5.082   3.507 -0.1738 -0.2762  0.1661
18286TIP3    H176273   2.174   5.173   3.491 -0.0527 -0.5271 -1.5745
18286TIP3    H276274   2.120   5.032   3.494 -0.5518 -0.3550  2.3542
18287TIP3   OH276275   2.888   1.660   1.531  0.4168  0.4247 -0.3749
18287TIP3    H176276   2.822   1.653   1.600  0.8970  2.0263  0.2893
18287TIP3    H276277   2.940   1.580   1.540 -0.1736  0.1143  0.4301
18288TIP3   OH276278   4.736   6.272   0.363  0.0804 -0.4659 -0.5635
18288TIP3    H176279   4.826   6.284   0.391 -0.3260  2.5986 -0.2143
18288TIP3    H276280   4.691   6.352   0.389 -2.2811 -0.9763 -2.5825
18289TIP3   OH276281   0.915   1.934  13.770  0.4836 -0.5532  0.5486
18289TIP3    H176282   0.929   1.950  13.677  0.5081 -0.1174  0.6286
18289TIP3    H276283   0.898   2.020  13.807  0.9086 -0.6718  1.0257
18290TIP3   OH276284   3.420   5.715  11.653 -0.3628 -0.0806 -0.0815
18290TIP3    H176285   3.470   5.788  11.618  0.3991 -1.4010 -1.9526
18290TIP3    H276286   3.366   5.753  11.723  0.1078  2.1938 -0.8785
18291TIP3   OH276287   2.487   2.515   5.370 -0.1370 -0.6937  0.3436
18291TIP3    H176288   2.475   2.553   5.283 -1.7038 -0.3949  0.6506
18291TIP3    H276289   2.570   2.551   5.401  0.0837 -0.2296 -0.7323
18292TIP3   OH276290   4.667   3.038   3.490  0.5113  0.0402  0.0434
18292TIP3    H176291   4.744   3.023   3.436  1.2707 -1.6135  1.4850
18292TIP3    H276292   4.620   2.954   3.488 -0.7253  0.7119 -0.0005
18293TIP3   OH276293   3.679   2.074   4.734  0.7256  0.1425  0.0176
18293TIP3    H176294   3.748   2.139   4.744  0.7346  0.1388 -0.0199
18293TIP3    H276295   3.631   2.077   4.817  0.3053  0.6783 -0.2432
18294TIP3   OH276296   4.178   1.817   1.792  0.0328 -0.0504  0.2068
18294TIP3    H176297   4.108   1.855   1.845 -0.1361  2.9155 -1.9314
18294TIP3    H276298   4.244   1.886   1.787  0.4354 -0.5455 -2.6370
18295TIP3   OH276299   6.732   3.479  15.848 -0.3965  0.0881  0.3390
18295TIP3    H176300   6.782   3.552  15.811 -1.7160 -0.0031 -1.7882
18295TIP3    H276301   6.795   3.407  15.854  0.4579  0.8391  0.6997
18296TIP3   OH276302   1.152   6.121  11.680 -0.4256 -0.2381 -0.0220
18296TIP3    H176303   1.105   6.124  11.764  0.6489 -0.4393  0.6061
18296TIP3    H276304   1.209   6.198  11.682  0.5893 -0.9637  0.0553
18297TIP3   OH276305   5.177   2.964  13.775  0.4761 -0.0667  0.2749
18297TIP3    H176306   5.243   3.032  13.790 -0.2518  1.2518 -2.0190
18297TIP3    H276307   5.228   2.883  13.768  1.4571  0.3391  2.0938
18298TIP3   OH276308   3.937   6.792   0.739 -0.0740  0.1590  0.4569
18298TIP3    H176309   3.893   6.739   0.806 -0.2013 -2.1619 -1.3361
18298TIP3    H276310   4.027   6.799   0.769 -0.0590 -1.1015  0.7715
18299TIP3   OH276311   0.040   4.220  16.202  0.0536  0.2998  0.3071
18299TIP3    H176312  -0.022   4.279  16.244 -0.4513  0.3596 -0.4971
18299TIP3    H276313   0.066   4.159  16.271 -0.2602  0.7840  0.8630
18300TIP3   OH276314   2.849   3.315  12.974  0.3119  0.3360  0.0961
18300TIP3    H176315   2.793   3.238  12.988  0.0544  0.9276  2.9805
18300TIP3    H276316   2.789   3.385  12.949  0.0160  0.4417  1.0567
18301TIP3   OH276317   0.774   0.743   4.186  0.0077 -0.3642 -0.1854
18301TIP3    H176318   0.690   0.697   4.181 -0.6230  0.7797 -0.4084
18301TIP3    H276319   0.751   0.835   4.180  1.0589  0.1166  2.0681
18302TIP3   OH276320   2.841   2.710  16.401  0.0076 -0.0127  0.1361
18302TIP3    H176321   2.833   2.788  16.456 -0.8961 -0.4736  0.6734
18302TIP3    H276322   2.893   2.739  16.326 -1.4981  1.5011 -0.3833
18303TIP3   OH276323   5.866   1.011  11.528  0.1083 -1.1294  0.3213
18303TIP3    H176324   5.930   1.079  11.549 -0.3480 -1.1517  1.9256
18303TIP3    H276325   5.885   0.986  11.437 -0.9365  2.4680 -1.0532
18304TIP3   OH276326   4.630   3.672   5.002  0.0050  0.3573  0.2263
18304TIP3    H176327   4.686   3.733   4.955 -0.2073 -0.4796 -1.1734
18304TIP3    H276328   4.680   3.590   5.004 -0.4434  0.0854  0.5214
18305TIP3   OH276329   4.184   6.671  13.325 -0.3539  0.1024  0.1148
18305TIP3    H176330   4.161   6.724  13.401  1.2996  0.2617  0.5264
18305TIP3    H276331   4.214   6.733  13.259  0.4790 -0.2231  0.1809
18306TIP3   OH276332   1.820   2.392   1.739 -0.2781  0.1248 -0.2929
18306TIP3    H176333   1.834   2.485   1.760  2.1644  0.1300 -1.4855
18306TIP3    H276334   1.840   2.346   1.821  1.7034  0.5338 -0.4858
18307TIP3   OH276335   5.024   4.939  11.128 -0.1801 -0.4885  0.1724
18307TIP3    H176336   5.054   4.910  11.042 -1.5925 -2.9385  0.4246
18307TIP3    H276337   5.086   5.008  11.153  0.1397  0.4833 -2.8674
18308TIP3   OH276338   6.736   5.000  16.444  0.4278 -0.2033  0.0350
18308TIP3    H176339   6.674   4.987  16.372  0.7051  2.3642 -0.7798
18308TIP3    H276340   6.808   5.049  16.405  2.1326 -1.4968  1.3974
18309TIP3   OH276341   5.201   0.598  12.406 -0.0221 -0.6658  0.0113
18309TIP3    H176342   5.142   0.645  12.465 -0.2330  0.7881 -1.2993
18309TIP3    H276343   5.160   0.512  12.395 -2.1871  0.4202 -1.1575
18310TIP3   OH276344   2.881   6.510  14.694 -0.1931 -0.5804 -0.1427
18310TIP3    H176345   2.855   6.437  14.750  1.8817 -1.4267 -0.1848
18310TIP3    H276346   2.901   6.581  14.755 -0.2680 -0.7058  0.0302
18311TIP3   OH276347   6.782   2.250   4.397 -0.3378  0.0346 -0.1842
18311TIP3    H176348   6.849   2.259   4.464 -1.2828 -0.8517  0.9234
18311TIP3    H276349   6.708   2.301   4.429 -0.6658 -0.0855 -0.7347
18312TIP3   OH276350   6.606   2.842   4.858  0.1111 -0.3482  0.1981
18312TIP3    H176351   6.675   2.858   4.794 -1.1400  0.7212 -0.9190
18312TIP3    H276352   6.557   2.923   4.863  0.7395 -0.0057  3.3235
18313TIP3   OH276353   4.665   2.107   3.624 -0.2667  0.0188 -0.3445
18313TIP3    H176354   4.673   2.153   3.541  0.1779 -0.5331 -0.6153
18313TIP3    H276355   4.571   2.093   3.636 -0.4541  1.4372 -0.0012
18314TIP3   OH276356   3.237   6.125   2.577 -0.2123  0.1701 -0.1657
18314TIP3    H176357   3.232   6.180   2.498 -0.0607 -1.5804 -1.4585
18314TIP3    H276358   3.176   6.053   2.559 -1.0486  0.3293  1.8446
18315TIP3   OH276359   5.473   4.820   0.598 -0.1403 -0.6677  0.3729
18315TIP3    H176360   5.547   4.760   0.589  0.4752 -0.0007  0.8355
18315TIP3    H276361   5.440   4.804   0.686 -0.9904 -1.4428 -0.0736
18316TIP3   OH276362   6.078   2.043  16.842 -0.0348 -0.2316 -0.1127
18316TIP3    H176363   6.063   1.965  16.895 -0.6735  0.4385  0.7334
18316TIP3    H276364   6.108   2.010  16.758  1.3074 -1.3277  0.7574
18317TIP3   OH276365   4.338   4.669  16.564 -0.0321 -0.3032  0.1986
18317TIP3    H176366   4.312   4.608  16.495  1.1325 -1.2258  0.5315
18317TIP3    H276367   4.287   4.643  16.640  2.5401 -2.9359  1.2148
18318TIP3   OH276368   4.274   4.782  13.522 -0.4136  0.0233 -0.2681
18318TIP3    H176369   4.322   4.739  13.451 -1.2148  1.6090 -1.8333
18318TIP3    H276370   4.228   4.710  13.566  1.6929 -1.2612 -0.0117
18319TIP3   OH276371   3.914   0.703   1.001  0.0239 -0.5144  0.6117
18319TIP3    H176372   3.885   0.624   0.957 -2.1225  1.1064 -1.1140
18319TIP3    H276373   3.956   0.756   0.933  2.1887 -0.4277  1.9013
18320TIP3   OH276374   1.037   3.258  14.049 -0.4020  0.2019  0.4348
18320TIP3    H176375   1.104   3.311  14.006  0.8224 -0.8469  0.9949
18320TIP3    H276376   1.009   3.310  14.124  1.8903 -0.4888  1.8855
18321TIP3   OH276377   6.117   4.551   4.413  0.1836  0.0464  0.3738
18321TIP3    H176378   6.108   4.584   4.323 -1.6046 -0.5620  0.2903
18321TIP3    H276379   6.190   4.490   4.408  0.7509  0.7710 -0.4412
18322TIP3   OH276380   5.256   3.763   1.996  0.5188 -0.4132 -0.2493
18322TIP3    H176381   5.335   3.770   1.941  1.1786 -1.6588  0.4825
18322TIP3    H276382   5.288   3.775   2.085 -0.3454  0.3457 -0.0345
18323TIP3   OH276383   0.156   0.966  13.199 -0.5161 -0.0288  0.7866
18323TIP3    H176384   0.213   1.018  13.256 -0.1977  0.7222 -0.1775
18323TIP3    H276385   0.104   0.912  13.259  1.3857 -0.9367  1.7027
18324TIP3   OH276386   0.252   0.806  16.809 -0.0856  0.2399  0.2543
18324TIP3    H176387   0.211   0.878  16.858 -0.4446  1.0577 -1.1656
18324TIP3    H276388   0.346   0.821  16.818 -0.1508  0.4627  0.5700
18325TIP3   OH276389   5.749   0.260  12.830 -0.1617 -0.9103 -0.1358
18325TIP3    H176390   5.744   0.265  12.925  0.5513  1.3916 -0.1675
18325TIP3    H276391   5.811   0.328  12.805  0.4741 -2.1579 -2.2041
18326TIP3   OH276392   0.816   4.778   4.751 -0.1674  0.2931 -0.3125
18326TIP3    H176393   0.819   4.801   4.844  2.3621 -0.7634 -0.0575
18326TIP3    H276394   0.831   4.861   4.706 -1.4986  0.8337  0.1660
18327TIP3   OH276395   3.437   6.397   2.239  0.5291  0.4321  0.6139
18327TIP3    H176396   3.377   6.417   2.310 -0.7666  0.6972 -0.5241
18327TIP3    H276397   3.465   6.482   2.205 -0.5839  0.3575 -0.5817
18328TIP3   OH276398   6.100   3.381   3.582  0.4016 -0.0225 -0.1389
18328TIP3    H176399   6.174   3.347   3.532  0.7305  1.4378 -0.6774
18328TIP3    H276400   6.133   3.391   3.671  1.7736  3.1147 -0.8621
18329TIP3   OH276401   4.249   5.240   6.042 -0.1461  0.2874  1.0719
18329TIP3    H176402   4.337   5.212   6.067 -0.3388 -0.6863  0.6583
18329TIP3    H276403   4.191   5.185   6.094 -0.5207  0.3974  0.7714
18330TIP3   OH276404   3.002   1.044   0.577 -0.1464  0.3486 -0.1297
18330TIP3    H176405   2.949   1.117   0.609  1.2453  1.3293  0.0190
18330TIP3    H276406   3.057   1.020   0.652 -0.8104 -1.0904 -0.0733
18331TIP3   OH276407   2.202   0.473  13.232  0.0932  0.0490  0.2355
18331TIP3    H176408   2.171   0.453  13.320 -0.6074 -0.9294 -0.2247
18331TIP3    H276409   2.144   0.543  13.201  0.7247  0.8260  0.7608
18332TIP3   OH276410   2.883   3.394   6.002  0.8075  0.3855  0.0410
18332TIP3    H176411   2.816   3.342   6.048 -0.3632  3.1471  1.7062
18332TIP3    H276412   2.903   3.343   5.924 -0.8146 -2.1475  1.1345
18333TIP3   OH276413   4.995   6.060   3.022 -0.9851 -0.1318 -0.4177
18333TIP3    H176414   4.916   6.093   2.980  0.0898  2.3905 -0.6314
18333TIP3    H276415   4.992   6.097   3.111  0.1899  0.4231 -0.6004
18334TIP3   OH276416   2.638   1.802   3.621  0.4189 -0.0337  0.3284
18334TIP3    H176417   2.588   1.858   3.680  0.0514 -0.5615  0.5336
18334TIP3    H276418   2.703   1.859   3.583 -1.7496  1.2532 -1.6975
18335TIP3   OH276419   0.490   2.383   3.525  0.3136  0.4408 -0.0149
18335TIP3    H176420   0.560   2.317   3.530  0.8460  1.0095  0.1116
18335TIP3    H276421   0.445   2.377   3.609 -0.6545 -0.8493 -0.5811
18336TIP3   OH276422   2.926   5.587  14.272  0.3841 -0.1109 -0.3300
18336TIP3    H176423   2.849   5.576  14.328  1.5886 -0.9689  1.2143
18336TIP3    H276424   2.938   5.682  14.267  0.1228 -0.0112  0.7016
18337TIP3   OH276425   4.598   6.518   2.891  0.3881 -0.2234  0.0554
18337TIP3    H176426   4.575   6.427   2.912  1.0829 -0.3487  0.3106
18337TIP3    H276427   4.593   6.522   2.796  2.6295 -1.1976 -0.1717
18338TIP3   OH276428   2.203   3.319   5.119 -0.9686  0.1472  0.0905
18338TIP3    H176429   2.138   3.351   5.182 -1.6603 -0.1973 -0.4373
18338TIP3    H276430   2.288   3.339   5.160 -1.4017 -0.2492  1.2227
18339TIP3   OH276431   2.234   5.712  14.807 -0.0665 -0.1464  0.1734
18339TIP3    H176432   2.216   5.712  14.713  0.5368 -1.8585  0.0248
18339TIP3    H276433   2.283   5.793  14.822 -0.5098  0.3393 -0.9062
18340TIP3   OH276434   5.710   3.579  14.745  0.3246  0.4821 -0.2421
18340TIP3    H176435   5.774   3.616  14.805  0.7914  0.3641 -0.6570
18340TIP3    H276436   5.762   3.546  14.672 -0.1900  0.1485 -0.4647
18341TIP3   OH276437   4.704   1.500  12.025 -0.0850  0.4085  0.0501
18341TIP3    H176438   4.671   1.414  12.002 -1.0936  0.1931  2.0549
18341TIP3    H276439   4.681   1.556  11.951 -0.6337 -0.7555 -0.6774
18342TIP3   OH276440   6.682   6.274   2.925  0.9701  0.2552 -0.0368
18342TIP3    H176441   6.636   6.252   2.843 -0.6530 -0.8010  1.0913
18342TIP3    H276442   6.761   6.220   2.924  1.1425  0.5050 -1.0418
18343TIP3   OH276443   3.260   1.333   1.656  0.5454  0.4969 -0.1812
18343TIP3    H176444   3.305   1.351   1.573  0.3302  3.8856  0.2938
18343TIP3    H276445   3.191   1.399   1.660 -0.4485 -0.5862  2.0118
18344TIP3   OH276446   6.208   0.874   4.360 -0.2130 -0.6049  0.4363
18344TIP3    H176447   6.193   0.847   4.450 -0.4071 -0.6528  0.3900
18344TIP3    H276448   6.159   0.956   4.351 -0.0714 -0.5222  0.4192
18345TIP3   OH276449   4.082   3.811  14.374 -0.2251 -0.4459 -0.2872
18345TIP3    H176450   4.144   3.792  14.304  0.1371 -1.0012  0.1770
18345TIP3    H276451   4.127   3.874  14.431  0.5498 -1.9720  0.8755
18346TIP3   OH276452   2.508   4.079   2.277 -0.2878 -0.0099 -0.1405
18346TIP3    H176453   2.594   4.037   2.275 -1.0012 -1.6044  0.7555
18346TIP3    H276454   2.495   4.111   2.188  0.5874 -1.1012 -0.6901
18347TIP3   OH276455   4.503   2.605   0.276  0.0501  0.0156  0.0996
18347TIP3    H176456   4.506   2.696   0.246  2.3878  0.5392  1.6078
18347TIP3    H276457   4.569   2.560   0.224 -1.4288 -0.9833 -0.9731
18348TIP3   OH276458   4.957   3.538  12.266  0.0386 -0.0867  0.2675
18348TIP3    H176459   5.038   3.589  12.265 -0.5355  0.8268 -0.2491
18348TIP3    H276460   4.945   3.510  12.175 -0.1846 -0.2941  0.3580
18349TIP3   OH276461   0.470   6.470  13.249 -0.0654 -0.4056 -0.8746
18349TIP3    H176462   0.406   6.541  13.251  0.0669 -0.1820 -2.8378
18349TIP3    H276463   0.432   6.401  13.304  0.3276  1.5191  2.0484
18350TIP3   OH276464   4.832   1.624  15.314 -0.4226  0.6642 -0.2860
18350TIP3    H176465   4.881   1.545  15.292 -2.0217 -0.6389  0.5491
18350TIP3    H276466   4.848   1.685  15.242  1.4769 -0.1171 -0.5555
18351TIP3   OH276467   5.581   4.259  16.026  0.5099 -0.4209 -0.8053
18351TIP3    H176468   5.623   4.251  15.941 -1.5845 -0.7179 -1.8675
18351TIP3    H276469   5.522   4.183  16.031  0.0231  0.0192  0.5685
18352TIP3   OH276470   2.162   4.584  11.044 -0.4896  0.5354  0.1563
18352TIP3    H176471   2.202   4.502  11.017 -1.2810  0.5199 -1.0256
18352TIP3    H276472   2.129   4.623  10.964 -2.0069  0.9890  0.9578
18353TIP3   OH276473   6.301   4.075  12.401 -0.2967 -0.5305  0.3483
18353TIP3    H176474   6.284   4.156  12.353 -1.2188 -1.1274 -0.3725
18353TIP3    H276475   6.392   4.054  12.381 -0.1605  0.1277  0.2491
18354TIP3   OH276476   2.155   5.814  15.496  0.2769 -0.3968 -0.0949
18354TIP3    H176477   2.119   5.726  15.503 -4.5149  1.2801  0.2174
18354TIP3    H276478   2.152   5.834  15.403  0.6494 -0.2863 -0.0853
18355TIP3   OH276479   2.019   1.388  15.212  0.3330 -0.2929 -0.3586
18355TIP3    H176480   1.966   1.399  15.133  0.8588 -1.6764 -0.9397
18355TIP3    H276481   1.956   1.390  15.284 -0.0768  1.6438 -0.7400
18356TIP3   OH276482   6.378   2.553   6.711 -0.1287 -0.2983  0.4163
18356TIP3    H176483   6.364   2.472   6.761  1.0896 -0.3007  0.7759
18356TIP3    H276484   6.455   2.535   6.658  0.0972  0.6013  0.4327
18357TIP3   OH276485   1.771   6.193   5.382  0.0599  0.2823  0.2848
18357TIP3    H176486   1.688   6.161   5.416  1.0789  0.0268  2.7415
18357TIP3    H276487   1.780   6.281   5.418  0.6505  0.4912 -0.3504
18358TIP3   OH276488   3.962   6.781   2.383 -0.4952  0.5941 -0.0961
18358TIP3    H176489   4.056   6.763   2.390 -0.2168  2.3255  1.5320
18358TIP3    H276490   3.951   6.817   2.295  0.6970  1.8123  0.2093
18359TIP3   OH276491   2.501   4.691   0.751  0.2585  0.0514  0.8328
18359TIP3    H176492   2.426   4.721   0.699 -0.1947 -1.0079  0.8469
18359TIP3    H276493   2.464   4.627   0.811  1.2031 -0.5983  0.7428
18360TIP3   OH276494   0.656   6.737  15.533 -0.0950 -0.2346 -0.5467
18360TIP3    H176495   0.706   6.808  15.492  0.6210 -0.5648 -0.2572
18360TIP3    H276496   0.565   6.766  15.526  0.3052  2.4929  2.8031
18361TIP3   OH276497   2.181   0.963  11.563  0.1750 -0.5093  0.1840
18361TIP3    H176498   2.102   0.908  11.564  0.3637 -0.8478 -0.9666
18361TIP3    H276499   2.204   0.968  11.470 -0.0407  1.8358  0.2161
18362TIP3   OH276500   0.687   5.735   4.305 -0.0585 -0.2343  0.0555
18362TIP3    H176501   0.687   5.672   4.233 -1.3695 -2.2391  1.7065
18362TIP3    H276502   0.607   5.787   4.291 -0.3557 -0.6731  0.1217
18363TIP3   OH276503   4.377   1.718   5.961  0.2418 -0.2449 -0.1985
18363TIP3    H176504   4.461   1.764   5.959 -0.2041  0.7291  1.5922
18363TIP3    H276505   4.368   1.686   6.051 -1.0837 -0.7875 -0.4859
18364TIP3   OH276506   5.920   3.767   4.320  0.0645  1.1485  0.6524
18364TIP3    H176507   5.857   3.787   4.389  0.4128  0.2915  1.2433
18364TIP3    H276508   5.897   3.827   4.248 -1.7206  0.5387  0.6568
18365TIP3   OH276509   6.017   6.650  15.465 -0.1131 -0.0337  0.1674
18365TIP3    H176510   6.064   6.674  15.544 -0.6461  1.4714  0.0636
18365TIP3    H276511   6.085   6.634  15.400  0.2969  0.0171  0.5815
18366TIP3   OH276512   1.628   3.868  15.763 -0.5325  0.2453  0.0180
18366TIP3    H176513   1.718   3.894  15.784 -0.5601 -0.7759  1.5430
18366TIP3    H276514   1.575   3.942  15.790 -0.3181 -0.0108  1.2068
18367TIP3   OH276515   4.775   0.846   2.928 -0.1183  0.2136 -0.2677
18367TIP3    H176516   4.864   0.835   2.895 -0.5528 -0.2694 -1.3506
18367TIP3    H276517   4.768   0.939   2.948  0.8512  0.1268  0.5267
18368TIP3   OH276518   1.731   6.039  15.919  0.1518 -0.0610 -0.3972
18368TIP3    H176519   1.787   5.961  15.925 -1.4284 -1.2882 -0.8992
18368TIP3    H276520   1.746   6.085  16.001 -0.1110 -1.7852  0.6751
18369TIP3   OH276521   6.658   1.647  16.366 -0.8816  0.0852 -0.5255
18369TIP3    H176522   6.581   1.598  16.338 -1.1062  0.9860 -1.5486
18369TIP3    H276523   6.731   1.604  16.321 -1.0725  0.6431 -1.3874
18370TIP3   OH276524   6.283   4.895  15.938  0.2906  0.0817 -0.2866
18370TIP3    H176525   6.272   4.845  16.019  0.0626 -2.0638 -1.5517
18370TIP3    H276526   6.206   4.951  15.933  0.2793  0.2019  0.9437
18371TIP3   OH276527   2.049   3.632  12.939 -0.2757  0.1681 -0.3871
18371TIP3    H176528   1.989   3.654  12.867  0.9285 -1.2504 -1.9116
18371TIP3    H276529   2.131   3.674  12.914  0.8889 -2.4383 -1.2279
18372TIP3   OH276530   1.988   0.275  12.161 -0.2235 -0.5098  0.0359
18372TIP3    H176531   1.955   0.203  12.215 -1.8371 -0.8080 -1.2700
18372TIP3    H276532   1.938   0.268  12.080  1.5776  0.3969 -1.2058
18373TIP3   OH276533   6.304   1.436   0.753  0.5557  0.3610  0.3941
18373TIP3    H176534   6.253   1.493   0.696 -1.0538 -1.8375 -0.5329
18373TIP3    H276535   6.331   1.492   0.826 -2.4543  1.9060  0.4953
18374TIP3   OH276536   6.495   1.558   0.389 -0.1020  0.8804  0.2024
18374TIP3    H176537   6.565   1.502   0.421 -1.4739 -0.7757  0.4306
18374TIP3    H276538   6.526   1.647   0.406  1.2259  0.1613  1.7993
18375TIP3   OH276539   2.359   1.229   3.053  0.0803  0.3685 -0.4257
18375TIP3    H176540   2.444   1.240   3.011  0.4805  0.7087  0.4560
18375TIP3    H276541   2.335   1.316   3.084 -0.4035  0.1996 -0.3044
18376TIP3   OH276542   5.221   0.929  16.721  0.4349 -0.3971 -0.2504
18376TIP3    H176543   5.224   1.024  16.726 -0.6297 -0.4155  2.8039
18376TIP3    H276544   5.312   0.903  16.707  0.5656  1.0310 -2.5346
18377TIP3   OH276545   1.498   0.951   3.643 -0.4603 -0.2416  0.4703
18377TIP3    H176546   1.573   0.910   3.686 -0.9429 -1.7096 -0.0206
18377TIP3    H276547   1.481   1.030   3.694  1.5062  0.2163  0.4915
18378TIP3   OH276548   5.220   6.192  11.974  0.0069  0.6691 -0.2532
18378TIP3    H176549   5.297   6.154  12.015 -0.2735  0.2815 -0.0840
18378TIP3    H276550   5.255   6.244  11.901  0.3772 -0.0651 -0.6086
18379TIP3   OH276551   5.586   4.648   3.947 -0.7654  0.3585 -0.3120
18379TIP3    H176552   5.517   4.609   4.001  0.3608 -0.5431  0.5333
18379TIP3    H276553   5.627   4.713   4.005  1.1188 -1.3268  0.3758
18380TIP3   OH276554   1.258   3.996  14.714 -0.6910  0.6420 -0.2411
18380TIP3    H176555   1.292   3.952  14.793  2.0071 -0.0544 -1.6731
18380TIP3    H276556   1.238   4.085  14.744 -1.4532 -0.0815  1.5906
18381TIP3   OH276557   5.845   4.768  12.783 -0.2361  0.3966 -0.0055
18381TIP3    H176558   5.826   4.706  12.713 -3.9870  0.4293  0.7488
18381TIP3    H276559   5.795   4.735  12.858  0.8800  2.1865  1.6156
18382TIP3   OH276560   1.957   4.169  12.068 -0.2830  0.2729  0.1540
18382TIP3    H176561   1.942   4.172  12.162  2.4399  0.2629  0.6763
18382TIP3    H276562   2.028   4.106  12.057  1.3042  2.2271 -1.6026
18383TIP3   OH276563   2.120   6.631   4.121 -0.0765  0.2192 -0.0535
18383TIP3    H176564   2.086   6.706   4.171 -0.8281  0.3333 -0.7136
18383TIP3    H276565   2.062   6.559   4.145  1.0963 -0.3549  1.1480
18384TIP3   OH276566   5.063   0.458   4.120  0.4008 -0.4446  0.1105
18384TIP3    H176567   5.107   0.445   4.204  0.2023 -1.2728  0.0964
18384TIP3    H276568   5.044   0.369   4.089  1.6720 -0.2204 -1.4539
18385TIP3   OH276569   1.526   5.161  12.536  0.0636 -0.4456  0.6597
18385TIP3    H176570   1.431   5.152  12.529 -0.1479  0.2896  2.1250
18385TIP3    H276571   1.551   5.213  12.460 -0.9171  0.6080  1.0382
18386TIP3   OH276572   0.674   6.252   3.261 -0.0943 -0.1923 -0.0601
18386TIP3    H176573   0.610   6.309   3.304 -0.3770  0.6078 -1.5087
18386TIP3    H276574   0.759   6.286   3.289 -0.2559 -1.0217  1.5621
18387TIP3   OH276575   6.273   2.476   0.935 -0.3536  0.7445  0.1729
18387TIP3    H176576   6.357   2.473   0.981 -0.0099  1.5638 -0.3857
18387TIP3    H276577   6.277   2.556   0.883 -1.6437  0.9936  0.4288
18388TIP3   OH276578   5.796   2.246  14.388  0.4564  0.1866  0.3359
18388TIP3    H176579   5.814   2.306  14.460 -0.7748  1.0473 -0.0398
18388TIP3    H276580   5.864   2.266  14.323  2.3276 -1.4408  1.6894
18389TIP3   OH276581   6.082   6.002  16.063  0.3852  0.1418 -0.6802
18389TIP3    H176582   6.051   6.087  16.093 -0.1339 -0.1630 -0.3212
18389TIP3    H276583   6.069   5.944  16.139 -0.4792 -0.5336 -1.3133
18390TIP3   OH276584   5.783   4.848   4.889  1.0031 -0.6133 -0.1952
18390TIP3    H176585   5.807   4.758   4.907 -1.6931 -1.1495  1.3573
18390TIP3    H276586   5.802   4.895   4.971  0.2864 -0.2942 -0.1987
18391TIP3   OH276587   1.381   5.816   3.887  0.0032  0.3728  0.8087
18391TIP3    H176588   1.415   5.848   3.804 -1.3314  2.2804  0.9274
18391TIP3    H276589   1.455   5.771   3.928  1.2181  1.0282 -0.5808
18392TIP3   OH276590   2.784   2.888  14.868 -0.1497 -0.1100  0.0738
18392TIP3    H176591   2.775   2.838  14.787 -0.6694  1.1578 -0.6748
18392TIP3    H276592   2.695   2.895  14.902 -0.1156  0.5369  0.0319
18393TIP3   OH276593   4.255   6.620   6.177 -0.2946  0.1871  0.2061
18393TIP3    H176594   4.201   6.545   6.149 -0.7106  0.7563 -0.5421
18393TIP3    H276595   4.312   6.584   6.245 -0.9071 -0.6742  0.2851
18394TIP3   OH276596   3.922   6.228   3.396  0.2637 -0.0241 -0.3036
18394TIP3    H176597   3.879   6.147   3.422  1.9630 -0.2911  1.9010
18394TIP3    H276598   3.869   6.298   3.434  1.1986 -0.3237  1.6648
18395TIP3   OH276599   5.473   3.470   2.113  0.1923 -0.0414  0.0543
18395TIP3    H176600   5.428   3.549   2.145 -0.2509 -0.6783  1.0480
18395TIP3    H276601   5.541   3.453   2.178 -0.2044 -0.9122  0.2527
18396TIP3   OH276602   2.219   4.771   5.030 -0.1057 -0.0429  0.4960
18396TIP3    H176603   2.208   4.698   5.092  1.3457  0.9734  2.0569
18396TIP3    H276604   2.181   4.846   5.076  2.2763  1.0263  0.8614
18397TIP3   OH276605   3.614   6.131   3.174  0.0860 -0.1153  0.0785
18397TIP3    H176606   3.597   6.066   3.242 -0.7079 -1.0206 -0.9621
18397TIP3    H276607   3.577   6.212   3.209 -0.1742 -0.5324  0.7950
18398TIP3   OH276608   0.165   4.205  16.947  0.3862 -0.8043  0.0626
18398TIP3    H176609   0.255   4.175  16.956  0.4870 -0.4390  0.2887
18398TIP3    H276610   0.112   4.125  16.952  0.8315 -1.4122 -2.8703
18399TIP3   OH276611   5.123   2.564  16.945  0.1386  0.1825 -0.1100
18399TIP3    H176612   5.040   2.582  16.902  0.6381  2.5015 -0.2137
18399TIP3    H276613   5.159   2.489  16.898 -1.2430  0.0441 -0.9715
18400TIP3   OH276614   0.913   5.048   5.522  0.3590 -0.7787  0.4582
18400TIP3    H176615   0.966   4.975   5.492  3.8121  0.7954  2.1043
18400TIP3    H276616   0.900   5.032   5.616  2.2291  1.1652  1.1223
18401TIP3   OH276617   0.982   3.396   2.501  0.3213  0.2834 -0.4300
18401TIP3    H176618   1.039   3.458   2.548 -0.9253  1.4168 -0.3425
18401TIP3    H276619   0.893   3.427   2.519 -0.2848 -0.7660 -1.4764
18402TIP3   OH276620   1.604   2.272   1.619 -0.1869 -0.2432  0.2017
18402TIP3    H176621   1.663   2.198   1.607 -0.2973 -0.1371 -1.0689
18402TIP3    H276622   1.653   2.331   1.677 -1.2975 -2.5833  3.8525
18403TIP3   OH276623   2.114   3.426   3.811  0.5892  0.5733  0.4846
18403TIP3    H176624   2.098   3.488   3.882 -1.2173 -0.3968  0.9830
18403TIP3    H276625   2.073   3.467   3.734 -0.7048 -0.0183  0.8385
18404TIP3   OH276626   4.514   5.200  11.676  0.1815 -0.2768  0.4710
18404TIP3    H176627   4.426   5.164  11.690 -0.1888  0.5924  0.4360
18404TIP3    H276628   4.568   5.124  11.657 -0.5230 -0.8471  0.6953
18405TIP3   OH276629   4.325   0.301   2.803  0.1589  0.4265  0.0184
18405TIP3    H176630   4.359   0.280   2.889 -1.6638  0.3499  0.7659
18405TIP3    H276631   4.241   0.255   2.798 -1.1706  2.7266 -0.5971
18406TIP3   OH276632   6.488   0.048  11.661 -0.0132 -0.3779  0.4357
18406TIP3    H176633   6.523   0.099  11.588 -1.7832  2.1572  1.2414
18406TIP3    H276634   6.427  -0.014  11.620 -1.6259  1.5798 -0.2463
18407TIP3   OH276635   3.342   5.868  10.744 -0.1618 -0.1749  0.3268
18407TIP3    H176636   3.330   5.959  10.719  0.5286 -0.3178 -0.5914
18407TIP3    H276637   3.257   5.839  10.776 -0.1540  1.0522  1.5362
18408TIP3   OH276638   2.394   3.576  13.078 -0.1742  0.0311  0.3765
18408TIP3    H176639   2.379   3.644  13.013 -0.3653  0.7241  1.1319
18408TIP3    H276640   2.485   3.589  13.105 -0.4448  0.5017  1.0918
18409TIP3   OH276641   3.577   1.523  15.563  0.0212 -0.9416  0.1521
18409TIP3    H176642   3.542   1.478  15.486 -1.7335  0.4526  0.0858
18409TIP3    H276643   3.530   1.606  15.566  0.4857 -0.7019  2.3840
18410TIP3   OH276644   4.058   2.970  15.028  0.4799 -0.1890 -0.0136
18410TIP3    H176645   4.113   2.893  15.009 -0.4716 -0.7461 -0.5471
18410TIP3    H276646   4.075   3.030  14.955  1.0646  0.0248  0.2936
18411TIP3   OH276647   2.219   2.849  12.457  0.1114  0.7881  0.0535
18411TIP3    H176648   2.149   2.841  12.521 -0.1302  0.7650 -0.2119
18411TIP3    H276649   2.225   2.762  12.417  1.1215  0.4270  0.9256
18412TIP3   OH276650   3.468   0.787  15.844  0.0393 -0.4127  0.2082
18412TIP3    H176651   3.436   0.765  15.756 -0.9093  0.5467  0.2946
18412TIP3    H276652   3.447   0.710  15.897 -0.1185 -0.6697 -0.2239
18413TIP3   OH276653   1.364   1.730  14.409  0.5600 -0.1576  0.0588
18413TIP3    H176654   1.422   1.786  14.358  0.2323 -0.8293 -1.1034
18413TIP3    H276655   1.409   1.645  14.410  0.3921 -0.2431  0.6057
18414TIP3   OH276656   0.422   1.553  14.185  0.1777 -0.1557  0.2085
18414TIP3    H176657   0.390   1.644  14.185  0.0843 -0.1848  0.8621
18414TIP3    H276658   0.505   1.557  14.232  0.4869 -0.3079 -0.3184
18415TIP3   OH276659   1.804   2.366  12.352  0.4663  0.1105 -0.2338
18415TIP3    H176660   1.858   2.287  12.352 -1.2342 -1.1240  0.9256
18415TIP3    H276661   1.754   2.361  12.270  0.5533  0.1016 -0.2855
18416TIP3   OH276662   0.112   0.539  13.221  0.2699 -0.2109  0.7347
18416TIP3    H176663   0.119   0.458  13.170 -0.5273 -0.3501  0.8397
18416TIP3    H276664   0.195   0.545  13.268 -0.2580 -1.8088  1.9465
18417TIP3   OH276665   2.419   5.490   4.818 -1.0638 -0.0352  0.0703
18417TIP3    H176666   2.504   5.525   4.847 -0.2770 -1.2505 -0.6512
18417TIP3    H276667   2.433   5.395   4.813 -1.9123 -0.1073 -1.7721
18418TIP3   OH276668   3.221   3.593  14.751  0.4279  0.7040  0.1086
18418TIP3    H176669   3.157   3.642  14.700 -0.0056  0.2212  0.1767
18418TIP3    H276670   3.190   3.503  14.747  3.2516 -0.3277 -3.2475
18419TIP3   OH276671   4.228   1.871   5.771  0.1339 -0.1071 -0.3121
18419TIP3    H176672   4.291   1.840   5.836 -0.7581 -1.1787  0.0620
18419TIP3    H276673   4.272   1.859   5.687  0.3821 -0.9811 -0.0637
18420TIP3   OH276674   5.076   0.334  12.029 -0.2636  0.1158  0.0647
18420TIP3    H176675   4.985   0.325  11.999 -0.2785  0.0425  0.1301
18420TIP3    H276676   5.072   0.317  12.123 -0.3382  1.1543  0.2614
18421TIP3   OH276677   3.614   3.608  11.118  0.2105 -0.1727 -0.6478
18421TIP3    H176678   3.683   3.549  11.148 -0.0083 -0.7867 -1.3391
18421TIP3    H276679   3.640   3.694  11.151  1.1706 -0.4417 -0.6848
18422TIP3   OH276680   5.606   5.963  13.231  0.9619  0.2451 -0.3565
18422TIP3    H176681   5.651   5.879  13.240 -0.8954 -0.8490 -0.6957
18422TIP3    H276682   5.557   5.973  13.313  0.0093  0.2542 -0.9112
18423TIP3   OH276683   0.433   1.655   3.399  0.6443  0.5955  0.8745
18423TIP3    H176684   0.484   1.720   3.448  0.4543 -0.0416  1.9414
18423TIP3    H276685   0.452   1.572   3.441 -0.7886  0.2503  0.9122
18424TIP3   OH276686   3.074   2.411  15.441  0.0643 -0.0760 -0.1811
18424TIP3    H176687   2.990   2.405  15.395 -0.3815  1.0524  0.4747
18424TIP3    H276688   3.123   2.477  15.392 -0.2749  0.8664  0.7371
18425TIP3   OH276689   4.151   3.429   0.242  0.2332  0.4407 -0.4422
18425TIP3    H176690   4.056   3.424   0.239  0.0505  2.6915  0.0746
18425TIP3    H276691   4.181   3.350   0.197 -1.8476 -0.7478  0.1339
18426TIP3   OH276692   6.173   2.239  17.107  0.5916  0.3893 -0.0755
18426TIP3    H176693   6.184   2.257  17.200 -0.3280 -0.3365  0.1914
18426TIP3    H276694   6.084   2.204  17.100  0.7076  0.2880 -1.2027
18427TIP3   OH276695   1.062   0.978   4.117 -0.1665 -0.0262 -0.1834
18427TIP3    H176696   1.006   1.052   4.092 -0.3435  0.2271  0.9258
18427TIP3    H276697   1.041   0.910   4.053 -1.7157  0.0854  0.1679
18428TIP3   OH276698   1.788   1.999  15.119 -0.0573 -0.0694  0.1745
18428TIP3    H176699   1.765   1.910  15.145 -0.0634  0.9908  4.6629
18428TIP3    H276700   1.883   2.001  15.122 -0.0835  0.2978  1.2941
18429TIP3   OH276701   3.046   3.965   1.368 -0.7148 -0.6034  0.4425
18429TIP3    H176702   3.110   3.988   1.436  0.2648  0.4420 -0.7816
18429TIP3    H276703   3.049   3.870   1.364  0.1555 -0.6140  0.9830
18430TIP3   OH276704   6.057   4.399  15.592  0.0386  0.0168  0.1689
18430TIP3    H176705   6.012   4.369  15.514  0.1837  0.6715 -0.1732
18430TIP3    H276706   5.999   4.377  15.664 -1.0956  1.3167 -0.3031
18431TIP3   OH276707   4.303   5.346  14.117 -0.4160 -0.1585  0.2989
18431TIP3    H176708   4.330   5.433  14.089 -1.9444 -0.2143 -1.5349
18431TIP3    H276709   4.373   5.288  14.086 -1.1305  0.0241 -1.7845
18432TIP3   OH276710   5.277   0.281  14.694  0.7162  0.4707 -0.2026
18432TIP3    H176711   5.187   0.311  14.703  1.0338  1.2831  0.3442
18432TIP3    H276712   5.300   0.246  14.781  1.0260  0.5630 -0.2442
18433TIP3   OH276713   1.956   1.929   0.487  0.2836 -0.9069 -0.2638
18433TIP3    H176714   1.901   1.984   0.431 -1.3432 -2.4462 -0.2798
18433TIP3    H276715   2.037   1.978   0.497 -2.1243  3.1396  2.4707
18434TIP3   OH276716   5.655   1.217  13.583 -0.4733 -0.6409  0.1707
18434TIP3    H176717   5.741   1.252  13.557 -0.2728 -1.3535 -0.1451
18434TIP3    H276718   5.632   1.267  13.661 -1.2250  1.7625 -1.4528
18435TIP3   OH276719   6.748   0.087   5.149  0.2360 -0.6721  0.3991
18435TIP3    H176720   6.678   0.117   5.091  0.9266 -0.3825 -0.2935
18435TIP3    H276721   6.708   0.015   5.199 -0.5675 -0.4786  0.0485
18436TIP3   OH276722   6.312   2.726  12.364  0.2951  0.1350  0.2751
18436TIP3    H176723   6.375   2.694  12.300  0.9451  0.5440  0.6964
18436TIP3    H276724   6.252   2.781  12.313  0.0197 -0.5818 -0.1958
18437TIP3   OH276725   6.174   4.350   6.103  0.6079 -0.6377 -0.2009
18437TIP3    H176726   6.157   4.320   6.192  1.6520 -2.0490 -0.4334
18437TIP3    H276727   6.269   4.339   6.091  0.6904  0.7612 -1.0580
18438TIP3   OH276728   1.725   0.795   3.729  0.4261 -0.6938 -0.1597
18438TIP3    H176729   1.791   0.798   3.660  0.2222  0.1860 -0.3285
18438TIP3    H276730   1.775   0.781   3.810  0.5838 -2.9309 -0.5660
18439TIP3   OH276731   2.857   2.129   3.885 -0.8733 -0.2498 -0.0720
18439TIP3    H176732   2.815   2.104   3.803 -0.6874  1.9790 -0.9046
18439TIP3    H276733   2.786   2.161   3.940 -1.1936 -2.9144  1.1977
18440TIP3   OH276734   0.354   5.345   5.128  0.2429  0.0581 -0.1530
18440TIP3    H176735   0.261   5.350   5.107 -0.1046  0.7263  1.4005
18440TIP3    H276736   0.369   5.417   5.189  1.4318 -0.9586  0.8143
18441TIP3   OH276737   5.585   2.681   6.023  0.5032 -0.0479  0.1164
18441TIP3    H176738   5.674   2.645   6.025  0.5528  0.0625 -0.1482
18441TIP3    H276739   5.544   2.645   6.102  0.7153 -0.2702  0.1282
18442TIP3   OH276740   4.817   3.010   2.859  0.1869  0.3165  0.4493
18442TIP3    H176741   4.887   3.037   2.800  1.4362 -0.8482  1.3279
18442TIP3    H276742   4.736   3.036   2.815  1.0835 -0.1002 -1.5434
18443TIP3   OH276743   2.930   3.483   2.134 -0.1985 -0.5374  0.3795
18443TIP3    H176744   2.882   3.470   2.216 -0.2972 -1.7228  0.1527
18443TIP3    H276745   2.985   3.405   2.126  0.2667 -0.1379 -0.3782
18444TIP3   OH276746   2.688   5.402  16.252  0.7666  0.0492  0.5664
18444TIP3    H176747   2.733   5.486  16.247 -0.3417  0.5862 -1.1525
18444TIP3    H276748   2.739   5.344  16.195  0.2166  0.2132 -0.1017
18445TIP3   OH276749   6.407   4.247  11.289  0.2980  0.5179 -0.2227
18445TIP3    H176750   6.486   4.287  11.254  1.2592 -0.8226  0.3278
18445TIP3    H276751   6.435   4.160  11.319 -1.6799 -0.5840 -1.3348
18446TIP3   OH276752   5.460   6.490   3.854  0.1352 -0.1979 -0.0750
18446TIP3    H176753   5.488   6.456   3.939  1.1151  1.4052  0.2765
18446TIP3    H276754   5.431   6.412   3.806  0.9364 -1.3327  1.1975
18447TIP3   OH276755   3.018   6.075  12.282 -0.3115  0.4354  0.3457
18447TIP3    H176756   2.923   6.061  12.279 -0.3744  0.8650  0.2438
18447TIP3    H276757   3.052   5.997  12.326 -0.8252  0.7519  1.3502
18448TIP3   OH276758   3.813   2.516  14.724 -0.0841  0.0270  0.0391
18448TIP3    H176759   3.846   2.443  14.671  0.1886  0.2617 -0.1188
18448TIP3    H276760   3.718   2.513  14.713 -0.1277 -0.6695  0.5086
18449TIP3   OH276761   6.481   6.443   4.186  0.2014  0.5607 -0.8301
18449TIP3    H176762   6.570   6.467   4.160  0.1655 -0.0110 -1.5044
18449TIP3    H276763   6.493   6.371   4.248  0.1827 -0.5035 -2.0191
18450TIP3   OH276764   5.666   1.797  15.475  0.1479  0.1892  0.5117
18450TIP3    H176765   5.704   1.709  15.480  0.0452  0.1424  0.4844
18450TIP3    H276766   5.588   1.792  15.531  0.5420  0.4716  1.1013
18451TIP3   OH276767   5.936   2.588  15.822 -0.6201 -0.3916 -0.1419
18451TIP3    H176768   5.883   2.658  15.782  0.8181  0.1962 -1.0976
18451TIP3    H276769   6.023   2.599  15.784 -0.0171 -1.8886  0.7160
18452TIP3   OH276770   4.900   1.437   2.586 -0.2189 -0.5585  0.5837
18452TIP3    H176771   4.946   1.510   2.629  0.6795 -1.0649  0.5030
18452TIP3    H276772   4.939   1.359   2.625  0.4891 -1.0331 -1.0205
18453TIP3   OH276773   3.476   2.142   4.218 -0.4296  0.1721 -0.1177
18453TIP3    H176774   3.413   2.133   4.290  0.6597 -1.1934  0.7114
18453TIP3    H276775   3.556   2.172   4.261  0.0777 -0.1174 -0.8475
18454TIP3   OH276776   1.849   5.100   6.176  0.2869  0.6925 -0.5796
18454TIP3    H176777   1.932   5.088   6.130 -0.3812 -0.2855 -1.5733
18454TIP3    H276778   1.875   5.114   6.267  1.5850  1.5775 -1.0547
18455TIP3   OH276779   0.075   2.589   5.508  0.7111  0.1083 -0.5021
18455TIP3    H176780   0.152   2.619   5.554 -0.6139 -0.7123  2.4874
18455TIP3    H276781   0.025   2.669   5.489  0.9060  0.4152  0.2531
18456TIP3   OH276782   3.200   5.780   3.632 -0.6472 -0.3290  0.1158
18456TIP3    H176783   3.277   5.807   3.582  0.2476 -0.2756  1.4745
18456TIP3    H276784   3.156   5.717   3.576 -0.0870  0.2772 -1.0469
18457TIP3   OH276785   3.420   6.539   5.672 -0.2896 -0.4459 -0.3672
18457TIP3    H176786   3.324   6.548   5.676 -0.1785  1.3047  3.4940
18457TIP3    H276787   3.448   6.609   5.614 -1.3056  0.4380  0.1683
18458TIP3   OH276788   6.591   1.818   3.877  0.0897 -1.3084  0.0283
18458TIP3    H176789   6.566   1.883   3.942 -0.8688 -2.4089  0.7947
18458TIP3    H276790   6.515   1.760   3.869  0.8349 -2.2219 -0.7775
18459TIP3   OH276791   0.380   2.204  11.374 -0.4159 -0.2661  0.5858
18459TIP3    H176792   0.335   2.245  11.299 -0.4679  0.1664  0.8489
18459TIP3    H276793   0.458   2.164  11.335 -0.3244  0.1476  0.3269
18460TIP3   OH276794   6.006   6.000  11.086  0.0145  0.1652 -0.1946
18460TIP3    H176795   5.983   6.092  11.074  1.4420  0.4926 -0.6497
18460TIP3    H276796   6.101   6.001  11.101  0.3149 -1.3454 -1.7071
18461TIP3   OH276797   0.024   0.053   1.628  0.0086 -0.4156 -0.9018
18461TIP3    H176798   0.032   0.147   1.610  1.5126 -0.5029 -0.7575
18461TIP3    H276799  -0.071   0.039   1.636 -0.1847  1.3134  0.3331
18462TIP3   OH276800   1.485   6.556  15.574  0.0524  0.1619 -0.0632
18462TIP3    H176801   1.515   6.466  15.559 -0.0666 -0.0867  1.0690
18462TIP3    H276802   1.439   6.580  15.493 -0.3536 -0.9864 -0.1932
18463TIP3   OH276803   0.945   0.516   4.241  0.6059  0.1484 -0.2715
18463TIP3    H176804   0.981   0.489   4.156  1.0454 -0.7778  0.1987
18463TIP3    H276805   0.870   0.570   4.218  0.9716  0.2760 -1.2586
18464TIP3   OH276806   4.537   2.230   0.685 -0.3303 -0.7062  0.5530
18464TIP3    H176807   4.554   2.145   0.726  1.6156 -1.0707 -0.8468
18464TIP3    H276808   4.481   2.211   0.610 -0.6897 -0.5966  0.7898
18465TIP3   OH276809   4.681   4.355   0.697  0.1874  0.2272 -0.2832
18465TIP3    H176810   4.626   4.340   0.619  0.2855  0.2068 -0.3490
18465TIP3    H276811   4.639   4.427   0.743 -0.9787 -1.0059  0.6665
18466TIP3   OH276812   0.566   3.119  14.423  0.4701 -0.3803 -0.3237
18466TIP3    H176813   0.485   3.107  14.473  0.5027  0.1211 -0.1449
18466TIP3    H276814   0.605   3.199  14.459  0.7022 -0.2413 -0.8691
18467TIP3   OH276815   2.757   0.867   6.013  0.3862 -0.4125  0.2157
18467TIP3    H176816   2.765   0.932   6.084  2.6285  0.5685 -0.8442
18467TIP3    H276817   2.818   0.797   6.038 -1.0187 -1.5147  0.6725
18468TIP3   OH276818   1.879   2.886   2.723  0.4669  0.1614  0.1751
18468TIP3    H176819   1.883   2.807   2.777  2.6262 -0.0899 -0.2421
18468TIP3    H276820   1.934   2.950   2.769  0.0756  0.8710 -0.3196
18469TIP3   OH276821   0.655   6.505  15.688  0.3395  0.0829  0.1705
18469TIP3    H176822   0.662   6.537  15.778  2.4134 -1.0047  0.4638
18469TIP3    H276823   0.667   6.582  15.634 -2.2206  0.9813  0.7496
18470TIP3   OH276824   1.200   2.851  16.545 -0.1559  0.7177  0.9105
18470TIP3    H176825   1.146   2.857  16.624 -0.5798 -0.4324  0.7257
18470TIP3    H276826   1.247   2.934  16.542 -0.7790  1.1262  1.9037
18471TIP3   OH276827   5.193   5.007   5.819 -0.4638 -0.0097  0.0722
18471TIP3    H176828   5.221   5.034   5.732  0.8531 -0.5283  0.3224
18471TIP3    H276829   5.106   5.046   5.829 -0.5078  0.3088 -1.3443
18472TIP3   OH276830   2.387   0.847   4.939  0.6328 -0.1612  0.3164
18472TIP3    H176831   2.477   0.865   4.967  1.1494 -0.6639 -0.9346
18472TIP3    H276832   2.357   0.931   4.902  1.2765 -0.4730 -0.9756
18473TIP3   OH276833   3.000   1.148  13.936 -0.1307 -0.1369 -0.2466
18473TIP3    H176834   3.023   1.132  14.027 -1.6568 -0.9053  0.0244
18473TIP3    H276835   2.979   1.062  13.900  0.0405  0.2055 -1.2147
18474TIP3   OH276836   3.708   4.487   4.970  0.0681  0.3823 -0.6585
18474TIP3    H176837   3.760   4.435   4.909 -0.2806  0.0243 -0.6536
18474TIP3    H276838   3.652   4.424   5.014 -1.3467  0.9129 -1.6123
18475TIP3   OH276839   6.329   2.513  13.753 -0.4695  0.0894  0.0727
18475TIP3    H176840   6.311   2.431  13.799 -0.8105 -0.5737 -1.1989
18475TIP3    H276841   6.252   2.568  13.770 -0.5414 -0.1088  0.3865
18476TIP3   OH276842   5.332   0.946   3.020  0.0184 -0.4114  0.2067
18476TIP3    H176843   5.305   0.967   3.109  1.4013 -0.9878  0.7796
18476TIP3    H276844   5.353   1.030   2.980  0.0631 -0.2180  0.6383
18477TIP3   OH276845   4.376   3.090  12.893  0.1009  0.2397 -0.2359
18477TIP3    H176846   4.374   3.114  12.801  0.6968 -1.9269 -0.8654
18477TIP3    H276847   4.298   3.037  12.907  0.9195 -0.9409  0.0245
18478TIP3   OH276848   4.912   3.009  14.506 -0.3119  0.3007 -0.2320
18478TIP3    H176849   4.851   2.949  14.549  0.1583  1.2062  1.8519
18478TIP3    H276850   4.999   2.976  14.529 -0.0451  1.1361  0.0145
18479TIP3   OH276851   5.714   4.069   4.541  0.2306 -0.1593  0.1590
18479TIP3    H176852   5.760   4.140   4.496  1.2398 -0.7457  0.2238
18479TIP3    H276853   5.766   4.055   4.621 -0.3736 -0.4848  0.4982
18480TIP3   OH276854   2.338   0.289   2.270 -0.3136  0.1820  0.0783
18480TIP3    H176855   2.322   0.349   2.342 -0.1496 -0.6539  0.8260
18480TIP3    H276856   2.433   0.274   2.272 -0.0638  1.3051 -1.2640
18481TIP3   OH276857   5.777   1.420  13.978  0.0233  0.3458  0.0148
18481TIP3    H176858   5.807   1.351  13.919 -1.7968 -0.0890 -0.4721
18481TIP3    H276859   5.719   1.375  14.040  0.1386  1.1689  0.7443
18482TIP3   OH276860   6.196   5.147   1.271  0.0551 -0.4450  0.6379
18482TIP3    H176861   6.214   5.170   1.362  1.2352  0.7216  0.1407
18482TIP3    H276862   6.120   5.090   1.275 -0.4408  0.2828  2.2873
18483TIP3   OH276863   5.076   3.774  14.006  0.6741  0.3343 -0.7393
18483TIP3    H176864   5.059   3.695  14.058  1.0415  1.5999  1.4151
18483TIP3    H276865   4.990   3.805  13.980  0.4383 -0.0481 -0.4232
18484TIP3   OH276866   3.351   6.303   1.619  0.2095  0.8141 -0.0329
18484TIP3    H176867   3.368   6.329   1.528  0.1601 -2.4181 -1.0963
18484TIP3    H276868   3.437   6.281   1.654  0.5287  3.9869  1.5245
18485TIP3   OH276869   5.122   0.429  15.048 -0.1614 -0.3205  0.0328
18485TIP3    H176870   5.199   0.375  15.035 -0.6111 -0.6888 -1.1967
18485TIP3    H276871   5.064   0.376  15.103  0.4234 -0.0486  0.9459
18486TIP3   OH276872   3.079   4.682  14.746  0.2839  0.7960 -0.7388
18486TIP3    H176873   3.069   4.753  14.809 -1.8088  1.7631 -2.0787
18486TIP3    H276874   3.170   4.654  14.757 -0.1497  0.3487  3.2093
18487TIP3   OH276875   5.864   3.793   0.043 -0.6391 -0.4228 -0.4419
18487TIP3    H176876   5.885   3.844  -0.035 -0.0585 -1.3810 -0.9327
18487TIP3    H276877   5.943   3.741   0.060 -0.5234  0.2136  1.1485
18488TIP3   OH276878   0.971   3.395   3.554 -0.3371 -0.1836 -0.0348
18488TIP3    H176879   1.034   3.410   3.483 -1.3808  1.1029 -0.7305
18488TIP3    H276880   0.983   3.303   3.577  0.4339 -0.4836 -1.4936
18489TIP3   OH276881   3.245   2.463   5.127 -0.1349 -0.3895  0.6643
18489TIP3    H176882   3.274   2.469   5.218 -1.1144 -0.4455  0.9835
18489TIP3    H276883   3.231   2.554   5.101 -0.8016 -0.4284  0.8810
18490TIP3   OH276884   2.477   5.156   0.879 -0.1396  0.1436 -0.1562
18490TIP3    H176885   2.565   5.128   0.906  0.2765  0.3928 -1.2060
18490TIP3    H276886   2.434   5.075   0.851 -0.4917 -0.0802  0.9909
18491TIP3   OH276887   1.602   2.272   4.155 -0.1599  0.0094  0.6162
18491TIP3    H176888   1.519   2.281   4.108  1.1267 -1.6426 -2.2835
18491TIP3    H276889   1.596   2.186   4.197  0.4091 -0.6324 -0.5399
18492TIP3   OH276890   4.443   2.136   0.428 -0.1339 -0.4135 -0.2117
18492TIP3    H176891   4.488   2.159   0.347 -0.8294 -2.0964 -1.1261
18492TIP3    H276892   4.350   2.144   0.407 -0.3214  0.2482  0.7883
18493TIP3   OH276893   0.658   6.106  15.864 -0.0207  0.6672  0.0496
18493TIP3    H176894   0.710   6.050  15.806 -1.8413 -0.8155 -0.2818
18493TIP3    H276895   0.632   6.048  15.936  0.2749  1.8611  1.1604
18494TIP3   OH276896   4.116   1.830  17.126  0.3047 -0.3238  0.0011
18494TIP3    H176897   4.190   1.781  17.162  2.0169  2.8330  1.2033
18494TIP3    H276898   4.103   1.902  17.187 -3.3655 -0.3036 -0.5809
18495TIP3   OH276899   0.580   1.939  12.461 -0.0139  0.2203  0.5576
18495TIP3    H176900   0.543   1.852  12.449 -0.3965  0.4456  0.0604
18495TIP3    H276901   0.561   1.961  12.552  0.4238 -0.3680  0.7959
18496TIP3   OH276902   0.819   3.574  16.163  0.7105  0.2489 -0.2190
18496TIP3    H176903   0.796   3.495  16.115  0.6623  0.5236 -0.6591
18496TIP3    H276904   0.780   3.561  16.250  1.2106 -0.4595 -0.0956
18497TIP3   OH276905   6.215   1.808  11.715 -0.1673  0.3797  0.5007
18497TIP3    H176906   6.284   1.779  11.656  0.1918  0.3123  0.9574
18497TIP3    H276907   6.214   1.903  11.707 -0.5487  0.3301 -0.0950
18498TIP3   OH276908   1.434   3.043   1.737 -0.0039 -0.7522 -0.7086
18498TIP3    H176909   1.364   3.108   1.748  0.8448  0.0548  0.1152
18498TIP3    H276910   1.418   3.006   1.651  0.3676  1.6746 -1.9181
18499TIP3   OH276911   0.137   6.734  12.544 -0.3100 -0.0408  0.1979
18499TIP3    H176912   0.225   6.700  12.531  0.1768  0.2957  2.2531
18499TIP3    H276913   0.104   6.750  12.456  1.3348 -1.0055 -0.6426
18500TIP3   OH276914   1.473   0.902   1.632  0.4608  0.4249  0.3900
18500TIP3    H176915   1.504   0.935   1.547  1.0395 -2.7155 -0.7443
18500TIP3    H276916   1.524   0.951   1.696  2.6231  0.4639 -1.2306
18501TIP3   OH276917   5.113   4.590  13.229 -0.1282  0.4361 -0.0516
18501TIP3    H176918   5.034   4.541  13.253  0.0434  0.5377  0.7261
18501TIP3    H276919   5.184   4.528  13.242 -0.0777  0.3237 -0.8205
18502TIP3   OH276920   5.507   6.424   3.557  0.2078 -0.4058 -0.4103
18502TIP3    H176921   5.454   6.478   3.617 -0.2749  1.3522 -2.3038
18502TIP3    H276922   5.446   6.395   3.490  0.7327 -2.3765 -0.0953
18503TIP3   OH276923   4.738   1.060   5.406 -0.5946 -0.1196 -0.3873
18503TIP3    H176924   4.805   1.048   5.338 -0.1163  1.1956 -0.1656
18503TIP3    H276925   4.696   1.143   5.383 -0.6654  0.1566  0.7266
18504TIP3   OH276926   6.354   5.744  12.884 -0.3692  0.3971  0.2857
18504TIP3    H176927   6.300   5.669  12.906  0.1215 -0.3451 -0.9079
18504TIP3    H276928   6.292   5.814  12.863 -0.9155 -0.5353 -1.3926
18505TIP3   OH276929   2.807   0.343  15.668 -0.1239  0.1280 -0.3897
18505TIP3    H176930   2.715   0.342  15.639 -0.0737  1.8767 -0.7154
18505TIP3    H276931   2.842   0.260  15.637 -1.1992  0.0944 -1.6241
18506TIP3   OH276932   0.060   6.146   5.829  0.0116 -0.1045  0.2555
18506TIP3    H176933   0.109   6.194   5.763  0.7214  1.0633  1.5693
18506TIP3    H276934  -0.032   6.167   5.811  0.1727 -0.0686 -0.5404
18507TIP3   OH276935   1.969   5.954   6.526  0.4865 -0.0720 -0.2128
18507TIP3    H176936   1.960   5.963   6.431  1.4601 -1.0132 -0.4035
18507TIP3    H276937   1.919   5.876   6.548 -0.0284  0.3405  0.1077
18508TIP3   OH276938   2.755   4.272   2.308 -0.0455 -0.0828 -0.0760
18508TIP3    H176939   2.716   4.339   2.365  0.9561 -0.0109  0.5429
18508TIP3    H276940   2.725   4.295   2.220 -0.7549  0.4253  0.2909
18509TIP3   OH276941   1.515   0.346   1.832 -0.5249 -0.2216 -0.3030
18509TIP3    H176942   1.586   0.283   1.842  2.1800  2.3315 -1.6558
18509TIP3    H276943   1.486   0.335   1.741  1.2306  1.5080 -1.1588
18510TIP3   OH276944   2.949   5.378  16.997  0.3215  0.1075  0.3105
18510TIP3    H176945   2.971   5.431  17.074 -2.3328  0.1703  1.1186
18510TIP3    H276946   2.922   5.293  17.033 -0.9990  0.1530 -0.4974
18511TIP3   OH276947   6.063   5.396  12.224 -0.7015  0.1107 -0.4553
18511TIP3    H176948   6.027   5.389  12.135 -0.5918 -0.3748 -0.4643
18511TIP3    H276949   6.106   5.312  12.239  1.2314  0.9861 -0.7777
18512TIP3   OH276950   6.115   1.750  12.020  0.6608 -0.4722  0.1845
18512TIP3    H176951   6.122   1.844  12.004 -2.6083  0.1297  1.4574
18512TIP3    H276952   6.114   1.742  12.115  1.5145 -1.9154  0.1089
18513TIP3   OH276953   3.500   1.015  16.083  0.4457  0.2133  0.0482
18513TIP3    H176954   3.521   0.932  16.041 -0.3270 -1.2115  2.3093
18513TIP3    H276955   3.533   1.081  16.022 -0.0769 -1.6751 -2.4516
18514TIP3   OH276956   4.341   3.004   1.046  0.2590 -0.0119  0.5616
18514TIP3    H176957   4.310   2.979   0.959  1.5789 -0.1506  0.1089
18514TIP3    H276958   4.270   3.058   1.082  0.4307  1.6044 -1.3265
18515TIP3   OH276959   2.743   0.770   4.678 -0.0897  0.0585 -0.4899
18515TIP3    H176960   2.656   0.773   4.638 -0.3534  1.4100  0.1317
18515TIP3    H276961   2.729   0.725   4.762 -0.1438  0.0524 -0.5020
18516TIP3   OH276962   5.751   6.048   1.024  0.2367  0.2036 -0.2230
18516TIP3    H176963   5.833   6.068   0.979  1.2441  1.1233  1.8866
18516TIP3    H276964   5.765   5.962   1.062  1.0057  1.1268  1.6994
18517TIP3   OH276965   4.765   0.128  12.146  0.1325 -0.1738 -0.2443
18517TIP3    H176966   4.743   0.124  12.239 -0.0628 -1.4285 -0.3344
18517TIP3    H276967   4.693   0.083  12.102  0.3575  0.1727 -0.9948
18518TIP3   OH276968   1.632   4.933  12.659 -0.0167 -0.3392  0.2037
18518TIP3    H176969   1.564   4.869  12.636  0.1381 -1.4770  2.6298
18518TIP3    H276970   1.607   5.013  12.611 -1.9436 -1.2963 -0.4865
18519TIP3   OH276971   6.055   3.459   4.776  0.5295  0.5925 -0.5339
18519TIP3    H176972   5.986   3.526   4.774 -2.5909 -2.3186  0.4545
18519TIP3    H276973   6.097   3.470   4.861 -0.2938  0.9275 -0.1642
18520TIP3   OH276974   3.975   5.162   1.521 -0.4676 -0.5132 -0.5253
18520TIP3    H176975   3.897   5.185   1.571  0.4117  0.4581  0.4693
18520TIP3    H276976   3.968   5.214   1.441 -0.9049 -0.5456 -0.5101
18521TIP3   OH276977   6.009   1.610  14.682 -0.4141  0.6007  0.3168
18521TIP3    H176978   6.022   1.527  14.635  1.8005  0.1708  1.5702
18521TIP3    H276979   5.922   1.602  14.721  0.0739 -1.5302  1.0988
18522TIP3   OH276980   3.639   1.092  12.178  0.3498  0.4397 -0.2736
18522TIP3    H176981   3.557   1.045  12.195  0.8807 -0.6368 -0.6008
18522TIP3    H276982   3.628   1.129  12.091  1.4381 -2.5462 -1.7973
18523TIP3   OH276983   0.773   3.002  15.471 -0.0387 -0.1015 -0.2134
18523TIP3    H176984   0.797   3.028  15.382  1.4410 -1.4764 -0.2648
18523TIP3    H276985   0.855   3.003  15.519 -0.6201 -0.5782  0.8263
18524TIP3   OH276986   3.079   5.891  14.522  0.1967  0.3466  0.0665
18524TIP3    H176987   3.012   5.864  14.459  0.1001  0.6396  0.0411
18524TIP3    H276988   3.114   5.973  14.486  0.7846  0.0404 -0.0801
18525TIP3   OH276989   5.421   1.335  12.852  0.1967 -0.2351 -0.1342
18525TIP3    H176990   5.511   1.302  12.858  0.6524  0.6770 -1.4708
18525TIP3    H276991   5.402   1.335  12.758 -0.2425  2.0033 -0.0862
18526TIP3   OH276992   3.238   4.726  14.138  0.1275  0.0368  0.0743
18526TIP3    H176993   3.253   4.768  14.222  1.6314 -0.7583  0.2243
18526TIP3    H276994   3.219   4.799  14.078 -1.8677  0.5501  1.2261
18527TIP3   OH276995   4.935   2.932  12.103 -0.2469 -0.3315  0.4416
18527TIP3    H176996   4.888   2.853  12.131 -2.3236  0.5818 -0.2674
18527TIP3    H276997   4.911   2.998  12.169 -0.4139  0.2870 -0.2332
18528TIP3   OH276998   3.577   1.953  14.998 -0.1827  0.0006 -0.1285
18528TIP3    H176999   3.496   1.988  14.960  1.2732  2.6762 -1.0273
18528TIP3    H277000   3.646   1.983  14.939  1.4478 -3.0419  0.0484
18529TIP3   OH277001   3.673   0.782  15.411 -0.1611 -0.2263  0.1493
18529TIP3    H177002   3.764   0.793  15.439 -0.4549  0.4636  0.8413
18529TIP3    H277003   3.680   0.768  15.316  0.5957  0.9405  0.0085
18530TIP3   OH277004   5.350   0.161  11.935  0.2815 -0.1659  0.5448
18530TIP3    H177005   5.278   0.224  11.927  1.4244  1.3522  1.5390
18530TIP3    H277006   5.312   0.086  11.981 -1.2995 -0.5836 -1.3169
18531TIP3   OH277007   1.342   0.620  14.911  0.7455 -0.0026 -0.6366
18531TIP3    H177008   1.423   0.581  14.945 -0.5051 -0.1369  2.4408
18531TIP3    H277009   1.282   0.620  14.985 -1.1062  2.9578 -1.9576
18532TIP3   OH277010   4.952   3.171  12.905 -0.2990 -0.1351  0.1374
18532TIP3    H177011   5.017   3.166  12.835 -0.0531 -0.4746  0.3850
18532TIP3    H277012   4.954   3.084  12.945 -0.3918  0.0745  0.6029
18533TIP3   OH277013   4.695   4.130   5.344 -0.3553  0.0601  0.3069
18533TIP3    H177014   4.663   4.140   5.254  2.0966 -1.6255 -0.8586
18533TIP3    H277015   4.733   4.042   5.347  1.4078  0.7916  2.3964
18534TIP3   OH277016   5.547   0.972   1.161 -0.4567  0.5991  0.2063
18534TIP3    H177017   5.509   0.885   1.147 -0.2034  0.2914  1.3626
18534TIP3    H277018   5.639   0.956   1.178 -0.5957  1.0096  1.4003
18535TIP3   OH277019   4.697   5.895  15.740 -0.8722  0.1497  0.5981
18535TIP3    H177020   4.704   5.813  15.789 -0.9337  0.9031  1.9319
18535TIP3    H277021   4.767   5.950  15.775 -0.9938  0.7645 -0.0918
18536TIP3   OH277022   3.498   0.656   0.127  0.0478 -0.1064 -0.0038
18536TIP3    H177023   3.564   0.670   0.195 -0.0583 -0.6596  0.2155
18536TIP3    H277024   3.527   0.578   0.080  0.9595  1.1276 -1.6158
18537TIP3   OH277025   3.321   3.041  12.081 -0.0322 -0.1425 -0.4679
18537TIP3    H177026   3.409   3.059  12.115 -0.0565 -1.2639  0.2357
18537TIP3    H277027   3.322   3.073  11.991  1.3016 -0.7502 -0.6768
18538TIP3   OH277028   0.486   0.081   6.134  0.1309  0.2306  0.5618
18538TIP3    H177029   0.489   0.008   6.195  0.2811 -0.6333 -0.4477
18538TIP3    H277030   0.396   0.113   6.138 -0.7641 -1.8708 -1.0698
18539TIP3   OH277031   2.948   6.654  14.933 -0.5803  0.0157 -0.3044
18539TIP3    H177032   2.899   6.589  14.983  0.2855 -0.8438 -0.5260
18539TIP3    H277033   2.954   6.730  14.990  0.2761 -0.8941  0.8791
18540TIP3   OH277034   5.870   3.931   4.075 -0.0691  0.3752  0.0795
18540TIP3    H177035   5.809   3.864   4.044  0.1966 -0.1079  0.6016
18540TIP3    H277036   5.832   4.013   4.044 -0.0230 -0.0581 -1.1813
18541TIP3   OH277037   0.413   2.076   3.421  0.0571  0.1613  0.0024
18541TIP3    H177038   0.333   2.030   3.449 -0.4857  1.4253  0.6054
18541TIP3    H277039   0.389   2.169   3.422  1.5368  0.5646  0.1848
18542TIP3   OH277040   2.346   3.105   1.470  0.0958  0.4200 -0.7413
18542TIP3    H177041   2.399   3.026   1.485 -2.0529 -0.9561  0.1853
18542TIP3    H277042   2.297   3.085   1.390  1.1744  1.8190 -1.7887
18543TIP3   OH277043   0.622   3.795  15.218 -0.3993 -0.1756  0.4439
18543TIP3    H177044   0.579   3.880  15.220 -1.0665 -0.5177  1.6827
18543TIP3    H277045   0.650   3.784  15.127  2.6290  2.7922  0.8021
18544TIP3   OH277046   1.215   6.069  15.356  0.4446  0.3435 -0.1885
18544TIP3    H177047   1.299   6.111  15.342  0.8210  0.0578  1.0895
18544TIP3    H277048   1.152   6.142  15.360  0.5150  0.5288 -1.6575
18545TIP3   OH277049   0.600   4.997   1.319 -0.3493 -0.2039  0.1251
18545TIP3    H177050   0.534   4.954   1.264  0.6122 -1.4063 -0.1420
18545TIP3    H277051   0.648   5.053   1.258 -1.1429  0.7254  0.3328
18546TIP3   OH277052   0.878   2.198  13.847 -0.2493 -0.3128  0.0247
18546TIP3    H177053   0.928   2.242  13.917 -0.5787 -1.7460  1.2222
18546TIP3    H277054   0.856   2.268  13.786  1.1244  0.7855  0.7093
18547TIP3   OH277055   4.548   3.825   2.733  0.3249 -0.7585  0.5055
18547TIP3    H177056   4.561   3.863   2.820 -2.2432 -0.1746  0.7169
18547TIP3    H277057   4.516   3.898   2.680  1.6198 -1.1695 -0.9050
18548TIP3   OH277058   0.505   0.724  15.072  0.5216  0.5401 -0.4793
18548TIP3    H177059   0.586   0.679  15.095 -0.2893 -1.2842 -0.9327
18548TIP3    H277060   0.515   0.813  15.106  1.3802 -0.5697  2.4861
18549TIP3   OH277061   2.584   0.627   5.822 -0.6967 -0.4201  0.3757
18549TIP3    H177062   2.547   0.709   5.857 -0.6017  0.2933 -1.1403
18549TIP3    H277063   2.678   0.634   5.841 -0.1043  1.4080 -2.5790
18550TIP3   OH277064   5.828   2.484   4.846  0.5975 -0.2057 -0.0596
18550TIP3    H177065   5.882   2.561   4.862 -1.2241  1.0626  0.3126
18550TIP3    H277066   5.854   2.422   4.915  0.3964  1.0454  1.1940
18551TIP3   OH277067   5.825   6.490   5.545 -0.3249  0.9934 -0.2250
18551TIP3    H177068   5.835   6.573   5.497  0.4298  0.5289 -0.8973
18551TIP3    H277069   5.914   6.469   5.574 -0.5546  0.5425  0.1670
18552TIP3   OH277070   6.743   3.069  15.097 -0.2271 -0.3061  1.4160
18552TIP3    H177071   6.769   3.005  15.030  1.1374  1.4123  0.2065
18552TIP3    H277072   6.670   3.116  15.058  0.3533  0.4815  1.2692
18553TIP3   OH277073   1.413   3.671  11.698 -0.0957  0.2613  0.2557
18553TIP3    H177074   1.321   3.674  11.723  0.0709  1.9980  0.7478
18553TIP3    H277075   1.461   3.677  11.781  0.4519  1.2122 -0.1108
18554TIP3   OH277076   0.979   3.717  16.637  0.1064 -0.2331  0.4913
18554TIP3    H177077   1.003   3.678  16.721  0.6858 -0.0143  0.4259
18554TIP3    H277078   1.045   3.685  16.575  1.0521  1.4512  0.5919
18555TIP3   OH277079   5.234   6.731   5.994  0.1942 -0.3454 -0.0369
18555TIP3    H177080   5.277   6.784   6.062  1.2462  0.5073 -1.3232
18555TIP3    H277081   5.286   6.651   5.990  0.7750  0.0447 -0.5329
18556TIP3   OH277082   1.892   5.975  10.794  0.0332  0.1691 -0.5855
18556TIP3    H177083   1.813   6.023  10.771  1.0619  1.0153 -2.5735
18556TIP3    H277084   1.947   6.038  10.841  1.0538  0.8224 -2.5180
18557TIP3   OH277085   6.453   4.277   4.591  0.1467 -0.1998 -0.4610
18557TIP3    H177086   6.359   4.264   4.574  0.1371  0.7206 -1.1756
18557TIP3    H277087   6.476   4.355   4.541  1.0282  0.3070  0.6919
18558TIP3   OH277088   1.296   3.077   4.282  0.0990  0.3884  0.3869
18558TIP3    H177089   1.374   3.107   4.327  0.1934 -0.4569  0.8125
18558TIP3    H277090   1.299   2.981   4.289  0.1348  0.2028 -1.4432
18559TIP3   OH277091   0.358   2.939  13.568  0.0810  0.3210  0.6491
18559TIP3    H177092   0.336   2.920  13.476  0.5453  0.0006  0.6032
18559TIP3    H277093   0.347   3.033  13.576  2.7785  0.8157 -0.5027
18560TIP3   OH277094   0.201   4.948   1.622 -0.2745  0.1046  0.1067
18560TIP3    H177095   0.200   5.016   1.554  1.3966  0.5016  0.4322
18560TIP3    H277096   0.184   4.995   1.703 -0.6857 -0.1235  0.1553
18561TIP3   OH277097   4.261   4.859  15.727  0.3064 -0.3603  0.2002
18561TIP3    H177098   4.177   4.897  15.705  0.8936 -0.5757 -2.7472
18561TIP3    H277099   4.318   4.933  15.746  0.5004  0.0945 -1.9588
18562TIP3   OH277100   1.063   5.569  12.426  0.0985 -0.0734  0.3743
18562TIP3    H177101   1.117   5.497  12.393 -1.1677 -1.2547  0.7770
18562TIP3    H277102   1.022   5.606  12.348  1.1045  0.5259  0.1173
18563TIP3   OH277103   0.063   5.649  14.503  0.1263  0.2244 -0.0855
18563TIP3    H177104  -0.001   5.604  14.448 -0.6115 -0.6748  1.4576
18563TIP3    H277105   0.125   5.580  14.529 -0.6980  0.1533  1.8443
18564TIP3   OH277106   2.045   6.506  13.742  0.3829 -0.4057 -0.1025
18564TIP3    H177107   2.047   6.485  13.836 -1.1798 -0.0309  0.0460
18564TIP3    H277108   2.117   6.567  13.730 -0.5555  1.0655  1.2804
18565TIP3   OH277109   2.658   6.101  14.915  0.1355  0.1141  0.6784
18565TIP3    H177110   2.650   6.192  14.887  0.3660 -0.1391 -0.2392
18565TIP3    H277111   2.748   6.077  14.893  0.0282 -0.3850  0.7769
18566TIP3   OH277112   3.231   2.475   3.790  0.4191  0.1095 -0.0943
18566TIP3    H177113   3.185   2.397   3.822  1.2122  0.1447  1.2186
18566TIP3    H277114   3.261   2.519   3.869 -0.0546  1.8020 -0.8248
18567TIP3   OH277115   3.890   0.339   6.319  0.3241  0.8523  0.0639
18567TIP3    H177116   3.958   0.401   6.345  1.0875  0.5305 -1.0636
18567TIP3    H277117   3.817   0.394   6.291  0.5635  1.2299  0.1826
18568TIP3   OH277118   1.120   1.798   3.763 -0.5915 -0.6872  0.1988
18568TIP3    H177119   1.096   1.721   3.815 -2.6351  0.9595  1.9442
18568TIP3    H277120   1.036   1.840   3.744  0.4678  1.3150 -0.2899
18569TIP3   OH277121   1.799   2.990   5.693  0.0969 -0.1195  0.7568
18569TIP3    H177122   1.738   3.052   5.733 -0.7414  0.1793 -0.8883
18569TIP3    H277123   1.843   2.948   5.767 -1.9039 -0.1429  1.9996
18570TIP3   OH277124   4.142   4.104   3.625 -0.3358 -0.0207  0.2064
18570TIP3    H177125   4.140   4.196   3.652 -1.2396  0.3421 -1.0242
18570TIP3    H277126   4.187   4.105   3.541  2.3659 -1.1224  1.5052
18571TIP3   OH277127   6.552   0.052   4.926  0.0956  0.0056 -0.3812
18571TIP3    H177128   6.613   0.018   4.860  0.3201 -1.0884  0.3569
18571TIP3    H277129   6.481   0.092   4.876  0.2946 -0.7535 -1.2876
18572TIP3   OH277130   3.680   0.641  14.496 -0.5456  0.6649 -0.1127
18572TIP3    H177131   3.748   0.705  14.519 -1.0264  1.0673  0.2029
18572TIP3    H277132   3.598   0.682  14.522 -0.8588 -0.1244  0.1790
18573TIP3   OH277133   0.062   4.221   5.206 -0.2460 -0.3423  0.0397
18573TIP3    H177134   0.156   4.230   5.194 -0.4847  2.0666 -0.6732
18573TIP3    H277135   0.026   4.301   5.168 -2.3610  0.2088  2.8996
18574TIP3   OH277136   0.103   2.741  15.855 -0.1368  0.6218  0.0190
18574TIP3    H177137   0.170   2.729  15.788 -0.1945  0.3339  0.0131
18574TIP3    H277138   0.084   2.653  15.887  0.1711  0.7859  0.6886
18575TIP3   OH277139   2.749   4.623   6.062 -0.0020  0.0084  0.4358
18575TIP3    H177140   2.712   4.670   6.136 -0.3929 -0.5874  0.6335
18575TIP3    H277141   2.843   4.637   6.069  0.0571 -0.7909  1.5939
18576TIP3   OH277142   4.716   6.266  17.041 -0.3825  0.1265 -0.7272
18576TIP3    H177143   4.666   6.216  16.977  2.6067 -1.1809 -2.2683
18576TIP3    H277144   4.731   6.205  17.113  1.0862 -0.4465 -1.4603
18577TIP3   OH277145   2.304   0.249   1.138 -0.5469 -0.8459 -0.1350
18577TIP3    H177146   2.285   0.267   1.230 -0.1735 -0.3243 -0.1614
18577TIP3    H277147   2.396   0.222   1.137 -0.7602 -1.5897 -0.2567
18578TIP3   OH277148   5.378   6.390   3.328  0.0839 -0.3826 -0.1251
18578TIP3    H177149   5.428   6.349   3.258  0.4396  0.4568 -0.3702
18578TIP3    H277150   5.286   6.376   3.302  0.2093  0.1356 -0.8994
18579TIP3   OH277151   2.456   2.417  13.896  0.1670 -0.0450  0.6184
18579TIP3    H177152   2.393   2.473  13.941  0.3687  0.5931  0.1200
18579TIP3    H277153   2.541   2.438  13.936  0.1617 -0.4469  0.8531
18580TIP3   OH277154   5.981   1.901  13.471  0.3183 -0.1228  0.5767
18580TIP3    H177155   6.061   1.853  13.447  0.6610  0.1758  1.0985
18580TIP3    H277156   5.917   1.833  13.488  1.0355 -0.4433  2.1396
18581TIP3   OH277157   0.092   5.443  12.997  1.0337 -0.3423  0.1426
18581TIP3    H177158   0.005   5.404  12.990  0.7359  0.2128  0.7141
18581TIP3    H277159   0.078   5.528  13.037  1.8151 -0.1413  0.0148
18582TIP3   OH277160   6.627   0.424   1.760  0.0938  0.1104 -0.3209
18582TIP3    H177161   6.561   0.371   1.716  0.4584 -0.1673 -0.5296
18582TIP3    H277162   6.587   0.446   1.844 -0.0021 -0.6146 -0.1710
18583TIP3   OH277163   2.209   3.743   4.280 -0.3548  0.0233  1.0355
18583TIP3    H177164   2.275   3.674   4.280  0.5512  0.7854 -1.1164
18583TIP3    H277165   2.253   3.818   4.240 -2.2753  0.8469  0.3393
18584TIP3   OH277166   0.310   6.590   1.250 -0.2110  0.1743  0.4422
18584TIP3    H177167   0.299   6.509   1.298  0.6524 -0.5451 -0.5208
18584TIP3    H277168   0.250   6.583   1.176  0.2695  0.1512  0.0474
18585TIP3   OH277169   1.384   1.613   6.620  0.4226 -0.2070  0.1306
18585TIP3    H177170   1.356   1.577   6.536  2.0684  0.7695 -0.8925
18585TIP3    H277171   1.438   1.544   6.659  2.1174  0.3875 -1.0239
18586TIP3   OH277172   5.319   2.326   5.170  0.0042 -0.3401 -0.7713
18586TIP3    H177173   5.345   2.270   5.243 -2.0554 -0.2094  0.1138
18586TIP3    H277174   5.349   2.414   5.195  0.7905 -0.5634 -0.8931
18587TIP3   OH277175   2.014   5.933   5.614  0.4112 -0.0171 -0.0840
18587TIP3    H177176   2.062   5.864   5.568 -0.7921 -1.0028  0.0898
18587TIP3    H277177   2.027   5.914   5.707  0.0774 -0.0080 -0.0337
18588TIP3   OH277178   2.763   2.147  14.888  0.9227 -0.1691  0.3960
18588TIP3    H177179   2.839   2.204  14.882  0.4254  0.7267  2.0477
18588TIP3    H277180   2.689   2.203  14.863  0.1553  0.6696  3.9886
18589TIP3   OH277181   5.433   2.710   0.911  0.1273  0.5486  0.4350
18589TIP3    H177182   5.454   2.673   0.997  1.2505  1.0478  0.3932
18589TIP3    H277183   5.484   2.657   0.850  1.0838  1.6014  0.2958
18590TIP3   OH277184   4.214   1.709  11.350  0.4644  0.0654  0.4657
18590TIP3    H177185   4.182   1.731  11.262  2.8266 -1.0210 -0.7800
18590TIP3    H277186   4.269   1.783  11.375  1.9054 -0.7385 -0.1858
18591TIP3   OH277187   5.286   0.057   5.554 -0.1482 -0.0288 -0.0677
18591TIP3    H177188   5.217   0.014   5.604  0.3940 -2.2778 -1.1418
18591TIP3    H277189   5.367   0.033   5.600  0.0217  1.9825  0.7667
18592TIP3   OH277190   0.866   4.261   2.647 -0.3962  0.5926 -0.3250
18592TIP3    H177191   0.778   4.263   2.610 -0.0372  1.1508 -1.2045
18592TIP3    H277192   0.856   4.222   2.733 -1.3562 -0.2688 -0.8094
18593TIP3   OH277193   4.614   2.793   2.789  0.2390  0.1018  0.3526
18593TIP3    H177194   4.627   2.884   2.815  0.0765 -0.1802  1.4427
18593TIP3    H277195   4.601   2.746   2.871  3.2939 -1.4349  0.1026
18594TIP3   OH277196   2.983   5.619  13.076  0.1793 -0.5300 -0.4037
18594TIP3    H177197   2.908   5.603  13.134  0.3653  0.8074  0.2353
18594TIP3    H277198   3.045   5.667  13.131  1.5387 -1.6381 -0.9084
18595TIP3   OH277199   5.735   6.212   4.111  0.7074  0.2296  0.0293
18595TIP3    H177200   5.790   6.173   4.043  2.1428  1.0916  0.6279
18595TIP3    H277201   5.736   6.147   4.182  0.5001  0.0026 -0.1757
18596TIP3   OH277202   3.897   0.487   4.842  0.3763 -0.1508 -0.1186
18596TIP3    H177203   3.882   0.394   4.859  0.6430  0.1683  2.1115
18596TIP3    H277204   3.821   0.531   4.880 -0.3359  0.5218 -2.1694
18597TIP3   OH277205   2.750   6.742   4.312 -0.5585  0.0398 -0.4000
18597TIP3    H177206   2.729   6.818   4.367 -0.8926 -1.2255  1.2970
18597TIP3    H277207   2.800   6.778   4.239 -0.7743  1.8924  0.3197
18598TIP3   OH277208   1.372   5.388  16.834 -0.3296 -0.1604  0.4232
18598TIP3    H177209   1.381   5.366  16.741  0.2755  1.0371  0.1789
18598TIP3    H277210   1.397   5.481  16.839 -0.0265 -0.3002  1.8322
18599TIP3   OH277211   1.397   3.883  15.978 -0.3015 -0.6961 -0.6798
18599TIP3    H177212   1.346   3.912  15.902 -0.5974 -0.7235 -0.4961
18599TIP3    H277213   1.482   3.925  15.968 -1.5078  2.4358  0.9341
18600TIP3   OH277214   0.735   0.165  13.197  1.0822 -0.2999 -0.2531
18600TIP3    H177215   0.678   0.190  13.124  0.9062 -1.0173 -0.3627
18600TIP3    H277216   0.681   0.109  13.252  0.6781  1.5538  1.3261
18601TIP3   OH277217   0.982   3.056   6.627  0.2906  0.4668 -0.0821
18601TIP3    H177218   0.928   3.132   6.649 -0.2824  0.2724 -0.8066
18601TIP3    H277219   1.072   3.091   6.625 -0.0641  1.3650 -1.4231
18602TIP3   OH277220   1.265   1.298   4.327  0.7065  0.0890  0.0677
18602TIP3    H177221   1.213   1.372   4.296 -1.0986 -0.8096  0.8318
18602TIP3    H277222   1.347   1.338   4.358 -0.1091  1.7292  0.2105
18603TIP3   OH277223   3.837   0.067  16.226 -0.1374 -0.0103 -0.5448
18603TIP3    H177224   3.891   0.121  16.169  0.9964  0.0929  0.5792
18603TIP3    H277225   3.749   0.104  16.218 -0.0871 -0.2458 -2.4822
18604TIP3   OH277226   2.914   6.418  14.293  0.4250  0.1930 -0.1346
18604TIP3    H177227   2.942   6.486  14.354  2.0106  0.4224 -1.0623
18604TIP3    H277228   2.859   6.464  14.230 -0.7063  0.0732  0.7363
18605TIP3   OH277229   4.759   3.558  15.471  0.2804  0.1942  0.1791
18605TIP3    H177230   4.844   3.598  15.487  1.2980 -1.7868  0.1002
18605TIP3    H277231   4.730   3.597  15.388  0.8821  1.2345  0.4384
18606TIP3   OH277232   0.747   5.443  16.130 -0.0016  0.4564  0.2524
18606TIP3    H177233   0.714   5.533  16.130  1.8927  1.3103 -3.1716
18606TIP3    H277234   0.840   5.451  16.112  0.3193 -2.2178  0.3257
18607TIP3   OH277235   1.251   2.480  16.943 -0.1549  0.3018  0.3661
18607TIP3    H177236   1.159   2.480  16.919 -0.2171 -0.0597  0.5814
18607TIP3    H277237   1.290   2.550  16.891 -0.4470  0.1082 -0.1207
18608TIP3   OH277238   1.570   3.678  14.115  0.2923  0.4867  0.2379
18608TIP3    H177239   1.613   3.665  14.199  0.2658 -2.4434 -0.0853
18608TIP3    H277240   1.641   3.696  14.054  0.3676  2.0294  0.7387
18609TIP3   OH277241   3.788   0.256   6.001  0.2471 -0.2353 -0.0085
18609TIP3    H177242   3.868   0.206   6.016  0.9172 -0.1135 -2.6226
18609TIP3    H277243   3.722   0.212   6.055  1.8191 -1.0027  1.3804
18610TIP3   OH277244   0.615   0.456  13.382  0.0249 -0.6620 -0.0798
18610TIP3    H177245   0.697   0.481  13.340  0.0893  0.3214  0.5873
18610TIP3    H277246   0.573   0.397  13.319  0.3291  0.4006 -1.3303
18611TIP3   OH277247   5.052   4.030  13.655 -0.1359 -0.2579 -0.1181
18611TIP3    H177248   5.123   4.010  13.716  0.9924  1.1768 -0.8981
18611TIP3    H277249   5.061   3.966  13.585  1.4078  0.8125 -0.9744
18612TIP3   OH277250   6.416   5.981   2.931  0.1929 -0.3157 -0.0419
18612TIP3    H177251   6.360   5.936   2.994 -0.0130 -0.6923 -0.4928
18612TIP3    H277252   6.492   6.009   2.982 -0.7421  0.8752  0.7482
18613TIP3   OH277253   6.727   4.366   4.647  0.1292  0.1310  0.3399
18613TIP3    H177254   6.813   4.330   4.623  0.9368  1.3289  1.2917
18613TIP3    H277255   6.664   4.304   4.611  1.4304 -2.2237  1.8966
18614TIP3   OH277256   0.209   3.499  16.347 -0.2705  0.0835 -0.0722
18614TIP3    H177257   0.149   3.507  16.273  0.5741  1.7109 -0.6383
18614TIP3    H277258   0.189   3.574  16.403  1.3695  0.8231 -0.4122
18615TIP3   OH277259   0.220   6.372   6.538 -0.3639  0.4602  0.7271
18615TIP3    H177260   0.312   6.397   6.540  0.0440 -0.8869 -0.0520
18615TIP3    H277261   0.221   6.277   6.526 -1.8614  0.6534 -1.4315
18616TIP3   OH277262   4.024   1.536  13.224 -0.0380  0.9188 -0.0440
18616TIP3    H177263   3.953   1.472  13.226  0.2287  0.6162  2.1981
18616TIP3    H277264   4.038   1.553  13.131 -1.9431 -0.2226 -0.5998
18617TIP3   OH277265   1.622   0.527  14.965  0.6286 -0.0797  0.3860
18617TIP3    H177266   1.695   0.553  14.908  1.3861 -1.0957  0.8482
18617TIP3    H277267   1.642   0.436  14.988 -1.8252 -1.0714 -1.0548
18618TIP3   OH277268   3.088   4.028   4.036  0.5646  0.2451  0.5414
18618TIP3    H177269   3.174   4.027   3.994  0.3802 -1.7995  0.0849
18618TIP3    H277270   3.027   4.010   3.964 -0.2461  1.3795  0.9121
18619TIP3   OH277271   3.435   5.711   5.567  0.0413 -0.0256  0.4051
18619TIP3    H177272   3.525   5.695   5.597 -0.6684  1.5890  3.9168
18619TIP3    H277273   3.388   5.630   5.587  0.3004 -0.1409  0.5556
18620TIP3   OH277274   0.017   6.501   3.657 -0.5295  0.2608  0.2320
18620TIP3    H177275   0.105   6.468   3.639 -0.4672  0.9751 -0.8507
18620TIP3    H277276   0.025   6.596   3.652 -1.7026  0.3053 -1.6845
18621TIP3   OH277277   6.187   2.369  11.283  0.2763  0.2480  0.2881
18621TIP3    H177278   6.194   2.369  11.188  0.9775  0.3380  0.3357
18621TIP3    H277279   6.214   2.457  11.310 -2.7097  1.2495  0.4064
18622TIP3   OH277280   6.429   1.036   1.692 -0.2452 -0.0628  0.2787
18622TIP3    H177281   6.493   1.095   1.651 -0.9605 -0.0374 -0.8446
18622TIP3    H277282   6.425   1.066   1.783  2.6407 -1.1924  0.8991
18623TIP3   OH277283   3.301   5.954  13.325 -0.0002  0.3767  0.2150
18623TIP3    H177284   3.329   6.022  13.265 -2.2701 -0.3135 -1.7936
18623TIP3    H277285   3.379   5.900  13.339  0.8336  1.1149 -1.3499
18624TIP3   OH277286   1.869   3.784   1.471 -0.2307  0.4363  0.0278
18624TIP3    H177287   1.902   3.712   1.417 -0.3994 -0.4403  1.0464
18624TIP3    H277288   1.946   3.834   1.495 -0.3341  1.9675 -2.5314
18625TIP3   OH277289   5.530   3.930   5.395  0.5256  0.1131 -0.0152
18625TIP3    H177290   5.552   3.908   5.485  0.0113  3.2012  1.0070
18625TIP3    H277291   5.614   3.955   5.355  0.8043 -1.5606 -0.5675
18626TIP3   OH277292   6.763   5.311   4.769  0.1415  0.2686  0.0956
18626TIP3    H177293   6.705   5.236   4.766 -1.5433  1.3856  2.3055
18626TIP3    H277294   6.844   5.278   4.809 -0.7823 -0.2739  1.5715
18627TIP3   OH277295   5.712   4.202   3.434  0.5054 -0.3037 -0.3041
18627TIP3    H177296   5.734   4.108   3.432  0.4355 -0.3880  1.3346
18627TIP3    H277297   5.618   4.204   3.450  0.2822  0.0751 -1.5442
18628TIP3   OH277298   4.764   1.383  11.011  0.0961 -0.7214  0.1493
18628TIP3    H177299   4.725   1.456  11.059  1.7557  0.0358  0.4084
18628TIP3    H277300   4.835   1.352  11.068 -0.6385 -2.6465  0.1069
18629TIP3   OH277301   1.842   6.406  13.948  0.2382 -0.7545  0.4529
18629TIP3    H177302   1.787   6.483  13.937  2.6732  1.1713  1.0016
18629TIP3    H277303   1.840   6.362  13.863 -1.0342  0.0006  0.0755
18630TIP3   OH277304   1.901   5.818   4.395  0.0542  0.5020 -0.3615
18630TIP3    H177305   1.994   5.803   4.382  0.7298  3.5608  0.0867
18630TIP3    H277306   1.885   5.797   4.486 -0.2577 -2.0855 -0.9421
18631TIP3   OH277307   6.393   5.492   0.949  0.0511  0.0269  0.5924
18631TIP3    H177308   6.325   5.430   0.977  2.0846 -1.1787  3.2144
18631TIP3    H277309   6.381   5.569   1.004 -0.7284  0.9238 -0.7552
18632TIP3   OH277310   3.429   1.301   3.367  0.2870 -0.8984 -0.3279
18632TIP3    H177311   3.417   1.395   3.352  0.1554 -0.7727  0.5380
18632TIP3    H277312   3.524   1.290   3.378  0.1884 -0.6440  0.9386
18633TIP3   OH277313   5.465   4.585  16.423 -0.3392 -0.3676 -0.1284
18633TIP3    H177314   5.491   4.677  16.420  2.3368 -1.0476 -0.4090
18633TIP3    H277315   5.434   4.566  16.334 -0.2883  0.1234 -0.2524
18634TIP3   OH277316   2.864   2.520  15.304 -0.5252  0.1549  0.4764
18634TIP3    H177317   2.817   2.486  15.228 -2.8891  1.5153  1.2102
18634TIP3    H277318   2.801   2.579  15.346  1.4449  1.0767  2.3078
18635TIP3   OH277319   0.330   6.390  13.675 -0.2877 -0.3995  0.0299
18635TIP3    H177320   0.329   6.307  13.722 -0.3947 -1.4355 -1.7027
18635TIP3    H277321   0.411   6.387  13.623 -1.0756 -0.1634 -1.2540
18636TIP3   OH277322   4.591   2.052   5.505  0.1803  0.3502  0.2284
18636TIP3    H177323   4.684   2.075   5.505 -0.1130  1.6504 -0.4035
18636TIP3    H277324   4.589   1.958   5.489  1.3687  0.4176 -0.4294
18637TIP3   OH277325   1.636   3.581  16.642 -0.3330  0.0082  0.7376
18637TIP3    H177326   1.590   3.661  16.616  1.6250 -0.0192 -3.5008
18637TIP3    H277327   1.566   3.516  16.653 -1.6545  1.2103 -0.1602
18638TIP3   OH277328   3.603   1.708   0.430  0.0460  0.0356 -0.0427
18638TIP3    H177329   3.656   1.678   0.356 -0.9542 -0.3119 -0.6281
18638TIP3    H277330   3.566   1.629   0.468 -3.4229  0.4471 -2.2075
18639TIP3   OH277331   3.168   6.508   5.969  0.0414 -0.3199  0.0344
18639TIP3    H177332   3.251   6.463   5.955  0.4587  0.8267 -1.4245
18639TIP3    H277333   3.193   6.599   5.985 -0.8512 -0.3153  1.6309
18640TIP3   OH277334   4.833   5.263  15.349  0.1026 -0.0924 -0.8659
18640TIP3    H177335   4.830   5.338  15.289  0.3224 -0.3374 -1.1861
18640TIP3    H277336   4.743   5.232  15.353 -0.1078  0.5929 -0.2151
18641TIP3   OH277337   3.219   4.824   1.415 -0.3735  0.1479  0.4759
18641TIP3    H177338   3.287   4.759   1.430  0.1355  0.3285 -0.9157
18641TIP3    H277339   3.224   4.843   1.321 -3.9872 -1.6947 -0.2557
18642TIP3   OH277340   0.512   5.551  10.945 -0.0009  0.4626 -0.5199
18642TIP3    H177341   0.450   5.622  10.929  0.4251  0.7284 -1.0240
18642TIP3    H277342   0.595   5.583  10.910  0.2224 -0.2399 -0.6584
18643TIP3   OH277343   6.299   1.170  15.330  0.1281  0.4582 -0.7718
18643TIP3    H177344   6.239   1.107  15.369 -0.3685  1.3350 -0.0634
18643TIP3    H277345   6.309   1.238  15.397  0.1147  1.4593 -1.7470
18644TIP3   OH277346   6.020   1.191  15.383 -0.1461  0.1269 -0.6129
18644TIP3    H177347   5.941   1.193  15.329  0.3509 -1.6473 -1.4836
18644TIP3    H277348   6.033   1.099  15.403  1.8984  0.3157 -0.8118
18645TIP3   OH277349   0.352   5.743  16.435 -0.1245  0.7120  0.4621
18645TIP3    H177350   0.439   5.703  16.434 -0.4060 -0.0498 -1.8400
18645TIP3    H277351   0.339   5.774  16.345 -2.0590  1.1617  0.8445
18646TIP3   OH277352   0.673   3.194  16.770  0.0669  0.0853  0.4248
18646TIP3    H177353   0.598   3.135  16.774 -0.6251  0.9180 -0.0025
18646TIP3    H277354   0.721   3.167  16.692  0.1932 -0.4183  0.6732
18647TIP3   OH277355   1.400   2.955   5.271 -0.3536  0.3776  0.2331
18647TIP3    H177356   1.478   2.942   5.216 -0.8687  0.2868 -0.4896
18647TIP3    H277357   1.379   3.048   5.261 -0.6713  0.2791 -0.0310
18648TIP3   OH277358   3.382   1.064   3.468 -0.8682 -0.1818  0.1241
18648TIP3    H177359   3.435   1.137   3.436 -0.7400 -1.1895 -2.1350
18648TIP3    H277360   3.292   1.089   3.448 -0.7281 -1.2094 -2.0711
18649TIP3   OH277361   6.044   2.236  15.226 -0.1804  0.3325  0.2068
18649TIP3    H177362   6.090   2.235  15.310  0.4075 -2.0999 -0.0922
18649TIP3    H277363   5.951   2.240  15.250  0.0086  0.6309  0.9218
18650TIP3   OH277364   1.469   3.992   1.184  0.4297 -0.2167 -0.5308
18650TIP3    H177365   1.425   3.985   1.268  1.3247  2.2498  0.2475
18650TIP3    H277366   1.518   3.910   1.175 -0.5949 -1.0018  0.7784
18651TIP3   OH277367   0.569   5.150   3.074  0.2123 -0.2929  0.0890
18651TIP3    H177368   0.610   5.192   2.998 -0.4025  0.2019  0.0185
18651TIP3    H277369   0.475   5.151   3.054  0.2066 -2.2251 -0.1668
18652TIP3   OH277370   0.984   4.267  11.442  0.4021  0.1644  0.3560
18652TIP3    H177371   1.021   4.181  11.423 -0.0443 -0.0036  0.2305
18652TIP3    H277372   1.052   4.329  11.416  0.4101 -0.1218 -0.3257
18653TIP3   OH277373   2.652   0.019  15.257  0.6214 -0.2733 -0.3458
18653TIP3    H177374   2.728   0.010  15.313  0.1380 -1.1469  0.2042
18653TIP3    H277375   2.683  -0.007  15.170  1.4088  1.2375 -0.5431
18654TIP3   OH277376   0.628   5.961   0.306 -0.3530  0.7282 -0.2204
18654TIP3    H177377   0.672   5.914   0.377 -0.9887 -0.4856 -0.6021
18654TIP3    H277378   0.558   6.009   0.349 -0.7204  0.0173 -0.0132
18655TIP3   OH277379   6.068   4.210   5.617  0.3219 -0.2509  0.4968
18655TIP3    H177380   6.100   4.178   5.702  1.0617 -0.3542  0.1892
18655TIP3    H277381   6.094   4.302   5.615 -0.8809  0.1183  0.9364
18656TIP3   OH277382   2.040   2.911  10.879 -0.0858 -0.1506 -0.0921
18656TIP3    H177383   2.109   2.940  10.819  0.2305 -0.2842  0.2013
18656TIP3    H277384   1.980   2.985  10.884  0.5155  0.3231  0.3543
18657TIP3   OH277385   2.711   3.578  15.308  0.0704  0.0111 -0.5802
18657TIP3    H177386   2.741   3.529  15.384 -0.3913 -0.6166 -0.7928
18657TIP3    H277387   2.684   3.663  15.342 -0.0251 -0.2267 -0.0627
18658TIP3   OH277388   1.631   3.923   4.664 -0.5602 -0.4628 -0.1080
18658TIP3    H177389   1.708   3.976   4.684 -0.7020 -1.2549  3.2428
18658TIP3    H277390   1.663   3.833   4.660 -0.9654 -0.5726 -1.3683
18659TIP3   OH277391   5.883   1.835  12.725  0.0691  0.2722  0.4075
18659TIP3    H177392   5.945   1.908  12.722 -1.2360  1.4151 -0.3033
18659TIP3    H277393   5.800   1.876  12.748 -0.5364 -1.1376  0.8104
18660TIP3   OH277394   3.216   4.872  15.516 -0.7295 -0.5212 -0.7615
18660TIP3    H177395   3.186   4.959  15.543 -1.5873 -0.3606 -2.1553
18660TIP3    H277396   3.309   4.884  15.498 -0.7917  0.0553 -0.7165
18661TIP3   OH277397   4.222   3.932  10.993  0.5086  0.1798  0.1333
18661TIP3    H177398   4.209   4.004  10.931 -0.5180 -0.4416 -0.3886
18661TIP3    H277399   4.135   3.912  11.025  1.1098  1.3012  2.7612
18662TIP3   OH277400   2.535   1.912   5.134  0.5270 -0.4204 -0.4173
18662TIP3    H177401   2.559   1.822   5.112  0.1480 -0.3740 -1.0474
18662TIP3    H277402   2.439   1.913   5.131  0.5517  0.3198 -1.7669
18663TIP3   OH277403   5.355   2.643   4.979  0.3040  0.8715  0.3330
18663TIP3    H177404   5.380   2.641   5.071  0.8934  1.6389  0.2015
18663TIP3    H277405   5.439   2.634   4.932 -0.0971 -0.8203 -0.1474
18664TIP3   OH277406   6.653   4.235  15.103 -0.1364 -0.0135 -0.1195
18664TIP3    H177407   6.652   4.143  15.128 -3.3658 -0.2347 -0.6348
18664TIP3    H277408   6.594   4.278  15.165 -0.2580  1.3229 -1.1093
18665TIP3   OH277409   6.794   5.818   6.888  0.0757  0.7489 -0.1285
18665TIP3    H177410   6.851   5.769   6.828  0.2880  1.2417 -0.3271
18665TIP3    H277411   6.718   5.842   6.835 -1.3768 -1.7202  0.6361
18666TIP3   OH277412   3.134   6.160  15.696  0.1373  0.2854  0.1643
18666TIP3    H177413   3.204   6.204  15.647 -0.9920  0.8682 -0.9496
18666TIP3    H277414   3.055   6.177  15.646 -0.8344 -0.3048  1.4557
18667TIP3   OH277415   5.539   3.547   4.940  0.4622 -0.5672 -0.5841
18667TIP3    H177416   5.512   3.456   4.932  2.0525 -1.0450 -0.9276
18667TIP3    H277417   5.493   3.592   4.868 -2.2649 -0.5379  1.0431
18668TIP3   OH277418   3.813   3.081  15.618  0.3602  0.3717  0.1483
18668TIP3    H177419   3.756   3.129  15.559 -1.5240  0.4324  1.9119
18668TIP3    H277420   3.769   2.997  15.632 -0.4330  1.1564  3.0570
18669TIP3   OH277421   2.708   4.828   4.704  0.3956 -0.4689  0.0813
18669TIP3    H177422   2.657   4.879   4.641 -0.6509  1.6077  2.4657
18669TIP3    H277423   2.651   4.757   4.730  0.1102 -0.2520  0.0512
18670TIP3   OH277424   2.010   6.337  12.493  0.3676  0.6575  0.6775
18670TIP3    H177425   1.926   6.384  12.501  0.1616  0.2424  0.9881
18670TIP3    H277426   2.076   6.407  12.489  0.0574  0.9757  1.0542
18671TIP3   OH277427   5.459   3.104  15.163 -0.0532 -0.1224 -0.0989
18671TIP3    H177428   5.392   3.069  15.222 -0.7725  1.8434  0.3404
18671TIP3    H277429   5.507   3.167  15.216  1.3083 -0.5471 -0.7880
18672TIP3   OH277430   3.005   6.478  13.891 -0.0019 -0.3136  0.2889
18672TIP3    H177431   3.063   6.487  13.815  2.1315  0.9546  1.9624
18672TIP3    H277432   3.025   6.553  13.946 -3.1036  0.0214  1.1364
18673TIP3   OH277433   4.719   4.347  15.944 -0.3443  0.1415  0.0861
18673TIP3    H177434   4.656   4.416  15.966  1.2183  1.5662  0.2679
18673TIP3    H277435   4.705   4.330  15.851 -1.4653 -0.0895  0.2817
18674TIP3   OH277436   5.088   2.628  11.146  0.7796  0.0429 -0.0797
18674TIP3    H177437   5.161   2.660  11.199  1.3512 -0.7468 -0.3760
18674TIP3    H277438   5.101   2.533  11.141  0.1620 -0.0181 -0.7721
18675TIP3   OH277439   6.248   4.723  16.136  0.0629  0.2120 -0.4165
18675TIP3    H177440   6.275   4.665  16.208  0.0069  0.6246 -0.0629
18675TIP3    H277441   6.154   4.737  16.151  0.3584  1.5041  0.2875
18676TIP3   OH277442   5.904   3.616  12.794  0.4211  0.0633 -0.7867
18676TIP3    H177443   5.969   3.683  12.816 -0.9084  1.0832  0.2007
18676TIP3    H277444   5.880   3.635  12.704 -0.6559  1.5866 -0.2190
18677TIP3   OH277445   3.951   2.638   5.057 -0.0052 -0.4751  0.5760
18677TIP3    H177446   3.876   2.637   5.117 -1.1429 -0.5158 -0.7998
18677TIP3    H277447   3.925   2.581   4.985 -1.0687  3.5822 -2.6800
18678TIP3   OH277448   4.348   1.277   0.197 -0.4211 -0.1096  0.2548
18678TIP3    H177449   4.299   1.266   0.278 -1.1801  0.2933 -0.1327
18678TIP3    H277450   4.439   1.257   0.220 -0.3678  1.4015  1.5609
18679TIP3   OH277451   1.670   3.488   3.654 -0.7330  0.1273  0.3577
18679TIP3    H177452   1.600   3.553   3.659 -0.3655  0.5395  0.2303
18679TIP3    H277453   1.632   3.415   3.606 -0.6257  0.9662 -1.0687
18680TIP3   OH277454   0.317   5.759   1.194  0.1458 -0.0317 -0.3229
18680TIP3    H177455   0.349   5.825   1.255  2.4730 -1.5494  0.2271
18680TIP3    H277456   0.387   5.694   1.189 -2.7593 -3.6268  0.8763
18681TIP3   OH277457   2.934   3.091   0.380 -0.2058 -0.5091 -0.0803
18681TIP3    H177458   2.868   3.161   0.371 -0.3788 -0.9070 -2.4324
18681TIP3    H277459   2.883   3.013   0.403 -0.0405  0.0094  2.2830
18682TIP3   OH277460   4.732   4.145   3.290 -0.6723 -0.2608 -0.3452
18682TIP3    H177461   4.642   4.122   3.312 -1.2671  2.1754 -0.0138
18682TIP3    H277462   4.730   4.163   3.196 -0.2362 -1.2949 -0.5752
18683TIP3   OH277463   0.566   0.673  11.361  0.5765  0.1466  0.5277
18683TIP3    H177464   0.622   0.707  11.431  1.5863 -1.7412  0.7137
18683TIP3    H277465   0.595   0.721  11.283  1.1848  0.5083  0.9637
18684TIP3   OH277466   0.659   0.872   0.642  0.1401  0.0506 -0.2011
18684TIP3    H177467   0.657   0.859   0.547  0.5448  0.3510 -0.2522
18684TIP3    H277468   0.675   0.785   0.678 -0.4880 -0.1423 -0.3858
18685TIP3   OH277469   2.510   4.091  15.903 -0.2141 -0.1365 -0.1024
18685TIP3    H177470   2.489   4.158  15.968 -2.7190  0.4506 -1.4024
18685TIP3    H277471   2.465   4.119  15.823  1.0960 -1.8647 -1.5371
18686TIP3   OH277472   3.683   1.776  13.728  0.1217  0.1050  0.2692
18686TIP3    H177473   3.739   1.827  13.671  1.9510  0.3700  2.1969
18686TIP3    H277474   3.656   1.837  13.797 -0.3462 -0.6911  0.8113
18687TIP3   OH277475   5.130   1.947  12.426 -0.5994 -0.5778 -0.1922
18687TIP3    H177476   5.037   1.963  12.409 -0.9964 -0.0433  2.0855
18687TIP3    H277477   5.175   1.977  12.348 -2.3474 -0.9793 -1.4058
18688TIP3   OH277478   1.365   6.196   5.376 -0.8371 -0.5230  0.2775
18688TIP3    H177479   1.409   6.113   5.392 -2.5769 -1.2851  1.4134
18688TIP3    H277480   1.313   6.181   5.297 -0.5167 -0.2395  0.0102
18689TIP3   OH277481   4.838   6.519  16.599 -0.7153  0.5056  0.4146
18689TIP3    H177482   4.800   6.529  16.686 -1.7784 -0.8666  0.1498
18689TIP3    H277483   4.925   6.559  16.605 -1.6758  2.6096  1.4119
18690TIP3   OH277484   1.256   5.464  15.613 -0.3730 -0.2663  0.6168
18690TIP3    H177485   1.270   5.523  15.540 -1.2972 -0.2137  0.4644
18690TIP3    H277486   1.339   5.464  15.661  1.3596 -2.5542 -2.0044
18691TIP3   OH277487   2.159   6.486   1.648  0.3996  0.1599 -0.1426
18691TIP3    H177488   2.240   6.469   1.695 -0.2272 -1.8917  0.2723
18691TIP3    H277489   2.122   6.400   1.630 -2.7923  0.9606  1.6746
18692TIP3   OH277490   6.789   5.473  11.887 -0.4537 -0.1491 -0.4873
18692TIP3    H177491   6.816   5.512  11.804  0.4425 -0.7164 -0.4753
18692TIP3    H277492   6.843   5.516  11.953 -0.0365 -0.8170 -0.3825
18693TIP3   OH277493   5.278   4.837  12.684 -0.3890  0.4497 -0.6152
18693TIP3    H177494   5.332   4.912  12.659 -1.2622  0.7090 -1.8809
18693TIP3    H277495   5.230   4.815  12.603 -0.1363 -1.4889 -0.2844
18694TIP3   OH277496   5.431   5.051   4.527  0.0446  0.3598 -0.3831
18694TIP3    H177497   5.410   5.097   4.608 -0.0713 -0.5214  0.0937
18694TIP3    H277498   5.518   5.084   4.503  0.9932 -0.8527  1.2033
18695TIP3   OH277499   1.971   5.974  16.700  0.6228 -0.5004 -0.7522
18695TIP3    H177500   1.882   5.962  16.667  1.1269  1.4519 -3.0966
18695TIP3    H277501   1.971   5.930  16.786 -2.5040 -0.6993 -0.7421
18696TIP3   OH277502   6.498   2.026   4.077  0.0824  0.1464 -0.9152
18696TIP3    H177503   6.499   2.111   4.120  1.2470 -0.2097 -0.1909
18696TIP3    H277504   6.405   2.001   4.074 -0.1241  0.6784  0.4066
18697TIP3   OH277505   1.439   0.234  14.888 -0.1795 -0.8599  0.4364
18697TIP3    H177506   1.421   0.180  14.811 -0.0772  0.0990 -0.2879
18697TIP3    H277507   1.535   0.242  14.889 -0.2349  2.4520 -1.8206
18698TIP3   OH277508   0.327   5.276   3.112  0.2693  0.2153  0.2369
18698TIP3    H177509   0.317   5.331   3.034 -1.2876 -0.9583 -0.4298
18698TIP3    H277510   0.384   5.327   3.169 -0.1293  1.9754 -0.8542
18699TIP3   OH277511   2.142   5.353  12.372  0.2369  0.1026  0.2720
18699TIP3    H177512   2.049   5.360  12.392  0.1217  0.0788 -0.2602
18699TIP3    H277513   2.172   5.444  12.363 -0.7691  0.1848 -4.3271
18700TIP3   OH277514   3.150   1.223  12.392 -0.0403 -0.3911  0.0698
18700TIP3    H177515   3.102   1.300  12.422  2.0458  1.5344 -1.2319
18700TIP3    H277516   3.152   1.165  12.468 -1.6165  0.8350  1.1134
18701TIP3   OH277517   5.025   2.872  13.529 -0.0473  0.2929  0.8792
18701TIP3    H177518   4.930   2.883  13.532 -0.0167  0.6226  0.7579
18701TIP3    H277519   5.055   2.899  13.615  0.0368  1.3077  0.5499
18702TIP3   OH277520   5.076   2.113   4.975  0.1025  0.2208  0.0664
18702TIP3    H177521   5.161   2.148   4.948  0.3315 -0.1269  0.3276
18702TIP3    H277522   5.081   2.020   4.955 -0.5727  0.3623 -0.7839
18703TIP3   OH277523   4.251   3.566  16.065 -0.0752  0.1868 -0.2661
18703TIP3    H177524   4.311   3.641  16.062  0.7813 -0.5120 -1.2531
18703TIP3    H277525   4.251   3.539  16.156  1.7481 -0.2834 -0.3733
18704TIP3   OH277526   2.880   4.922   4.941 -0.0742 -0.3431 -0.3171
18704TIP3    H177527   2.919   4.841   4.907  2.2086  0.8017 -0.5956
18704TIP3    H277528   2.786   4.903   4.944  0.2520 -2.5551 -1.5779
18705TIP3   OH277529   5.898   0.705  11.465 -0.3503 -0.4734 -0.4066
18705TIP3    H177530   5.971   0.650  11.437  0.0561  0.6640 -1.6636
18705TIP3    H277531   5.842   0.712  11.388 -0.5580  0.6272 -0.1713
18706TIP3   OH277532   3.342   2.838  13.279 -0.1162 -0.5356 -0.2088
18706TIP3    H177533   3.364   2.780  13.351 -0.3866  0.1436  0.4295
18706TIP3    H277534   3.254   2.810  13.252 -0.9250  0.5567  1.1349
18707TIP3   OH277535   4.017   5.019   0.641  0.1873 -0.3014 -0.3039
18707TIP3    H177536   4.038   5.060   0.557  1.3507 -1.1192 -0.4288
18707TIP3    H277537   4.089   4.958   0.657 -1.3739 -2.1769 -0.0349
18708TIP3   OH277538   0.673   2.349  12.846 -0.1271  0.2914  0.1093
18708TIP3    H177539   0.631   2.429  12.816  0.7769  1.4599  1.7769
18708TIP3    H277540   0.724   2.318  12.771  1.2199  2.5135  0.0347
18709TIP3   OH277541   6.708   1.798   5.209 -0.3618 -0.6854  0.3315
18709TIP3    H177542   6.688   1.884   5.246 -0.2058 -0.8995  0.9156
18709TIP3    H277543   6.743   1.818   5.122 -2.5791 -0.2608 -0.5500
18710TIP3   OH277544   1.195   4.254  13.866 -0.2408  0.1797 -0.3092
18710TIP3    H177545   1.241   4.172  13.881 -1.4859 -0.5005 -0.0580
18710TIP3    H277546   1.220   4.309  13.940 -0.9586 -0.7103  0.6342
18711TIP3   OH277547   3.786   1.201   1.865  0.3984  0.2250  0.6132
18711TIP3    H177548   3.709   1.165   1.820  2.0038 -1.5513 -0.8557
18711TIP3    H277549   3.781   1.165   1.953 -0.0421 -0.5248  0.2888
18712TIP3   OH277550   4.203   6.379   5.204 -0.0033 -0.2433  0.0440
18712TIP3    H177551   4.196   6.284   5.199 -1.3155 -0.1082 -2.3544
18712TIP3    H277552   4.290   6.399   5.167 -0.1889 -0.4725 -0.5275
18713TIP3   OH277553   2.008   4.004   3.856 -0.1476 -0.2418  0.2145
18713TIP3    H177554   1.990   4.085   3.903 -0.5567 -0.6422  0.7600
18713TIP3    H277555   2.103   3.995   3.859  0.2044  1.6036 -2.2026
18714TIP3   OH277556   4.448   0.402  16.043  0.4248  0.6638 -0.2858
18714TIP3    H177557   4.384   0.331  16.050 -0.3590  1.0537 -2.4229
18714TIP3    H277558   4.528   0.368  16.082  0.0358 -1.3816 -1.1606
18715TIP3   OH277559   4.723   3.852   3.285 -0.3064 -0.2518  0.7869
18715TIP3    H177560   4.772   3.934   3.289 -0.0263 -0.3518 -0.1966
18715TIP3    H277561   4.718   3.822   3.376  0.7135  0.1960  1.0062
18716TIP3   OH277562   0.031   3.560  16.743 -0.3284 -0.2113  0.4747
18716TIP3    H177563   0.097   3.496  16.772 -1.4535 -1.4727  0.3409
18716TIP3    H277564  -0.043   3.507  16.715 -1.3262  1.1735  0.3988
18717TIP3   OH277565   2.346   5.769  10.880  0.1428 -0.2889  0.1394
18717TIP3    H177566   2.427   5.750  10.928 -0.6107 -0.8199  1.2363
18717TIP3    H277567   2.320   5.856  10.910 -0.8495 -1.0164  1.4912
18718TIP3   OH277568   1.372   3.874  15.461 -0.4194 -0.0573 -0.7217
18718TIP3    H177569   1.293   3.849  15.511  0.1576 -1.5066 -0.4785
18718TIP3    H277570   1.393   3.796  15.410  1.6649 -0.1975  0.2723
18719TIP3   OH277571   5.385   4.357  13.009 -0.2965 -0.6105 -1.0348
18719TIP3    H177572   5.366   4.388  13.098 -2.3409  1.2492 -2.0222
18719TIP3    H277573   5.471   4.316  13.016 -0.7419 -1.2752  1.9510
18720TIP3   OH277574   3.129   6.503  16.604  0.0532 -0.1396 -0.4824
18720TIP3    H177575   3.216   6.537  16.628 -0.0898 -1.0789  1.7040
18720TIP3    H277576   3.080   6.579  16.576  1.3011  0.5618 -0.8643
18721TIP3   OH277577   6.138   0.627  13.991  0.6157  0.7329 -0.0174
18721TIP3    H177578   6.116   0.594  13.904  1.9555 -0.7520  0.1516
18721TIP3    H277579   6.215   0.576  14.017 -0.3407  0.4082  2.4587
18722TIP3   OH277580   4.171   3.308   3.052  0.0888 -0.0165  0.1610
18722TIP3    H177581   4.145   3.398   3.070  1.1080  0.7728 -1.9239
18722TIP3    H277582   4.095   3.269   3.009  0.7711  1.0308 -2.2046
18723TIP3   OH277583   0.221   2.356   1.576 -0.1413 -0.1776 -0.2683
18723TIP3    H177584   0.133   2.382   1.550 -0.5463 -1.2144  0.0181
18723TIP3    H277585   0.277   2.386   1.504 -0.5974  1.1992 -0.0884
18724TIP3   OH277586   0.669   0.677  13.928  0.2355  0.1927  0.3878
18724TIP3    H177587   0.684   0.771  13.926  1.1291  0.1488  2.3607
18724TIP3    H277588   0.740   0.640  13.876  0.8677  0.5305  1.0039
18725TIP3   OH277589   6.153   2.729   5.449 -0.1036 -0.0770  0.3765
18725TIP3    H177590   6.210   2.670   5.399 -0.7563  0.7703 -1.4383
18725TIP3    H277591   6.077   2.675   5.472  0.2083 -0.4791  0.4765
18726TIP3   OH277592   2.035   6.785   4.368  0.6816 -0.3403  0.6288
18726TIP3    H177593   2.029   6.859   4.429  0.1282 -1.9818  2.6583
18726TIP3    H277594   1.949   6.782   4.325  0.5996  0.0010  0.7667
18727TIP3   OH277595   3.661   5.912   2.583  0.0894  0.3735 -0.4439
18727TIP3    H177596   3.645   6.007   2.584  0.3977  0.4390  1.0557
18727TIP3    H277597   3.587   5.876   2.533 -0.3671  1.3498 -0.5081
18728TIP3   OH277598   3.192   2.195   0.236 -0.5690 -0.0052 -0.3536
18728TIP3    H177599   3.161   2.125   0.178 -0.9631  0.3545 -0.5852
18728TIP3    H277600   3.188   2.274   0.182  1.3029 -0.0216 -0.5768
18729TIP3   OH277601   2.341   4.549   5.235  0.0556 -1.1062  0.4208
18729TIP3    H177602   2.417   4.549   5.293  1.8055  1.1361 -1.6453
18729TIP3    H277603   2.286   4.619   5.268  1.7642  1.2044 -1.2350
18730TIP3   OH277604   4.995   6.277  16.521 -0.1898  0.3244  0.4035
18730TIP3    H177605   4.915   6.299  16.473  0.0216 -0.3959 -0.2972
18730TIP3    H277606   5.036   6.361  16.540 -1.9463  0.8421  2.2769
18731TIP3   OH277607   0.617   5.660  16.509 -0.1352  0.2695 -0.1497
18731TIP3    H177608   0.655   5.662  16.421  0.1098 -1.9025 -0.1441
18731TIP3    H277609   0.612   5.567  16.531  0.9230  0.7700  2.6299
18732TIP3   OH277610   6.763   2.866  13.496  0.2179  0.1101 -0.6475
18732TIP3    H177611   6.727   2.800  13.436 -2.7506  1.8614 -0.9741
18732TIP3    H277612   6.774   2.819  13.579  0.3753 -1.3058 -1.4290
18733TIP3   OH277613   2.369   2.311   6.100 -0.0869  0.5588  0.2319
18733TIP3    H177614   2.335   2.238   6.049 -0.6896  0.7811  0.3084
18733TIP3    H277615   2.405   2.271   6.179  1.9861  0.0808 -0.8966
18734TIP3   OH277616   6.376   0.098  12.552  0.1388  0.2203  0.9458
18734TIP3    H177617   6.431   0.176  12.548 -2.4310  2.1074 -0.4940
18734TIP3    H277618   6.286   0.131  12.553 -1.0797 -2.7292  0.9300
18735TIP3   OH277619   0.565   0.801   4.590 -0.1814  0.1367 -0.3408
18735TIP3    H177620   0.568   0.885   4.543  0.0824  0.8632  0.9353
18735TIP3    H277621   0.505   0.816   4.662  1.1054 -0.2548  0.8513
18736TIP3   OH277622   5.583   0.474   6.060  0.2252 -0.1414  0.1020
18736TIP3    H177623   5.504   0.475   6.006  0.8943 -1.6069 -0.9723
18736TIP3    H277624   5.612   0.565   6.061  0.1350 -0.0421 -1.9989
18737TIP3   OH277625   5.099   3.628  11.421  0.2186  0.4279  0.4015
18737TIP3    H177626   5.029   3.666  11.473 -1.1107 -0.3425 -0.7597
18737TIP3    H277627   5.069   3.635  11.331  0.8441 -1.4251 -0.0007
18738TIP3   OH277628   0.669   1.878  15.473 -0.5112  0.1019 -0.0031
18738TIP3    H177629   0.686   1.881  15.379  1.9951 -0.0778  0.3963
18738TIP3    H277630   0.624   1.795  15.487  0.4961 -0.6106 -0.8567
18739TIP3   OH277631   5.444   3.487   2.952 -0.4631 -0.0031 -0.3198
18739TIP3    H177632   5.429   3.562   3.009 -1.4564  0.7712 -1.5496
18739TIP3    H277633   5.504   3.520   2.884  0.5993 -0.8698  0.1780
18740TIP3   OH277634   0.119   3.078   5.036 -0.3186 -0.0598  0.6811
18740TIP3    H177635   0.190   3.026   5.074 -0.2370  0.3274  1.0798
18740TIP3    H277636   0.126   3.163   5.080 -1.0526 -0.0280  0.7545
18741TIP3   OH277637   4.181   2.889   6.040  0.5809 -0.6477 -0.3089
18741TIP3    H177638   4.235   2.968   6.045 -0.6948  0.2203  0.3623
18741TIP3    H277639   4.145   2.889   5.952 -1.9627  1.3342  0.6180
18742TIP3   OH277640   0.471   0.303  17.135 -0.1038  0.1889 -0.2826
18742TIP3    H177641   0.546   0.254  17.168 -0.1859 -0.5589 -1.1765
18742TIP3    H277642   0.404   0.294  17.203  1.2036  2.5095  1.4769
18743TIP3   OH277643   5.733   3.107  16.353  0.1437  0.4824  0.1650
18743TIP3    H177644   5.743   3.014  16.335  0.7319  0.8120 -1.3241
18743TIP3    H277645   5.652   3.113  16.405  0.4915 -0.9044  0.9172
18744TIP3   OH277646   5.685   5.157   4.814  0.0537 -0.3162  0.1578
18744TIP3    H177647   5.602   5.179   4.772  1.3254  1.5971 -1.4991
18744TIP3    H277648   5.674   5.065   4.840 -1.9087 -0.6840 -1.6570
18745TIP3   OH277649   2.071   2.430   3.551 -0.5168  0.1532  0.5910
18745TIP3    H177650   2.123   2.350   3.541  1.6933  1.2751  2.0881
18745TIP3    H277651   1.984   2.407   3.518  1.6248 -0.8732 -5.5673
18746TIP3   OH277652   0.755   1.794  14.684 -0.2611  0.0174  0.3908
18746TIP3    H177653   0.846   1.819  14.697 -0.2963 -0.3081  1.3759
18746TIP3    H277654   0.751   1.702  14.711 -1.0790  0.3186  1.3960
18747TIP3   OH277655   4.104   0.017   5.230  0.4605  0.1020 -0.0853
18747TIP3    H177656   4.091  -0.042   5.304 -0.0985 -0.6884 -0.7914
18747TIP3    H277657   4.127   0.101   5.270  2.4720 -0.8432  0.9308
18748TIP3   OH277658   3.045   0.571  13.665  0.1319 -0.1376  0.7239
18748TIP3    H177659   2.957   0.588  13.698  0.4249  1.8507  0.6136
18748TIP3    H277660   3.097   0.645  13.695  0.9823  0.4951 -1.9953
18749TIP3   OH277661   5.860   1.021   5.319 -0.5798 -0.5095 -0.1055
18749TIP3    H177662   5.907   1.012   5.402 -0.3934  0.8395 -0.0424
18749TIP3    H277663   5.833   0.931   5.297  0.7245 -1.0974  0.5994
18750TIP3   OH277664   3.696   4.649   3.645 -0.4811 -0.4697 -0.1114
18750TIP3    H177665   3.715   4.729   3.694 -0.5976 -0.0215 -0.7802
18750TIP3    H277666   3.778   4.601   3.645 -0.0506  0.2492 -0.7891
18751TIP3   OH277667   0.766   4.501  13.601 -0.1562  0.1106  0.0855
18751TIP3    H177668   0.856   4.512  13.633 -0.1482  0.2536  0.0146
18751TIP3    H277669   0.760   4.560  13.526  0.1664 -1.0152 -0.8514
18752TIP3   OH277670   2.177   3.072  14.367  0.3821  0.1346  0.3222
18752TIP3    H177671   2.169   3.051  14.460  1.2522  1.2808  0.6777
18752TIP3    H277672   2.087   3.071  14.335  0.0198  0.2427  1.2867
18753TIP3   OH277673   2.155   5.834  16.119 -0.2331 -0.4328  0.2656
18753TIP3    H177674   2.063   5.826  16.092 -0.2791 -0.5935  0.4697
18753TIP3    H277675   2.182   5.919  16.085 -0.4812 -0.3485  0.2750
18754TIP3   OH277676   6.744   0.919  15.952 -0.3965  0.2433  0.4529
18754TIP3    H177677   6.803   0.847  15.972  0.5350  0.4452 -1.4323
18754TIP3    H277678   6.795   0.998  15.972  0.5721  0.4555 -2.4851
18755TIP3   OH277679   1.524   2.529  12.969 -0.0217  0.4595  0.6463
18755TIP3    H177680   1.440   2.536  12.923 -0.1331  1.5039  0.9906
18755TIP3    H277681   1.590   2.531  12.899 -0.2228  1.3008  0.4711
18756TIP3   OH277682   2.914   1.479   2.707 -0.5495  0.0813 -0.1324
18756TIP3    H177683   2.909   1.471   2.611  2.3038 -1.6982 -0.2733
18756TIP3    H277684   2.850   1.416   2.740 -1.0986  0.2270 -0.9030
18757TIP3   OH277685   1.480   4.770  12.928  0.4699  0.0915 -0.5765
18757TIP3    H177686   1.569   4.793  12.904  0.4450  0.3173 -0.4560
18757TIP3    H277687   1.478   4.776  13.023  0.3665 -0.0642 -0.5681
18758TIP3   OH277688   5.759   0.561   3.072  0.8864  0.2439  0.2904
18758TIP3    H177689   5.794   0.565   2.983 -1.8691 -1.5372 -1.0260
18758TIP3    H277690   5.754   0.652   3.100  3.0254  0.7617 -0.8027
18759TIP3   OH277691   5.137   5.812   3.520  0.6794  0.2718 -0.2149
18759TIP3    H177692   5.045   5.826   3.498  0.8866  0.8216 -0.7782
18759TIP3    H277693   5.170   5.900   3.542  0.8799 -0.0315  0.7494
18760TIP3   OH277694   6.409   4.391   3.831 -0.3215 -0.0716 -0.1155
18760TIP3    H177695   6.331   4.345   3.800 -1.4490  1.7840 -0.1460
18760TIP3    H277696   6.407   4.380   3.926 -0.6069 -0.0490 -0.1182
18761TIP3   OH277697   3.960   2.657   1.321 -0.4681  0.0486 -0.3200
18761TIP3    H177698   3.996   2.613   1.244  0.2300  1.5987 -0.9029
18761TIP3    H277699   4.035   2.699   1.363 -0.8391 -0.7669  1.2304
18762TIP3   OH277700   2.460   0.008  16.436  0.2813 -0.3956 -0.0290
18762TIP3    H177701   2.544   0.053  16.428  0.1077 -0.0268  0.2337
18762TIP3    H277702   2.451  -0.012  16.529  0.3458 -0.9568 -0.1372
18763TIP3   OH277703   1.859   3.335  13.742 -0.4262  0.1871 -0.2062
18763TIP3    H177704   1.779   3.288  13.764 -0.6598  0.5618 -0.2350
18763TIP3    H277705   1.908   3.275  13.685 -0.4224 -0.2641  0.2677
18764TIP3   OH277706   3.293   5.196  10.733  0.5567  0.2436  0.1436
18764TIP3    H177707   3.360   5.257  10.763  0.5458  0.5737 -0.4928
18764TIP3    H277708   3.283   5.214  10.640  1.0438 -1.2038 -0.2239
18765TIP3   OH277709   3.261   2.232  14.451 -0.1789  0.0430  0.3185
18765TIP3    H177710   3.272   2.252  14.358 -0.4920  0.3933  0.3515
18765TIP3    H277711   3.179   2.275  14.475 -0.2020 -0.2109  0.7105
18766TIP3   OH277712   1.716   0.734  12.742  0.1074 -0.2278  0.3155
18766TIP3    H177713   1.748   0.813  12.786 -0.7723  0.4007 -0.1392
18766TIP3    H277714   1.671   0.767  12.664 -1.4313 -1.0704  0.8036
18767TIP3   OH277715   0.349   2.703   1.643 -0.2378 -0.2775 -0.3669
18767TIP3    H177716   0.256   2.725   1.652  0.0600  1.5449 -1.3703
18767TIP3    H277717   0.396   2.775   1.686  0.7510 -1.8335  1.3302
18768TIP3   OH277718   2.450   2.018   5.621 -0.2022  0.2013 -0.7680
18768TIP3    H177719   2.508   1.974   5.682 -0.4355 -1.1678 -1.4995
18768TIP3    H277720   2.373   1.962   5.615 -0.7942  1.0323 -1.2483
18769TIP3   OH277721   5.638   0.752   0.072  0.4368 -0.0099  0.6087
18769TIP3    H177722   5.722   0.713   0.097 -0.0832 -0.7354  1.2594
18769TIP3    H277723   5.610   0.799   0.150 -0.4251 -0.9294  0.8592
18770TIP3   OH277724   3.130   1.180  11.547  0.4532  0.3155 -0.2170
18770TIP3    H177725   3.054   1.154  11.599 -1.3118  2.6007 -1.4667
18770TIP3    H277726   3.205   1.170  11.607 -1.1293  0.3365  1.8915
18771TIP3   OH277727   1.116   6.765  10.496  0.0345  0.0279  0.3160
18771TIP3    H177728   1.128   6.673  10.522  0.6152  0.0672  0.2101
18771TIP3    H277729   1.046   6.762  10.431  0.2346 -0.3799  0.1106
18772TIP3   OH277730   2.652   5.712  16.630 -0.2001  0.3580 -0.1895
18772TIP3    H177731   2.684   5.796  16.662  0.7301  0.6721 -1.8282
18772TIP3    H277732   2.619   5.667  16.708  2.0321  1.0129  1.2127
18773TIP3   OH277733   3.486   6.218  13.582 -0.0317 -0.7374  0.4515
18773TIP3    H177734   3.414   6.234  13.520  0.0844  1.2421  0.7613
18773TIP3    H277735   3.563   6.252  13.537  0.2250 -0.2599  1.2471
18774TIP3   OH277736   1.346   4.218   4.428 -0.2438 -0.1677  0.2437
18774TIP3    H177737   1.334   4.313   4.427  1.0100  0.0454  1.5441
18774TIP3    H277738   1.303   4.189   4.508  2.4442 -0.1446  1.8307
18775TIP3   OH277739   1.521   5.553  13.242  0.0650  0.2839  0.0400
18775TIP3    H177740   1.582   5.552  13.168 -0.2491 -2.0078 -0.2487
18775TIP3    H277741   1.573   5.524  13.317  0.1949  1.8934  0.6312
18776TIP3   OH277742   6.524   4.736   4.969 -0.3986 -0.4784 -0.7816
18776TIP3    H177743   6.532   4.668   5.036  0.8456  0.1656 -0.2183
18776TIP3    H277744   6.583   4.709   4.899  2.0593  1.1278  0.5099
18777TIP3   OH277745   4.471   6.579  14.446 -0.0038  0.1176  0.5491
18777TIP3    H177746   4.545   6.609  14.393 -0.1471  1.7097  1.1846
18777TIP3    H277747   4.398   6.633  14.417 -0.5067 -0.2282  1.1460
18778TIP3   OH277748   1.095   5.252  16.834  0.0907  0.4648  0.0940
18778TIP3    H177749   1.046   5.323  16.874 -0.0737  0.2779  0.2281
18778TIP3    H277750   1.183   5.287  16.821 -0.9560  2.2568 -3.8153
18779TIP3   OH277751   0.905   5.584   5.433 -0.8309 -0.0480  0.7680
18779TIP3    H177752   0.839   5.653   5.425 -1.4605 -0.7021  0.1622
18779TIP3    H277753   0.901   5.537   5.349  0.7810  0.2223  0.5043
18780TIP3   OH277754   4.732   2.668  13.894 -0.2980  0.4138 -0.1771
18780TIP3    H177755   4.744   2.757  13.928  0.4621 -0.7358  2.9125
18780TIP3    H277756   4.639   2.663  13.872 -0.8572  1.3627  1.7219
18781TIP3   OH277757   6.740   1.255   5.119 -0.2353  0.7248  0.5617
18781TIP3    H177758   6.813   1.300   5.076  0.5452 -0.9412  0.0448
18781TIP3    H277759   6.741   1.289   5.209  1.3794  0.5578  0.6494
18782TIP3   OH277760   3.925   5.658   3.365 -0.5399  0.1196 -0.9157
18782TIP3    H177761   3.909   5.744   3.325 -3.3694  0.5541  0.8135
18782TIP3    H277762   4.005   5.626   3.324  0.5044  3.4764 -1.7961
18783TIP3   OH277763   6.155   5.654  15.838 -0.6562 -0.1514  0.6336
18783TIP3    H177764   6.233   5.599  15.822  1.2187  2.3425  0.5970
18783TIP3    H277765   6.142   5.650  15.933 -2.1088 -2.5176  0.4244
18784TIP3   OH277766   3.937   5.598  15.210 -0.4888 -0.2070 -0.4245
18784TIP3    H177767   3.855   5.639  15.239 -0.8619 -1.2137  0.0049
18784TIP3    H277768   3.998   5.670  15.199 -0.7041  0.3491  1.6432
18785TIP3   OH277769   1.580   5.335  10.909 -0.3090 -0.0521  0.1550
18785TIP3    H177770   1.501   5.334  10.962 -0.7931  0.2923 -0.5546
18785TIP3    H277771   1.570   5.260  10.850 -0.9227  0.9860 -1.1030
18786TIP3   OH277772   3.979   0.291   0.707  0.0221 -0.8477 -0.0495
18786TIP3    H177773   4.074   0.299   0.710  0.2417 -3.0564  1.8396
18786TIP3    H277774   3.962   0.198   0.722 -2.4474 -0.6132 -0.8218
18787TIP3   OH277775   3.502   4.031   1.644 -0.1857  0.0112  0.4941
18787TIP3    H177776   3.579   4.085   1.630 -0.1804 -0.0023  0.4710
18787TIP3    H277777   3.524   3.974   1.718 -0.3195  0.2808  0.7426
18788TIP3   OH277778   5.172   4.917   4.128 -0.1034 -0.5115 -0.4457
18788TIP3    H177779   5.108   4.979   4.092  1.5641  0.4353 -1.9552
18788TIP3    H277780   5.204   4.959   4.208 -0.6220 -0.5249 -0.2248
18789TIP3   OH277781   6.297   3.181  15.260 -0.2816  0.1565  0.7156
18789TIP3    H177782   6.370   3.241  15.245  1.0186 -1.4579  0.3366
18789TIP3    H277783   6.337   3.102  15.295 -1.5716 -1.5658 -1.4692
18790TIP3   OH277784   1.047   2.103  15.771 -0.3830  0.2769 -0.1291
18790TIP3    H177785   1.108   2.134  15.838  0.0539 -4.2724  1.9971
18790TIP3    H277786   1.104   2.072  15.700 -0.6971  2.2568 -1.3051
18791TIP3   OH277787   1.158   4.331  13.542 -0.0741 -0.7356  0.3400
18791TIP3    H177788   1.150   4.264  13.610 -0.1958 -0.4858  0.5740
18791TIP3    H277789   1.078   4.322  13.490  0.3064 -1.3436 -0.1525
18792TIP3   OH277790   5.398   2.342  15.366  0.1465 -0.3179 -0.0232
18792TIP3    H177791   5.312   2.319  15.401  0.0707  0.3656  0.2403
18792TIP3    H277792   5.439   2.394  15.434  0.8362 -0.7614 -0.0866
18793TIP3   OH277793   2.561   3.831   0.601  0.0355  0.2616 -0.1814
18793TIP3    H177794   2.534   3.899   0.539 -2.3176  0.2806  0.7567
18793TIP3    H277795   2.483   3.777   0.612  1.7052 -2.3879 -0.5598
18794TIP3   OH277796   0.374   2.636   0.968  0.2590 -0.1112 -0.4341
18794TIP3    H177797   0.293   2.646   1.019  1.7444  0.9680  1.8615
18794TIP3    H277798   0.368   2.547   0.933 -1.0145 -0.8260  1.3932
18795TIP3   OH277799   2.674   5.849   5.268 -0.1428 -0.2694  0.0827
18795TIP3    H177800   2.734   5.921   5.247 -0.7085 -0.3011 -1.8103
18795TIP3    H277801   2.732   5.776   5.290  0.6050 -0.4384 -2.1585
18796TIP3   OH277802   2.730   1.844   4.061  0.3297 -0.4550 -1.0114
18796TIP3    H177803   2.789   1.808   3.995 -1.1677  0.0954 -2.7107
18796TIP3    H277804   2.643   1.840   4.021 -0.4505  1.1405  0.3913
18797TIP3   OH277805   1.639   1.408   2.919 -0.0883  0.0105  0.4696
18797TIP3    H177806   1.687   1.481   2.956 -2.2492  0.5364  2.4680
18797TIP3    H277807   1.607   1.441   2.835 -1.0057  1.3999  1.3299
18798TIP3   OH277808   3.433   4.525   4.044  0.3354  0.5182 -0.0840
18798TIP3    H177809   3.369   4.454   4.041 -1.4299  2.0527 -2.3190
18798TIP3    H277810   3.506   4.494   3.991  0.9933 -0.8017  1.5351
18799TIP3   OH277811   1.358   0.645   5.823 -0.3226 -0.2425  0.2363
18799TIP3    H177812   1.330   0.683   5.739 -0.0175 -0.2282  0.1395
18799TIP3    H277813   1.370   0.721   5.880 -0.7530 -0.2665  0.3648
18800TIP3   OH277814   3.009   1.967  15.386  0.0117 -0.0960 -0.7086
18800TIP3    H177815   2.978   1.982  15.476 -1.0763  1.0860 -1.2473
18800TIP3    H277816   3.079   2.032  15.374  0.1234 -0.2210 -0.7381
18801TIP3   OH277817   5.788   2.822   3.211 -0.3275 -0.7584 -0.0565
18801TIP3    H177818   5.754   2.751   3.156  0.9266 -0.0671 -1.8296
18801TIP3    H277819   5.855   2.864   3.157 -0.0196  0.8713  1.4950
18802TIP3   OH277820   4.021   0.399  11.838 -0.3429  0.3526  0.7183
18802TIP3    H177821   3.932   0.368  11.821 -0.1569 -0.9673  1.8861
18802TIP3    H277822   4.069   0.320  11.864  1.7850  0.5849 -1.9952
18803TIP3   OH277823   3.184   0.686   3.239 -0.0113 -0.4300 -0.6416
18803TIP3    H177824   3.236   0.764   3.254  1.6950 -1.1995 -2.1310
18803TIP3    H277825   3.239   0.614   3.269 -1.5642 -1.1058  0.7592
18804TIP3   OH277826   0.336   0.986  14.573 -0.0890  0.0507 -0.4727
18804TIP3    H177827   0.262   0.967  14.631  1.1270 -0.0867  1.0958
18804TIP3    H277828   0.302   0.970  14.485 -1.2726 -2.3700  0.3172
18805TIP3   OH277829   1.800   5.640  16.140  0.0785 -0.8427 -0.2397
18805TIP3    H177830   1.779   5.688  16.220  1.6254 -1.5189  0.6256
18805TIP3    H277831   1.840   5.559  16.170 -0.1726 -1.5422 -1.7020
18806TIP3   OH277832   4.792   4.918  14.650  0.0475 -0.3093 -0.3911
18806TIP3    H177833   4.843   4.972  14.589 -1.3517 -2.7353 -4.0396
18806TIP3    H277834   4.705   4.957  14.649 -0.2608 -0.9908 -0.8756
18807TIP3   OH277835   3.645   6.311   3.568 -0.8253 -0.5524  0.4174
18807TIP3    H177836   3.589   6.359   3.629 -2.8370 -1.0085 -0.9940
18807TIP3    H277837   3.721   6.369   3.556 -0.9249  0.0732  2.3907
18808TIP3   OH277838   2.526   4.475  15.959 -0.4697  0.3854  0.2461
18808TIP3    H177839   2.518   4.570  15.967 -0.8022  0.2202  2.7127
18808TIP3    H277840   2.617   4.457  15.984 -0.1278  0.1057 -1.1410
18809TIP3   OH277841   2.558   2.860   0.839  0.7926  0.1650 -0.3492
18809TIP3    H177842   2.581   2.950   0.813  0.8606 -0.0659 -1.1177
18809TIP3    H277843   2.463   2.863   0.851  0.6039  0.0364 -1.6787
18810TIP3   OH277844   5.533   5.493   2.297 -0.0142 -0.1413  0.3445
18810TIP3    H177845   5.567   5.542   2.222  1.3053 -0.7307  0.5188
18810TIP3    H277846   5.473   5.430   2.259 -1.0902  1.0360  0.0339
18811TIP3   OH277847   5.657   5.730   4.391 -0.4893  0.7570 -0.6368
18811TIP3    H177848   5.688   5.639   4.400 -2.4853 -0.0641 -1.4724
18811TIP3    H277849   5.673   5.769   4.477 -1.3696 -0.9912  0.3771
18812TIP3   OH277850   0.691   1.196   0.512 -0.6644 -0.1204 -0.3101
18812TIP3    H177851   0.724   1.284   0.494  0.8104 -0.9004 -1.5850
18812TIP3    H277852   0.754   1.159   0.574 -1.2020 -0.3458  0.1127
18813TIP3   OH277853   5.461   4.947   2.503  0.1374  0.0273 -0.0369
18813TIP3    H177854   5.423   5.027   2.540  1.2420  1.0872 -1.0970
18813TIP3    H277855   5.518   4.913   2.572 -1.3439 -0.6223  0.9202
18814TIP3   OH277856   4.627   1.595  16.983 -0.0097 -0.2763  0.0599
18814TIP3    H177857   4.551   1.591  16.925  0.0221 -0.2155  0.0142
18814TIP3    H277858   4.702   1.607  16.925 -0.2077  2.5891  0.2180
18815TIP3   OH277859   1.013   1.279  15.226 -0.2737 -0.5676 -0.5856
18815TIP3    H177860   1.003   1.214  15.157 -2.2043 -1.1430  0.1661
18815TIP3    H277861   0.962   1.244  15.299  1.4651  0.1626  1.0475
18816TIP3   OH277862   3.036   2.948  14.186  0.4691 -0.0206  0.2284
18816TIP3    H177863   3.116   2.898  14.166  0.0743 -0.0449 -1.3482
18816TIP3    H277864   2.997   2.901  14.260 -0.3999 -2.7082 -1.7982
18817TIP3   OH277865   4.039   6.710  17.061  0.0405 -0.0132  0.1137
18817TIP3    H177866   4.016   6.659  17.139  1.1918  0.3123  0.6854
18817TIP3    H277867   3.957   6.714  17.011 -0.7152 -0.2660  1.2701
18818TIP3   OH277868   5.052   0.761   0.124 -0.4097  0.0540  0.1592
18818TIP3    H177869   5.037   0.852   0.095  1.0691  0.0307 -0.8055
18818TIP3    H277870   5.017   0.707   0.054 -0.5739 -0.1050  0.3621
18819TIP3   OH277871   2.272   5.147  10.794 -0.0433 -0.0912  0.9652
18819TIP3    H177872   2.270   5.104  10.709  0.1114  2.2630 -0.3266
18819TIP3    H277873   2.325   5.090  10.849 -0.0426 -1.6148 -0.5455
18820TIP3   OH277874   2.369   0.247   2.561 -0.0971  0.0957 -0.1988
18820TIP3    H177875   2.277   0.243   2.587 -0.5050  1.8519 -1.2177
18820TIP3    H277876   2.380   0.176   2.499 -1.1207  0.6365 -1.0311
18821TIP3   OH277877   2.796   4.269  15.787 -0.2562 -0.1157  0.6973
18821TIP3    H177878   2.770   4.274  15.879  1.4993  1.6660  1.1847
18821TIP3    H277879   2.741   4.334  15.743  0.7444  1.0287  1.0572
18822TIP3   OH277880   2.412   1.213   3.654  0.1454 -0.0819  0.3466
18822TIP3    H177881   2.328   1.171   3.672 -0.0410  1.0557  2.5535
18822TIP3    H277882   2.436   1.184   3.566 -2.1099 -1.1418  0.0205
18823TIP3   OH277883   2.722   4.281  16.930  0.0095 -0.2650 -0.4011
18823TIP3    H177884   2.729   4.334  17.009  0.5143 -0.2850 -0.4337
18823TIP3    H277885   2.632   4.246  16.933 -0.9243  1.9144 -1.2215
18824TIP3   OH277886   6.337   6.664  14.526 -0.0254 -0.0495  0.0304
18824TIP3    H177887   6.311   6.607  14.598  0.4566 -0.9723 -0.5129
18824TIP3    H277888   6.397   6.727  14.566 -0.1311 -0.2519  0.5200
18825TIP3   OH277889   6.114   3.609   2.459 -0.3582  0.4001 -0.0933
18825TIP3    H177890   6.100   3.701   2.484 -1.3357  0.5892 -1.2461
18825TIP3    H277891   6.140   3.613   2.367  0.5056 -0.4391  0.1004
18826TIP3   OH277892   0.831   2.694  13.774  0.2176 -0.6062 -0.0379
18826TIP3    H177893   0.818   2.771  13.719 -1.8065 -2.4116 -2.2840
18826TIP3    H277894   0.918   2.706  13.812  1.3821  1.1869 -2.9567
18827TIP3   OH277895   2.362   1.474   0.754  0.0520  0.0824 -0.5092
18827TIP3    H177896   2.356   1.423   0.835 -1.1946 -0.9956 -1.2189
18827TIP3    H277897   2.367   1.565   0.783 -1.6485 -0.1729  0.8119
18828TIP3   OH277898   5.641   4.226  15.762 -0.1039  0.2311 -0.2692
18828TIP3    H177899   5.634   4.131  15.755  0.3948  0.2996 -2.2607
18828TIP3    H277900   5.715   4.249  15.705 -0.6293  1.8706 -0.3424
18829TIP3   OH277901   3.993   4.621   2.110  0.0857  0.0338 -0.7346
18829TIP3    H177902   4.001   4.678   2.186 -2.5545 -0.1584 -0.2065
18829TIP3    H277903   4.035   4.670   2.039  0.5200  1.2752  0.3496
18830TIP3   OH277904   3.401   2.706   1.224 -0.5524 -0.0943 -0.2125
18830TIP3    H177905   3.323   2.652   1.216 -0.1460 -0.5486 -1.3041
18830TIP3    H277906   3.474   2.644   1.215 -0.0565  0.3228  0.7597
18831TIP3   OH277907   3.671   2.814  11.235  0.1033  0.3085 -0.4003
18831TIP3    H177908   3.579   2.797  11.257  0.0768  0.9768  0.0539
18831TIP3    H277909   3.698   2.739  11.182 -0.6916  0.0852 -0.4967
18832TIP3   OH277910   0.729   2.450  12.470 -0.0048 -0.3399 -0.1315
18832TIP3    H177911   0.780   2.420  12.545 -0.4301 -2.5823 -0.6727
18832TIP3    H277912   0.778   2.419  12.394 -0.1311  0.9919 -0.7953
18833TIP3   OH277913   3.604   3.312  10.539  0.5722 -0.0682 -0.5774
18833TIP3    H177914   3.551   3.387  10.567 -0.1145 -0.2108 -1.4525
18833TIP3    H277915   3.581   3.243  10.600 -1.2205 -0.4980 -1.6673
18834TIP3   OH277916   3.126   1.582  12.504 -0.1008  0.0069  0.0151
18834TIP3    H177917   3.097   1.525  12.432  1.5525  1.3740 -1.8219
18834TIP3    H277918   3.064   1.655  12.502  0.8552  0.8263 -1.1240
18835TIP3   OH277919   5.625   0.825   0.888  0.1854 -0.2276 -0.7346
18835TIP3    H177920   5.530   0.826   0.882  0.1805  0.2271 -0.6320
18835TIP3    H277921   5.645   0.742   0.932 -0.2932  0.5418  1.0462
18836TIP3   OH277922   2.066   0.416  14.148 -0.0259 -0.9110 -0.0408
18836TIP3    H177923   2.157   0.403  14.174  0.0022 -1.3528 -0.3385
18836TIP3    H277924   2.015   0.369  14.214 -0.0314 -0.7003  0.1014
18837TIP3   OH277925   3.452   1.633  12.540  0.1654 -0.2176 -0.6411
18837TIP3    H177926   3.367   1.646  12.499  0.7570  0.4916 -1.6935
18837TIP3    H277927   3.492   1.561  12.490  0.5885  0.1361 -0.8191
18838TIP3   OH277928   6.772   5.723  11.451  0.1135 -0.4487 -0.6330
18838TIP3    H177929   6.830   5.724  11.375 -0.7564  0.9865 -1.3243
18838TIP3    H277930   6.749   5.815  11.465 -2.3730 -0.9861 -0.7150
18839TIP3   OH277931   4.978   4.887  15.913  0.2657  0.7357  0.8668
18839TIP3    H177932   5.022   4.896  15.829  0.8302  1.2062  1.2132
18839TIP3    H277933   5.025   4.945  15.972 -0.7937  1.2432  1.2533
18840TIP3   OH277934   4.497   4.631   5.556 -0.2240  0.0379  0.4907
18840TIP3    H177935   4.412   4.611   5.595 -1.0980  0.1037 -1.2693
18840TIP3    H277936   4.505   4.726   5.563  0.2755 -0.0729  1.7095
18841TIP3   OH277937   0.434   0.551   1.795  0.2380  0.0038 -0.3955
18841TIP3    H177938   0.457   0.601   1.873  0.6404  1.5461 -1.4607
18841TIP3    H277939   0.357   0.500   1.821  0.4156  0.4088  1.0240
18842TIP3   OH277940   1.078   4.971  12.604 -0.6778 -0.1135  0.3802
18842TIP3    H177941   1.130   5.050  12.593  1.3737 -1.3322  0.7298
18842TIP3    H277942   1.064   4.938  12.515  1.2920 -1.0228  0.3527
18843TIP3   OH277943   4.643   3.012  12.967  0.0466 -0.1170 -0.2742
18843TIP3    H177944   4.578   3.037  12.901 -0.5082  1.5354  0.8206
18843TIP3    H277945   4.641   3.083  13.031  2.0731 -0.6167  0.4464
18844TIP3   OH277946   5.812   5.384   1.115  0.8642 -0.0542 -0.0223
18844TIP3    H177947   5.806   5.480   1.106  0.6420  0.6516  4.8790
18844TIP3    H277948   5.723   5.353   1.098  1.0079  0.4486 -1.9977
18845TIP3   OH277949   1.581   2.887   4.213 -0.2423 -0.6447  0.3043
18845TIP3    H177950   1.603   2.917   4.125 -2.2945  0.8014  0.2081
18845TIP3    H277951   1.645   2.930   4.270 -0.5362  0.5843 -0.2584
18846TIP3   OH277952   3.789   5.560  11.276  0.1076  0.0075 -0.1001
18846TIP3    H177953   3.704   5.589  11.243 -1.6239 -2.7887  1.4318
18846TIP3    H277954   3.818   5.493  11.214  0.5926  0.0726  0.0491
18847TIP3   OH277955   0.976   1.423   4.658  0.0916  0.0425  0.6291
18847TIP3    H177956   0.929   1.506   4.656 -0.4863 -0.2266  1.7549
18847TIP3    H277957   1.067   1.446   4.676  0.3756  0.5511 -1.2563
18848TIP3   OH277958   4.062   3.328  11.584  0.0051 -0.4854  0.1737
18848TIP3    H177959   4.118   3.314  11.661  1.1383 -0.0717 -0.5586
18848TIP3    H277960   4.014   3.408  11.604 -0.0411 -0.6253  0.6418
18849TIP3   OH277961   6.165   5.143   0.243  0.0519  0.2059  0.0854
18849TIP3    H177962   6.128   5.231   0.256 -1.3617 -0.3164 -0.1902
18849TIP3    H277963   6.247   5.144   0.292  0.1605  1.7414 -0.0727
18850TIP3   OH277964   4.734   4.762  12.646 -0.1379  0.4261  0.3272
18850TIP3    H177965   4.663   4.710  12.609  2.0346 -1.5578 -1.4413
18850TIP3    H277966   4.811   4.736  12.595  1.6676  3.3021  1.3392
18851TIP3   OH277967   4.628   4.265   1.497 -0.1676  0.1629  0.3959
18851TIP3    H177968   4.710   4.218   1.509  1.3507  3.0147  2.5065
18851TIP3    H277969   4.579   4.249   1.577 -0.7510  0.1475  0.0424
18852TIP3   OH277970   3.970   0.566  10.573 -0.2751 -0.1134  0.3706
18852TIP3    H177971   3.908   0.634  10.602 -1.6828 -0.6645 -1.1806
18852TIP3    H277972   3.929   0.484  10.600  1.9871 -0.4545  3.3354
18853TIP3   OH277973   1.748   5.736  15.720 -0.6241  0.3017 -0.1020
18853TIP3    H177974   1.762   5.765  15.630  1.0188  2.3829  0.7438
18853TIP3    H277975   1.739   5.641  15.713  0.3325  0.3069 -2.3684
18854TIP3   OH277976   2.846   2.831  13.223 -0.2008 -0.0038  0.0695
18854TIP3    H177977   2.781   2.890  13.260 -0.1709 -0.0049  0.1236
18854TIP3    H277978   2.835   2.749  13.272  1.4799  0.7130  1.7913
18855TIP3   OH277979   5.374   0.442  11.952 -0.5395  0.6747  0.0419
18855TIP3    H177980   5.422   0.428  12.034 -1.5622  0.2950  0.5903
18855TIP3    H277981   5.418   0.385  11.889  0.5845  1.3545  0.1843
18856TIP3   OH277982   0.487   3.582  14.585  0.2832 -0.0089 -0.3308
18856TIP3    H177983   0.485   3.505  14.529  2.7777  1.8442 -3.2930
18856TIP3    H277984   0.568   3.627  14.563 -0.8704  3.3528  1.4129
18857TIP3   OH277985   4.583   6.404  15.192 -0.2006 -0.5875 -0.2139
18857TIP3    H177986   4.668   6.390  15.149 -0.3382  0.6224 -0.9176
18857TIP3    H277987   4.537   6.320  15.181  1.0219 -1.3878  0.4969
18858TIP3   OH277988   5.520   0.372  11.707 -0.1433 -0.0021  0.2696
18858TIP3    H177989   5.571   0.295  11.734  1.1397 -0.2192 -2.4861
18858TIP3    H277990   5.437   0.335  11.676 -1.0163  0.1258  2.2776
18859TIP3   OH277991   3.492   4.014  15.082  0.0390  0.0584  0.1762
18859TIP3    H177992   3.563   3.976  15.030  0.4051  0.0684  0.6541
18859TIP3    H277993   3.413   3.999  15.030  0.2831 -0.6720 -0.0021
18860TIP3   OH277994   2.017   0.639   1.987  0.1541  0.1324  0.6982
18860TIP3    H177995   2.053   0.720   2.022 -0.5803  0.0945  1.5923
18860TIP3    H277996   2.089   0.601   1.936  0.4644  1.3921  0.1571
18861TIP3   OH277997   5.121   2.075   2.492  0.0626  0.8938 -0.7901
18861TIP3    H177998   5.047   2.032   2.449  0.6577 -1.6424  0.5200
18861TIP3    H277999   5.115   2.048   2.583  2.1536  1.2511 -0.4942
18862TIP3   OH278000   2.362   6.482  13.174 -0.2530 -0.2164  0.6400
18862TIP3    H178001   2.382   6.575  13.184  0.4398 -0.2892 -0.0189
18862TIP3    H278002   2.276   6.481  13.131  0.0232  0.1256  0.0700
18863TIP3   OH278003   1.330   3.460   3.749 -0.6953 -0.0957  0.5424
18863TIP3    H178004   1.261   3.426   3.691  0.1203 -0.1395 -0.4225
18863TIP3    H278005   1.394   3.389   3.754  1.0606  1.2165 -1.5458
18864TIP3   OH278006   3.854   3.428  16.701  0.2993  0.0329  0.3619
18864TIP3    H178007   3.786   3.365  16.727  1.2094 -0.9227  0.4935
18864TIP3    H278008   3.884   3.466  16.783 -0.7309  1.1656  0.2291
18865TIP3   OH278009   3.283   2.605   4.026 -0.2132 -0.8152 -0.3687
18865TIP3    H178010   3.349   2.670   4.050 -2.1388  0.6650  1.3619
18865TIP3    H278011   3.303   2.529   4.081 -0.7803  0.2060  1.3565
18866TIP3   OH278012   2.603   3.058  10.741 -0.3585  0.4487  0.2339
18866TIP3    H178013   2.575   3.050  10.649  0.6650  1.5156 -0.1979
18866TIP3    H278014   2.676   2.998  10.749 -0.1171  0.7335  0.1970
18867TIP3   OH278015   2.330   3.471   0.045  0.1700  0.3463  0.1275
18867TIP3    H178016   2.315   3.410  -0.027 -0.2993 -0.6438  1.0389
18867TIP3    H278017   2.243   3.505   0.066  0.4567  1.5577 -0.5420
18868TIP3   OH278018   0.979   1.998   4.038 -0.5997 -0.2873  0.1780
18868TIP3    H178019   1.024   2.039   4.112  0.9766 -0.0266 -0.8702
18868TIP3    H278020   1.039   1.930   4.007 -0.7462  0.2642 -1.4548
18869TIP3   OH278021   1.468   3.308  16.822 -0.1542 -0.7667  0.2669
18869TIP3    H178022   1.460   3.345  16.910 -1.7610  0.0840 -0.1811
18869TIP3    H278023   1.383   3.327  16.781 -0.0151 -2.5193 -0.9460
18870TIP3   OH278024   2.991   5.613  15.783  0.2273 -0.0585 -0.5328
18870TIP3    H178025   2.954   5.700  15.772 -0.6229 -0.4896 -1.1544
18870TIP3    H278026   3.045   5.620  15.863  0.2956  1.0604 -0.6555
18871TIP3   OH278027   2.962   5.895   4.853 -0.1058  0.3462  0.5607
18871TIP3    H178028   2.900   5.957   4.892 -0.3613 -0.2930  1.2098
18871TIP3    H278029   2.924   5.809   4.872  1.2307 -0.0854  1.4506
18872TIP3   OH278030   0.958   2.106   2.893  0.0448  0.7785 -0.0590
18872TIP3    H178031   1.053   2.116   2.887  0.3463 -2.2203 -3.0813
18872TIP3    H278032   0.946   2.020   2.931 -1.4821  0.9143 -0.1970
18873TIP3   OH278033   1.955   5.007  13.210 -0.3344  0.1549 -0.2768
18873TIP3    H178034   1.948   5.055  13.292  1.3781 -0.4859  0.2924
18873TIP3    H278035   1.875   4.955  13.204 -1.7979  2.3004 -0.4430
18874TIP3   OH278036   5.351   2.803   6.307 -0.2832 -0.2715 -0.2340
18874TIP3    H178037   5.320   2.731   6.361  0.8055 -1.1940 -0.7993
18874TIP3    H278038   5.445   2.787   6.297  0.3609  2.1242  0.9994
18875TIP3   OH278039   6.331   5.520  11.754  0.1446  0.9518  0.5054
18875TIP3    H178040   6.305   5.591  11.812 -0.7201  0.2515  0.9943
18875TIP3    H278041   6.258   5.511  11.693  0.2391  0.4616  0.4605
18876TIP3   OH278042   1.892   6.468   4.294  0.1858  0.0373 -0.0376
18876TIP3    H178043   1.846   6.407   4.236  1.9169 -1.6375  0.2486
18876TIP3    H278044   1.826   6.533   4.318 -1.0226 -0.1596 -2.5243
18877TIP3   OH278045   5.302   2.258  13.648  0.2812 -0.0791 -0.3111
18877TIP3    H178046   5.223   2.306  13.671 -0.5190 -0.5143 -2.0243
18877TIP3    H278047   5.353   2.319  13.595  0.1873 -0.4471 -0.8276
18878TIP3   OH278048   6.125   4.653  12.751 -0.1721 -0.1990  0.4584
18878TIP3    H178049   6.215   4.628  12.773  0.6220  0.6648 -1.5564
18878TIP3    H278050   6.084   4.671  12.835  1.7797  0.1299  1.4021
18879TIP3   OH278051   2.651   2.357   5.747  0.1233 -0.2529  0.8544
18879TIP3    H178052   2.738   2.394   5.732  0.0833 -0.3887  0.2967
18879TIP3    H278053   2.667   2.265   5.770  0.0625 -0.5674 -0.3382
18880TIP3   OH278054   5.072   4.194  14.019  0.4207  0.4099 -0.1240
18880TIP3    H178055   5.160   4.157  14.027  0.3840  0.2978 -0.2351
18880TIP3    H278056   5.071   4.238  13.935  0.3962  0.4795 -0.0873
18881TIP3   OH278057   5.265   1.652  15.443  0.2675 -0.4154  0.3259
18881TIP3    H178058   5.287   1.728  15.389 -1.1729 -0.4285 -0.3161
18881TIP3    H278059   5.260   1.579  15.381  0.8075 -0.8880  0.8183
18882TIP3   OH278060   6.637   5.642   1.387  0.4297  0.0239  0.6356
18882TIP3    H178061   6.652   5.614   1.477  0.5610 -1.0950  0.2850
18882TIP3    H278062   6.716   5.616   1.340  0.1570  0.1397  0.1012
18883TIP3   OH278063   6.283   4.790   6.199  0.7402  0.0096  0.3749
18883TIP3    H178064   6.246   4.759   6.116 -0.8278 -3.4400  2.1274
18883TIP3    H278065   6.233   4.869   6.219 -2.2407 -1.6293  0.0933
18884TIP3   OH278066   4.788   1.142   1.668  0.2552 -0.2425 -0.5190
18884TIP3    H178067   4.760   1.227   1.634 -0.1239  0.0740  0.5299
18884TIP3    H278068   4.707   1.093   1.680  0.0855  0.5519  2.2052
18885TIP3   OH278069   3.530   0.424   2.525 -0.7439  0.0596  0.1437
18885TIP3    H178070   3.575   0.353   2.571 -0.9930  0.6204  1.2873
18885TIP3    H278071   3.476   0.466   2.592 -1.6949  0.4482 -0.8284
18886TIP3   OH278072   1.190   1.728  12.612  0.7292 -0.1359 -0.2266
18886TIP3    H178073   1.116   1.761  12.561  0.9996  2.6730  0.9771
18886TIP3    H278074   1.168   1.637  12.631 -1.9830  0.3198 -0.7107
18887TIP3   OH278075   4.448   4.421   2.561 -0.2222 -0.7397  0.3218
18887TIP3    H178076   4.385   4.476   2.607  0.6483 -0.3798  1.1172
18887TIP3    H278077   4.514   4.400   2.627  0.2691 -1.4636 -0.3842
18888TIP3   OH278078   6.671   5.090   0.597 -0.0711  0.6586 -0.2724
18888TIP3    H178079   6.655   5.074   0.690 -2.6600 -0.4986 -0.8256
18888TIP3    H278080   6.589   5.128   0.565  0.7081  0.8796 -2.1308
18889TIP3   OH278081   6.689   3.804  15.040 -0.3610  0.4299  0.4045
18889TIP3    H178082   6.783   3.823  15.037 -0.4381  0.8894  0.8006
18889TIP3    H278083   6.653   3.852  14.965 -0.0420 -1.1916 -0.8286
18890TIP3   OH278084   1.055   2.404   0.257  0.4918 -0.6993  0.0045
18890TIP3    H178085   1.120   2.462   0.297 -1.5923  1.4369  0.5284
18890TIP3    H278086   1.026   2.451   0.179 -0.1728 -1.7770 -0.4194
18891TIP3   OH278087   6.104   4.457   1.486 -0.1141 -0.3137 -0.0642
18891TIP3    H178088   6.158   4.536   1.483 -0.4992 -0.0580 -1.4829
18891TIP3    H278089   6.021   4.486   1.523  0.3614 -0.4954  1.2007
18892TIP3   OH278090   0.559   6.329  12.636  0.4197  0.0462  0.5128
18892TIP3    H178091   0.587   6.357  12.549  1.0305  0.1516  0.7440
18892TIP3    H278092   0.625   6.363  12.696 -0.1427  0.2109  1.0533
18893TIP3   OH278093   4.453   0.948  17.042 -0.1670 -0.1122  0.3003
18893TIP3    H178094   4.424   0.973  17.130 -1.2156 -0.6866  0.1436
18893TIP3    H278095   4.527   0.889  17.056 -0.3190 -0.1875  0.7975
18894TIP3   OH278096   3.960   3.412  13.137  0.3393 -0.2591 -0.4892
18894TIP3    H178097   4.037   3.397  13.081 -0.4514 -2.4311 -1.0806
18894TIP3    H278098   3.997   3.443  13.219  1.8380 -0.7870 -0.9151
18895TIP3   OH278099   1.461   3.105  14.374  0.0351  0.2710 -0.0682
18895TIP3    H178100   1.425   3.189  14.345 -0.6101 -0.0466 -0.2172
18895TIP3    H278101   1.504   3.069  14.296  0.2950  0.4478 -0.0097
18896TIP3   OH278102   6.386   3.925  11.281 -0.1889  0.4494  0.0626
18896TIP3    H178103   6.410   3.840  11.245  0.2908  0.3438  0.6175
18896TIP3    H278104   6.369   3.908  11.374  1.6329  1.2534  0.5792
18897TIP3   OH278105   5.538   3.642   6.004 -0.6020  0.2087 -0.8594
18897TIP3    H178106   5.618   3.607   6.043 -0.9850  0.0776 -0.1590
18897TIP3    H278107   5.468   3.591   6.045 -1.2031  1.9437  0.4078
18898TIP3   OH278108   1.457   3.078   6.087  0.0765  0.1296  0.2071
18898TIP3    H178109   1.488   3.001   6.135  0.3887  0.0307 -0.1499
18898TIP3    H278110   1.455   3.148   6.151 -0.2840 -0.1942  0.5580
18899TIP3   OH278111   4.975   5.704  12.075  0.2748  0.2491 -0.0776
18899TIP3    H178112   4.946   5.793  12.093  0.3695  0.0081  1.3871
18899TIP3    H278113   5.070   5.706  12.090  0.2893 -0.0943 -0.1035
18900TIP3   OH278114   0.849   0.113  10.509  0.2406  0.3644  0.1120
18900TIP3    H178115   0.879   0.117  10.418  0.1409 -0.3288  0.0463
18900TIP3    H278116   0.928   0.098  10.560  0.1991 -0.0339  0.0648
18901TIP3   OH278117   2.378   5.755  13.752  0.2894 -0.1197 -0.6247
18901TIP3    H178118   2.383   5.660  13.746  0.5598 -0.0311 -2.2068
18901TIP3    H278119   2.438   5.787  13.684 -0.4564  1.1692 -0.7092
18902TIP3   OH278120   1.787   5.763   6.565  0.4668  0.2739  0.4263
18902TIP3    H178121   1.703   5.765   6.520  0.1105  0.4162  1.0706
18902TIP3    H278122   1.795   5.673   6.597  0.6343  0.2174  0.2204
18903TIP3   OH278123   0.891   1.140   2.623  0.9212 -0.1826 -0.4403
18903TIP3    H178124   0.978   1.153   2.585  0.2040 -1.1096 -2.5225
18903TIP3    H278125   0.902   1.070   2.686  1.5347 -0.9087 -1.3326
18904TIP3   OH278126   4.873   3.420  12.785  0.4157  0.2352  0.0027
18904TIP3    H178127   4.818   3.385  12.715 -1.7728 -0.3569  1.9053
18904TIP3    H278128   4.898   3.343  12.836 -1.6797  0.9414  2.3124
18905TIP3   OH278129   2.181   6.505   4.748  0.0540  0.0652 -0.2020
18905TIP3    H178130   2.132   6.493   4.667  1.2835 -1.3572 -0.7920
18905TIP3    H278131   2.171   6.423   4.796  0.2164  0.4922  0.5919
18906TIP3   OH278132   2.933   2.819   6.373  0.1715  0.5466  0.1584
18906TIP3    H178133   2.922   2.901   6.324 -2.0059  0.6343  0.7028
18906TIP3    H278134   2.868   2.824   6.442 -2.6262 -3.1648 -1.8926
18907TIP3   OH278135   1.054   5.343   0.577 -0.5899 -0.7174  0.0305
18907TIP3    H178136   1.142   5.349   0.539 -0.4753  2.9142  0.5073
18907TIP3    H278137   1.029   5.251   0.565  4.0728 -2.5106  1.7899
18908TIP3   OH278138   3.288   2.493   1.046 -0.4878  0.1548  0.2908
18908TIP3    H178139   3.366   2.441   1.027 -0.3299  0.6857 -0.5713
18908TIP3    H278140   3.217   2.444   1.006 -0.3970  0.3758 -0.1500
18909TIP3   OH278141   0.285   4.533   5.212 -0.4191 -0.7001  0.5787
18909TIP3    H178142   0.281   4.515   5.305  0.0938  1.2287  1.0145
18909TIP3    H278143   0.285   4.628   5.205  1.0230 -0.7613 -1.3042
18910TIP3   OH278144   4.806   1.347   3.378  0.1830  0.1999 -0.4134
18910TIP3    H178145   4.736   1.286   3.352  0.9567 -0.4742 -0.9785
18910TIP3    H278146   4.887   1.304   3.350  0.8261  1.0163  0.1309
18911TIP3   OH278147   3.089   3.421   0.762  0.2890  0.6853 -0.1697
18911TIP3    H178148   3.069   3.419   0.855 -0.6820 -0.6352 -0.3699
18911TIP3    H278149   3.065   3.334   0.730  1.9239  0.6298 -1.4034
18912TIP3   OH278150   3.719   5.175  15.883 -0.1596  0.5404  0.0880
18912TIP3    H178151   3.654   5.116  15.845  0.3542 -0.3236  0.5112
18912TIP3    H278152   3.667   5.240  15.931 -0.7323  0.3534 -0.2671
18913TIP3   OH278153   1.199   3.067  12.929  0.4296 -0.5623  0.2429
18913TIP3    H178154   1.276   3.018  12.955  0.4442 -0.7889 -0.2179
18913TIP3    H278155   1.136   3.001  12.901  0.0264 -0.3840  0.7271
18914TIP3   OH278156   2.396   5.012  16.657  0.4218 -0.2968  0.2320
18914TIP3    H178157   2.455   4.959  16.602  1.0144 -0.6892  1.2288
18914TIP3    H278158   2.451   5.086  16.685  1.3614 -2.0280  3.3748
18915TIP3   OH278159   0.142   3.595   0.375  0.0663 -0.1300  0.2006
18915TIP3    H178160   0.163   3.540   0.299  1.8616 -0.3426  0.8156
18915TIP3    H278161   0.154   3.537   0.450 -0.8914  0.3176  0.7093
18916TIP3   OH278162   5.900   1.694   3.521 -0.0427 -0.0160  1.1501
18916TIP3    H178163   5.820   1.659   3.561 -1.0490  0.2149 -0.5646
18916TIP3    H278164   5.902   1.656   3.433  2.1303 -0.5682  1.3842
18917TIP3   OH278165   5.378   3.258   3.322  0.1248 -0.0742 -0.3084
18917TIP3    H178166   5.367   3.236   3.229  1.0548 -1.9211 -0.0294
18917TIP3    H278167   5.472   3.248   3.338  0.0074  0.4282  0.7886
18918TIP3   OH278168   0.999   5.456  15.746 -0.1766 -0.1389 -0.1557
18918TIP3    H178169   1.076   5.464  15.691 -0.6846 -1.6393 -1.1525
18918TIP3    H278170   1.030   5.474  15.835  1.0886  0.2729 -0.6681
18919TIP3   OH278171   6.638   0.662   5.096  0.0397  0.0252  0.3194
18919TIP3    H178172   6.563   0.720   5.109 -0.4662 -0.9123  1.8206
18919TIP3    H278173   6.671   0.684   5.009 -1.7437  0.7084 -0.2141
18920TIP3   OH278174   5.784   6.549   3.942 -0.4014 -0.3212  0.2354
18920TIP3    H178175   5.820   6.475   3.892 -1.6379 -0.6346 -0.2233
18920TIP3    H278176   5.701   6.569   3.899 -0.1082  1.3329  0.3695
18921TIP3   OH278177   6.691   2.916  16.690  0.1633  0.4793 -0.4613
18921TIP3    H178178   6.698   2.821  16.701  1.6970  0.4329 -1.4270
18921TIP3    H278179   6.606   2.929  16.647 -0.5067 -0.3447  0.5669
18922TIP3   OH278180   4.842   6.473   3.224 -0.0695 -0.6081  0.4420
18922TIP3    H178181   4.835   6.399   3.285  1.0529 -0.5840  0.6178
18922TIP3    H278182   4.755   6.513   3.226 -0.4329 -1.3923  1.0217
18923TIP3   OH278183   4.643   2.423   1.830  0.5110 -0.0960  0.6250
18923TIP3    H178184   4.598   2.507   1.838 -1.0361 -0.8771  0.5093
18923TIP3    H278185   4.717   2.440   1.772 -0.2999  0.9903 -0.1207
18924TIP3   OH278186   3.165   2.627   2.498  0.2211  0.0379  0.0372
18924TIP3    H178187   3.102   2.593   2.435  0.7624 -0.1591 -0.4126
18924TIP3    H278188   3.112   2.659   2.571 -0.4910  1.1329 -0.9259
18925TIP3   OH278189   2.790   4.986   3.100  0.8065 -0.2938 -0.5221
18925TIP3    H178190   2.724   5.010   3.165  0.9118  0.3213 -0.6319
18925TIP3    H278191   2.868   5.035   3.127  1.4278 -1.5397 -0.0022
18926TIP3   OH278192   4.804   2.087   4.755  0.2411  0.2584  0.0844
18926TIP3    H178193   4.887   2.042   4.744 -0.9389 -1.9277 -0.3475
18926TIP3    H278194   4.823   2.157   4.818  2.7279  0.8630 -1.2234
18927TIP3   OH278195   2.667   0.870   4.972 -0.2802 -0.5054 -0.5281
18927TIP3    H178196   2.686   0.808   5.043  0.4528 -0.5831 -0.7882
18927TIP3    H278197   2.722   0.946   4.992 -1.8490  0.4745  0.3054
18928TIP3   OH278198   6.615   0.860  17.107  0.3166  0.6355 -0.0633
18928TIP3    H178199   6.624   0.765  17.111 -0.4204  0.2720 -3.4766
18928TIP3    H278200   6.567   0.883  17.187 -1.4073 -2.1831 -0.1217
18929TIP3   OH278201   6.514   3.890   3.591  1.0183 -0.5632  0.0646
18929TIP3    H178202   6.489   3.800   3.570 -0.9636 -0.3397  1.1114
18929TIP3    H278203   6.608   3.894   3.574  0.7374 -2.1201 -2.3286
18930TIP3   OH278204   5.953   5.620   0.258  0.0052  0.5000 -0.2489
18930TIP3    H178205   6.016   5.676   0.302 -2.8745  2.5746  1.5632
18930TIP3    H278206   5.870   5.637   0.302 -2.3184 -0.4553 -3.7760
18931TIP3   OH278207   3.866   5.664   2.507 -0.3621  0.1581  0.6795
18931TIP3    H178208   3.948   5.621   2.532  0.1048 -0.0536 -1.0755
18931TIP3    H278209   3.894   5.750   2.474 -0.8528  0.1404  0.2069
18932TIP3   OH278210   5.253   2.288   3.043 -0.4206  0.4250  0.1277
18932TIP3    H178211   5.293   2.351   3.103 -0.1861  0.4765 -0.0788
18932TIP3    H278212   5.172   2.329   3.014 -0.3415  0.5663  0.1090
18933TIP3   OH278213   1.765   6.219  11.863 -0.2652  0.2026  0.1168
18933TIP3    H178214   1.814   6.184  11.789 -1.0975 -1.0984  0.1328
18933TIP3    H278215   1.833   6.245  11.926  0.5087  2.9024 -1.6964
18934TIP3   OH278216   6.281   4.264   1.391 -0.0219 -0.9036 -0.5058
18934TIP3    H178217   6.197   4.306   1.408  0.3338 -0.4637  0.2295
18934TIP3    H278218   6.280   4.244   1.298  0.2530  1.8502 -1.1875
18935TIP3   OH278219   1.264   3.094  14.802 -0.2227 -0.1910 -0.4989
18935TIP3    H178220   1.348   3.055  14.827  0.2357  1.2514  0.3732
18935TIP3    H278221   1.288   3.165  14.742 -1.0964 -1.6701 -2.7418
18936TIP3   OH278222   1.140   5.962   2.856  0.0662 -0.2835  0.2368
18936TIP3    H178223   1.154   5.977   2.762 -0.0105  0.4438  0.3333
18936TIP3    H278224   1.160   5.870   2.869 -0.5644 -0.5575 -0.6219
18937TIP3   OH278225   0.981   3.369   0.556 -0.3715 -0.3359  0.2390
18937TIP3    H178226   1.023   3.286   0.536  0.3049 -0.3484  1.5545
18937TIP3    H278227   1.016   3.393   0.642 -1.6461  0.5926  0.5295
18938TIP3   OH278228   1.605   1.698  16.833 -0.1841  0.1182 -0.6626
18938TIP3    H178229   1.530   1.662  16.786  0.4819 -2.1307 -0.1367
18938TIP3    H278230   1.680   1.646  16.803  0.6931  0.4118  0.8943
18939TIP3   OH278231   1.891   4.462  14.120 -0.4205  0.4285  0.0191
18939TIP3    H178232   1.945   4.450  14.042 -0.2792  1.2754 -0.0300
18939TIP3    H278233   1.938   4.417  14.190 -1.1027 -1.2926 -0.5903
18940TIP3   OH278234   5.160   2.335  12.640 -0.3414 -0.4567  0.5363
18940TIP3    H178235   5.198   2.395  12.576 -1.3753  0.2011  0.5055
18940TIP3    H278236   5.195   2.364  12.724 -0.5319 -0.0435  0.4776
18941TIP3   OH278237   3.187   6.423   0.673  0.2672  0.0971 -0.2405
18941TIP3    H178238   3.262   6.427   0.733 -0.6582  0.0025  0.9546
18941TIP3    H278239   3.224   6.387   0.592  1.0907 -2.1554  1.0271
18942TIP3   OH278240   4.626   4.734  11.205  0.5574  0.2049  0.0546
18942TIP3    H178241   4.668   4.818  11.226 -1.4209  0.8513  1.7443
18942TIP3    H278242   4.538   4.742  11.241 -0.1571 -2.0937 -1.0177
18943TIP3   OH278243   2.854   1.942   6.001  0.4357 -0.0959 -0.1394
18943TIP3    H178244   2.815   1.940   6.088  0.7576  2.8935  0.1594
18943TIP3    H278245   2.933   1.889   6.009 -0.1411 -0.8348  1.0176
18944TIP3   OH278246   6.627   3.163  11.408  0.6906 -0.1922 -0.3824
18944TIP3    H178247   6.675   3.126  11.334  0.9679  0.9116 -0.7830
18944TIP3    H278248   6.625   3.257  11.390 -0.2108 -0.0334  0.4564
18945TIP3   OH278249   3.761   6.137  12.474 -0.1447  0.1776  0.3523
18945TIP3    H178250   3.753   6.214  12.531  0.1162 -0.3987  1.1860
18945TIP3    H278251   3.773   6.174  12.387  2.9323  1.2036  1.0706
18946TIP3   OH278252   0.117   4.747   2.553 -0.5891 -0.3706 -0.6691
18946TIP3    H178253   0.193   4.700   2.587 -0.6567 -0.9160 -1.2639
18946TIP3    H278254   0.123   4.736   2.458  0.7131  2.7769 -1.0705
18947TIP3   OH278255   3.374   1.647   4.313 -0.6600 -0.6272 -0.0999
18947TIP3    H178256   3.308   1.710   4.343 -0.1801 -0.9452  1.7724
18947TIP3    H278257   3.346   1.564   4.353  1.2393 -0.6145  1.4090
18948TIP3   OH278258   0.452   2.166   3.089 -0.2415  0.3313 -0.1139
18948TIP3    H178259   0.361   2.137   3.090  0.3679 -1.8917  2.1035
18948TIP3    H278260   0.450   2.253   3.128 -1.2688 -0.5261  1.9078
18949TIP3   OH278261   4.617   4.995   3.026 -0.4730 -0.0744  0.3300
18949TIP3    H178262   4.604   4.917   2.973 -0.4129 -0.3084  0.6616
18949TIP3    H278263   4.538   5.047   3.011 -1.3237 -0.9798  1.4459
18950TIP3   OH278264   6.774   1.565  13.080  0.1632  0.3608  0.2617
18950TIP3    H178265   6.711   1.539  13.146 -0.4432  0.2668 -0.3504
18950TIP3    H278266   6.739   1.646  13.043  0.6136  0.5373  0.2107
18951TIP3   OH278267   0.368   4.144   0.214  0.0769  0.0311 -0.0896
18951TIP3    H178268   0.289   4.097   0.189  0.4474 -1.6457  1.5766
18951TIP3    H278269   0.439   4.098   0.168  0.1016  1.8592 -2.0068
18952TIP3   OH278270   1.866   4.914   0.853  0.3045 -0.0405  0.1675
18952TIP3    H178271   1.806   4.971   0.902  0.5531 -0.2585  0.7262
18952TIP3    H278272   1.897   4.970   0.781 -0.1183  0.2564  0.2070
18953TIP3   OH278273   0.922   6.372   2.588 -0.0535 -0.4025 -0.6212
18953TIP3    H178274   0.899   6.294   2.638 -0.7735 -0.4316 -0.9752
18953TIP3    H278275   0.974   6.340   2.514  1.7706 -0.2674  0.5405
18954TIP3   OH278276   3.863   5.782   4.294 -0.5718  0.4015  0.3017
18954TIP3    H178277   3.771   5.764   4.275 -0.8941  1.0598  1.1707
18954TIP3    H278278   3.874   5.755   4.385  0.2561 -0.2138  0.0307
18955TIP3   OH278279   3.885   6.762   3.769  0.8946  0.0637  0.0109
18955TIP3    H178280   3.928   6.679   3.789  0.9757  0.5338  1.9782
18955TIP3    H278281   3.866   6.800   3.855 -3.3055 -0.0186 -0.6905
18956TIP3   OH278282   5.956   4.803   6.314  0.2607 -0.5097 -0.1718
18956TIP3    H178283   5.998   4.858   6.248  1.6214 -1.9795 -0.5890
18956TIP3    H278284   6.023   4.738   6.338 -0.6528 -0.8475  1.6652
18957TIP3   OH278285   6.014   3.569  16.420  0.0946  0.3539 -0.2571
18957TIP3    H178286   5.926   3.542  16.447  0.3720 -0.1123  0.2072
18957TIP3    H278287   6.042   3.500  16.359  0.7381 -0.3596  0.8011
18958TIP3   OH278288   5.439   5.612  14.197 -0.2729 -0.6351  0.6645
18958TIP3    H178289   5.487   5.640  14.119  2.6225  0.2620  2.5894
18958TIP3    H278290   5.398   5.692  14.230 -0.0562 -0.6531  0.9808
18959TIP3   OH278291   0.563   2.076  16.022 -0.2251 -0.9353  0.1044
18959TIP3    H178292   0.647   2.109  16.055  1.3707 -2.2063 -2.3676
18959TIP3    H278293   0.555   2.114  15.935 -2.7237 -0.1644  0.5872
18960TIP3   OH278294   0.299   2.315  11.153 -0.1850 -0.5738  0.1864
18960TIP3    H178295   0.336   2.265  11.081  0.6799 -1.6684  1.3511
18960TIP3    H278296   0.215   2.347  11.120 -0.7989 -2.8472 -0.6109
18961TIP3   OH278297   2.841   5.634  16.269 -0.3772 -0.5300  0.4321
18961TIP3    H178298   2.845   5.641  16.364 -0.8505  0.7310  0.3702
18961TIP3    H278299   2.917   5.683  16.238 -0.6156 -0.3496  0.1322
18962TIP3   OH278300   3.091   2.591   4.758 -0.3442 -0.5903 -0.2064
18962TIP3    H178301   3.131   2.508   4.733 -1.7067 -1.8724  1.5741
18962TIP3    H278302   3.075   2.636   4.676  1.6312 -1.4767 -1.1400
18963TIP3   OH278303   5.475   3.046   5.682  0.4061  0.3314 -0.1227
18963TIP3    H178304   5.550   3.039   5.624 -0.5483  1.4460 -1.5506
18963TIP3    H278305   5.403   3.005   5.634 -0.3725  1.1457  0.3185
18964TIP3   OH278306   1.559   5.582   6.175  0.3020 -1.4111 -0.1366
18964TIP3    H178307   1.527   5.494   6.156 -1.8288 -0.7823  0.2690
18964TIP3    H278308   1.483   5.628   6.210  1.7372  0.1689  1.0683
18965TIP3   OH278309   4.880   1.502  13.941  0.2972  0.4185 -0.0344
18965TIP3    H178310   4.959   1.451  13.920 -0.0422 -0.0506 -0.1949
18965TIP3    H278311   4.822   1.486  13.867 -0.6861 -0.7534  0.9504
18966TIP3   OH278312   3.872   2.086   2.764 -0.0343  0.0154 -0.2577
18966TIP3    H178313   3.877   1.991   2.756 -0.4742  0.1251 -2.7182
18966TIP3    H278314   3.780   2.107   2.747 -0.1301  0.8634  1.1043
18967TIP3   OH278315   5.440   0.905  10.881  0.1118 -0.5983  0.6315
18967TIP3    H178316   5.374   0.930  10.946 -0.1958 -0.4335  0.2651
18967TIP3    H278317   5.465   0.988  10.839 -1.0609 -0.8897 -0.7266
18968TIP3   OH278318   5.538   5.502  14.428  0.1240 -0.3184  0.0947
18968TIP3    H178319   5.513   5.502  14.336  3.2132 -0.4018 -0.8468
18968TIP3    H278320   5.575   5.415  14.443  1.1282  0.2379  0.9559
18969TIP3   OH278321   5.698   5.773  12.067  0.1660  0.0094 -0.5939
18969TIP3    H178322   5.632   5.705  12.081  1.3927 -1.2264 -0.5808
18969TIP3    H278323   5.701   5.821  12.150  1.3132 -1.7939  0.4711
18970TIP3   OH278324   4.091   4.083   4.861  0.2463  0.2044 -0.0238
18970TIP3    H178325   4.112   4.043   4.776  0.4171 -0.2028  0.2045
18970TIP3    H278326   4.147   4.036   4.923  0.9729  1.2803  0.1596
18971TIP3   OH278327   5.409   3.726   5.685 -0.6429 -0.2326  0.2503
18971TIP3    H178328   5.367   3.748   5.602  0.1629 -0.7661 -0.3012
18971TIP3    H278329   5.342   3.747   5.751 -1.0907  0.7321 -0.4739
18972TIP3   OH278330   6.296   6.708  13.435 -0.1184 -0.4048  0.6377
18972TIP3    H178331   6.233   6.691  13.365 -0.9664  0.0914  1.2582
18972TIP3    H278332   6.332   6.794  13.415  0.5166 -0.7620  0.1881
18973TIP3   OH278333   4.628   5.908  15.285  0.1316  0.5738  0.3575
18973TIP3    H178334   4.678   5.864  15.354 -0.0586 -0.4374 -0.1216
18973TIP3    H278335   4.581   5.978  15.330  0.5838  0.3929  1.1222
18974TIP3   OH278336   5.066   6.250   5.216 -0.3114  0.6985 -0.4266
18974TIP3    H178337   5.019   6.300   5.148  0.5039 -0.6907 -2.0888
18974TIP3    H278338   5.152   6.291   5.221 -0.2595  0.5955 -0.4775
18975TIP3   OH278339   3.387   2.056  12.947 -0.3918  0.4011  0.1122
18975TIP3    H178340   3.401   1.965  12.974 -0.4910  0.5550  0.7022
18975TIP3    H278341   3.294   2.060  12.924 -0.1028  0.0383 -1.1975
18976TIP3   OH278342   5.505   5.572  11.014  0.2801  0.7263 -0.3018
18976TIP3    H178343   5.589   5.619  11.011  1.3268 -0.8873  1.5459
18976TIP3    H278344   5.527   5.482  10.991  0.0812 -0.8439  4.5274
18977TIP3   OH278345   0.775   5.702  16.231  0.1681  0.4360 -0.0078
18977TIP3    H178346   0.814   5.723  16.146 -0.1426  0.5957 -0.1121
18977TIP3    H278347   0.850   5.677  16.286  0.2572 -0.7480 -0.6405
18978TIP3   OH278348   4.379   6.358   0.647  0.1684 -0.2290 -0.1556
18978TIP3    H178349   4.289   6.389   0.632  0.3776 -0.1117 -1.3010
18978TIP3    H278350   4.421   6.430   0.693 -0.5229 -0.5950  1.0844
18979TIP3   OH278351   1.075   5.290  10.620 -0.8496  0.4599 -0.3107
18979TIP3    H178352   1.065   5.210  10.567 -1.0074  1.1643 -1.3924
18979TIP3    H278353   0.989   5.332  10.615 -0.7755  0.6906  0.2761
18980TIP3   OH278354   6.194   4.652   2.650 -0.2058  0.0624 -0.1233
18980TIP3    H178355   6.282   4.638   2.613  0.4468 -0.3359  1.5161
18980TIP3    H278356   6.179   4.746   2.643  0.3529  0.1339 -0.4063
18981TIP3   OH278357   6.369   0.218   1.810 -0.3925  0.3835  0.2116
18981TIP3    H178358   6.333   0.179   1.731  1.1768 -0.2310 -0.2368
18981TIP3    H278359   6.328   0.304   1.816  0.9701  1.3317 -2.4591
18982TIP3   OH278360   0.364   0.261   0.300 -0.5248  0.1551 -0.3836
18982TIP3    H178361   0.449   0.272   0.258  0.1040 -1.3697  0.4310
18982TIP3    H278362   0.305   0.234   0.230 -0.1072  0.2363 -0.7651
18983TIP3   OH278363   3.280   2.118   1.190  0.0525 -0.5426 -0.1511
18983TIP3    H178364   3.295   2.024   1.175 -2.2350 -0.7040 -1.9581
18983TIP3    H278365   3.269   2.155   1.102 -1.8890  0.8621  0.6107
18984TIP3   OH278366   2.272   2.042   1.104  0.1961  0.0640 -0.3057
18984TIP3    H178367   2.249   2.002   1.020  1.3626  1.2812 -1.2411
18984TIP3    H278368   2.226   2.125   1.105 -0.0718 -0.0850  0.4207
18985TIP3   OH278369   4.672   1.645   2.510  0.2213  0.3561  0.0635
18985TIP3    H178370   4.750   1.599   2.541 -0.1422 -1.1768 -1.1585
18985TIP3    H278371   4.634   1.683   2.589  1.9563  0.7771  0.7421
18986TIP3   OH278372   6.629   1.929   0.860  0.3021  0.4953  0.0415
18986TIP3    H178373   6.721   1.957   0.863  0.3148  0.5948 -0.8395
18986TIP3    H278374   6.632   1.838   0.833  0.1922  0.0462  1.4730
18987TIP3   OH278375   0.650   3.497   6.146  0.1295 -0.4731 -0.1201
18987TIP3    H178376   0.609   3.415   6.173 -0.6735  0.5025  1.8358
18987TIP3    H278377   0.744   3.476   6.141 -0.0543 -1.4931  0.3598
18988TIP3   OH278378   0.040   5.988  13.195 -0.5636  0.0579 -0.1741
18988TIP3    H178379  -0.003   5.955  13.116  0.4092  2.8830 -2.0283
18988TIP3    H278380   0.133   5.985  13.174 -0.2131 -0.0048  1.2835
18989TIP3   OH278381   4.393   5.582   2.345  0.0565  0.8037  0.2495
18989TIP3    H178382   4.303   5.560   2.318  0.1762 -1.6258  1.6017
18989TIP3    H278383   4.393   5.571   2.440  2.1140 -0.6284  0.1387
18990TIP3   OH278384   3.392   2.750   0.951 -0.1737 -0.6024  0.0288
18990TIP3    H178385   3.458   2.773   1.017 -0.0824  1.4917 -0.7211
18990TIP3    H278386   3.351   2.670   0.985 -0.3182  0.5217  2.7936
18991TIP3   OH278387   3.748   3.409   1.747 -0.0780  0.3217  0.1789
18991TIP3    H178388   3.747   3.352   1.670 -1.3167  0.2444  0.2384
18991TIP3    H278389   3.792   3.357   1.814 -0.9910 -0.5017  0.1673
18992TIP3   OH278390   3.840   5.215  12.679 -1.1363  0.3271  0.0470
18992TIP3    H178391   3.900   5.289  12.668 -0.1680 -0.3858  0.2791
18992TIP3    H278392   3.897   5.144  12.711 -2.0283 -0.5110 -0.1847
18993TIP3   OH278393   3.003   2.533  14.935  0.0544  0.8300  0.4664
18993TIP3    H178394   2.928   2.522  14.878 -0.1694  0.2510  0.8603
18993TIP3    H278395   3.055   2.454  14.923  1.4414  1.8770 -0.9768
18994TIP3   OH278396   5.718   0.308  15.817 -0.5396  0.5650 -0.7607
18994TIP3    H178397   5.656   0.262  15.873  0.8112 -0.5746 -0.1294
18994TIP3    H278398   5.804   0.283  15.850  0.2809  1.6615 -1.9384
18995TIP3   OH278399   3.790   2.334  12.195  0.6761  0.2698 -0.4287
18995TIP3    H178400   3.756   2.249  12.222  1.9091  0.2290  1.1549
18995TIP3    H278401   3.858   2.314  12.131  0.5247  0.1184 -0.5430
18996TIP3   OH278402   0.862   6.077   3.912  0.6022 -0.0010  0.5011
18996TIP3    H178403   0.853   6.053   4.004  3.7709  1.1281  1.2260
18996TIP3    H278404   0.939   6.030   3.882  0.1634  0.3637 -1.3468
18997TIP3   OH278405   0.688   6.555  11.907 -0.0377 -0.0630  0.1344
18997TIP3    H178406   0.656   6.606  11.833  1.8829 -1.8961 -2.1378
18997TIP3    H278407   0.637   6.474  11.904  1.2340 -0.8720 -0.3299
18998TIP3   OH278408   5.108   0.923   0.976  0.1761 -0.4041 -0.3589
18998TIP3    H178409   5.037   0.913   1.039  0.3361 -1.0218 -0.2746
18998TIP3    H278410   5.178   0.964   1.025  0.0628 -0.2647 -0.3117
18999TIP3   OH278411   4.689   3.364   0.642  0.3817  0.1847 -0.1807
18999TIP3    H178412   4.739   3.325   0.713  0.0333 -2.5992 -1.3209
18999TIP3    H278413   4.597   3.357   0.670  0.3529  0.9386 -0.0700
19000TIP3   OH278414   1.189   6.536  12.106  0.4440  0.2664 -0.3540
19000TIP3    H178415   1.220   6.548  12.017  0.3341 -0.1810 -0.4580
19000TIP3    H278416   1.097   6.513  12.097  0.7256 -1.0210 -0.2164
19001TIP3   OH278417   1.997   3.253  12.069  0.2083  0.1268  0.2472
19001TIP3    H178418   2.056   3.327  12.056  0.1650  0.0258 -0.5220
19001TIP3    H278419   1.909   3.291  12.066  0.1848  0.0374 -0.1891
19002TIP3   OH278420   4.278   3.481   3.798  0.0462  0.2059  0.2057
19002TIP3    H178421   4.352   3.538   3.776 -1.2666  2.1754  0.6950
19002TIP3    H278422   4.311   3.427   3.870  1.8042 -0.7917 -1.2445
19003TIP3   OH278423   3.145   6.491  11.869 -0.2153  0.2177  0.4292
19003TIP3    H178424   3.238   6.506  11.849 -0.4538  0.6962 -0.3358
19003TIP3    H278425   3.118   6.569  11.918 -0.4792  0.5745 -0.2696
19004TIP3   OH278426   3.238   3.192   5.356  0.2743  0.1437  0.3912
19004TIP3    H178427   3.193   3.264   5.312 -0.2556  0.4973  1.4837
19004TIP3    H278428   3.207   3.113   5.312  0.1804  0.5178 -0.2271
19005TIP3   OH278429   5.711   5.040  12.335  0.5125  0.5141  0.0426
19005TIP3    H178430   5.730   4.999  12.419 -3.6069 -1.5170  0.2051
19005TIP3    H278431   5.757   4.987  12.271 -1.5502 -2.1399  0.6021
19006TIP3   OH278432   1.366   0.364  12.144 -0.2982  0.1517 -0.3656
19006TIP3    H178433   1.460   0.377  12.160 -0.3746  0.0861  0.1282
19006TIP3    H278434   1.343   0.288  12.197 -1.0098  1.1849  0.8606
19007TIP3   OH278435   2.025   6.148  15.495  0.7005  0.9520  0.4671
19007TIP3    H178436   2.069   6.066  15.515 -0.2588  0.7327  1.8140
19007TIP3    H278437   2.037   6.201  15.574 -0.0946  1.4777  0.2399
19008TIP3   OH278438   4.596   4.173  10.558 -0.2058  0.4346  0.2646
19008TIP3    H178439   4.635   4.085  10.561 -0.1509  0.3384 -1.7394
19008TIP3    H278440   4.510   4.162  10.599 -0.4364 -0.7114 -0.4652
19009TIP3   OH278441   4.563   5.727   5.902  0.0734 -0.2165  0.2558
19009TIP3    H178442   4.559   5.822   5.904  2.4237 -0.0188 -1.4322
19009TIP3    H278443   4.570   5.701   5.994 -0.2304  1.2228  0.7041
19010TIP3   OH278444   0.469   5.490   3.214 -0.0889  0.5645  0.5476
19010TIP3    H178445   0.560   5.471   3.193 -0.7585 -1.4144 -0.9691
19010TIP3    H278446   0.450   5.572   3.167  1.4561  2.3602  2.8258
19011TIP3   OH278447   1.590   5.852  15.007 -0.0060  0.4240  0.5082
19011TIP3    H178448   1.519   5.791  15.026 -0.8108  1.2815  0.3508
19011TIP3    H278449   1.568   5.931  15.058  0.1713  1.1354 -0.4841
19012TIP3   OH278450   4.985   6.421  13.507 -0.0287 -0.2430 -0.0093
19012TIP3    H178451   5.035   6.346  13.475 -0.5378 -1.4632  1.9006
19012TIP3    H278452   4.894   6.391  13.509 -0.5677  1.1478 -1.1338
19013TIP3   OH278453   6.781   0.284   0.622  0.2527 -0.0231 -0.4071
19013TIP3    H178454   6.792   0.191   0.601  2.5784 -0.3351  1.7205
19013TIP3    H278455   6.697   0.288   0.668  0.1078 -1.0890 -0.5389
19014TIP3   OH278456   3.480   3.851   3.643  0.2559 -0.7684 -0.3885
19014TIP3    H178457   3.543   3.856   3.715 -0.7993 -0.5250  0.5563
19014TIP3    H278458   3.484   3.937   3.602 -0.4352 -0.2767  0.5426
19015TIP3   OH278459   2.023   2.262   5.428 -0.5069  0.4409  0.0978
19015TIP3    H178460   1.956   2.225   5.485 -0.9937  0.6299 -0.3429
19015TIP3    H278461   2.105   2.226   5.461 -1.0277 -1.9437 -0.9699
19016TIP3   OH278462   3.685   4.111  10.871 -0.2515  0.8791  0.0366
19016TIP3    H178463   3.765   4.163  10.876  0.1940  0.1378  1.0850
19016TIP3    H278464   3.668   4.102  10.777  0.9477  0.9906 -0.2120
19017TIP3   OH278465   3.131   4.924   1.845  0.1822 -0.3839 -0.0791
19017TIP3    H178466   3.215   4.906   1.803  1.8557 -0.8784  3.1410
19017TIP3    H278467   3.086   4.839   1.846 -0.8148  0.0445 -2.5261
19018TIP3   OH278468   1.503   5.281   4.639 -0.1783 -0.4643  0.2585
19018TIP3    H178469   1.453   5.357   4.610 -0.2514 -0.7894 -0.4980
19018TIP3    H278470   1.540   5.307   4.723 -1.8294 -0.3085  0.9761
19019TIP3   OH278471   4.749   4.213   3.019  0.3431 -0.2250  0.1867
19019TIP3    H178472   4.840   4.230   2.995  0.4656  0.5994  1.1752
19019TIP3    H278473   4.697   4.255   2.951  0.6942  0.5882  0.4145
19020TIP3   OH278474   5.340   4.147  15.584 -0.3379  0.4349 -0.5205
19020TIP3    H178475   5.361   4.189  15.501  0.4766  2.4419  0.6344
19020TIP3    H278476   5.309   4.219  15.641 -1.8490 -1.0269  0.6198
19021TIP3   OH278477   6.470   4.177  13.009  0.4393 -0.1296  0.0186
19021TIP3    H178478   6.415   4.099  13.000 -1.1780  0.9303  0.2658
19021TIP3    H278479   6.420   4.235  13.067  1.2046  1.4250 -0.8161
19022TIP3   OH278480   6.793   5.015   2.243  0.0589  0.5618 -0.0860
19022TIP3    H178481   6.876   4.970   2.228  2.6596  4.5323  0.8017
19022TIP3    H278482   6.754   5.021   2.156  1.1341 -0.5922 -0.6903
19023TIP3   OH278483   1.277   2.071   3.860  0.1476 -0.0112 -0.1865
19023TIP3    H178484   1.326   1.995   3.891  0.6309  0.4623  0.2299
19023TIP3    H278485   1.254   2.050   3.770 -2.3718 -1.9900  0.7681
19024TIP3   OH278486   3.440   3.868   5.209  0.2395  0.0921  0.0736
19024TIP3    H178487   3.486   3.926   5.270  0.8490 -0.2369 -0.0617
19024TIP3    H278488   3.366   3.919   5.177 -0.3262  0.1488  1.3823
19025TIP3   OH278489   6.531   2.955  17.081  0.3439  0.0291 -0.0843
19025TIP3    H178490   6.582   2.991  17.154 -0.8938  0.5013  0.5584
19025TIP3    H278491   6.564   3.002  17.004  2.2907 -1.0971 -0.0245
19026TIP3   OH278492   1.729   5.480   3.280 -0.0256  0.5000  0.3213
19026TIP3    H178493   1.821   5.457   3.289 -0.2308 -0.1362  0.8406
19026TIP3    H278494   1.689   5.403   3.239 -0.3998  0.6141  0.4715
19027TIP3   OH278495   1.179   1.835  13.472  0.0291 -0.1704 -0.3119
19027TIP3    H178496   1.224   1.902  13.421  0.2236  0.6023  0.8367
19027TIP3    H278497   1.187   1.756  13.419  0.1413  0.6150 -1.5099
19028TIP3   OH278498   6.033   0.251  16.546 -0.3813 -0.0136 -0.1844
19028TIP3    H178499   5.984   0.279  16.469 -0.4982 -1.6515 -0.7416
19028TIP3    H278500   6.121   0.285  16.534 -1.1191  2.2904  0.4418
19029TIP3   OH278501   4.610   6.576  13.143 -0.4067 -0.4128 -0.4329
19029TIP3    H178502   4.520   6.544  13.144 -1.3699  2.0617 -0.9550
19029TIP3    H278503   4.622   6.619  13.228  0.0548 -0.1805 -0.6098
19030TIP3   OH278504   1.705   4.102   1.297 -0.0801  0.5633  0.1578
19030TIP3    H178505   1.775   4.128   1.237 -0.4098 -0.9999 -0.9435
19030TIP3    H278506   1.626   4.099   1.243 -0.5805  0.1213  0.9010
19031TIP3   OH278507   5.789   6.497   4.223 -0.5763  0.3703 -0.0830
19031TIP3    H178508   5.780   6.527   4.132  2.9855  1.3045 -0.3154
19031TIP3    H278509   5.833   6.413   4.216  1.4770  1.2983  0.6811
19032TIP3   OH278510   3.505   3.952  12.074  0.3228  0.2389 -0.1584
19032TIP3    H178511   3.419   3.927  12.042  0.6115 -0.9261 -0.0709
19032TIP3    H278512   3.533   4.024  12.017 -0.9115  0.9945  0.1487
19033TIP3   OH278513   5.394   3.945  17.137 -0.6298 -0.3190 -0.0761
19033TIP3    H178514   5.436   4.001  17.072 -1.5371 -0.5978 -0.9287
19033TIP3    H278515   5.353   3.875  17.086  0.3340 -1.6912  0.9506
19034TIP3   OH278516   6.344   4.152  14.749 -0.3490  0.5789 -0.3564
19034TIP3    H178517   6.276   4.178  14.810 -0.2499  0.4223 -0.1768
19034TIP3    H278518   6.423   4.197  14.780 -0.1417 -0.0559  0.0507
19035TIP3   OH278519   0.937   2.539   3.255  0.5423  0.6462  0.2953
19035TIP3    H178520   0.874   2.540   3.328  0.1810  1.0794 -0.0157
19035TIP3    H278521   0.990   2.460   3.270 -0.8368 -0.3984 -0.0765
19036TIP3   OH278522   0.216   2.095  16.840  0.0423 -0.3375 -0.1256
19036TIP3    H178523   0.299   2.051  16.824  1.2762  2.1729 -1.1279
19036TIP3    H278524   0.173   2.096  16.754 -0.2931 -0.2089  0.0438
19037TIP3   OH278525   5.514   4.867   1.055  0.0942  0.2068 -0.7042
19037TIP3    H178526   5.445   4.919   1.096  0.1251  0.5469 -1.0792
19037TIP3    H278527   5.553   4.926   0.990  0.0019 -0.3468 -1.2678
19038TIP3   OH278528   2.588   4.192   5.789 -0.1983 -0.1319 -0.4045
19038TIP3    H178529   2.532   4.266   5.764 -0.9906 -0.7727 -0.5990
19038TIP3    H278530   2.650   4.183   5.716  0.1937  0.6151 -0.1678
19039TIP3   OH278531   4.892   0.492   3.702  0.1507 -0.1078 -0.1388
19039TIP3    H178532   4.905   0.400   3.726  2.1308  0.2453  0.4002
19039TIP3    H278533   4.843   0.490   3.620 -0.9611 -1.5829  0.5172
19040TIP3   OH278534   2.552   3.935  12.500  0.3465  0.2899 -0.3751
19040TIP3    H178535   2.593   3.892  12.425  0.9134 -1.7636  1.0151
19040TIP3    H278536   2.615   3.923  12.572 -0.9660  0.5667  0.8723
19041TIP3   OH278537   0.999   5.522  14.443 -0.3799  0.2893 -0.6697
19041TIP3    H178538   0.948   5.578  14.384 -0.2298  0.5220 -0.5830
19041TIP3    H278539   1.090   5.547  14.426 -0.3705  0.9434  0.2269
19042TIP3   OH278540   2.281   3.840   0.614 -0.2307 -0.0231  0.2915
19042TIP3    H178541   2.284   3.888   0.696  1.6971 -0.5888  0.5821
19042TIP3    H278542   2.225   3.894   0.557 -1.9005  0.1927  2.0297
19043TIP3   OH278543   2.316   2.971  15.404 -0.1737 -0.3116  0.3033
19043TIP3    H178544   2.231   2.995  15.367 -0.1189 -0.5072  0.0472
19043TIP3    H278545   2.355   3.054  15.430 -0.2152 -0.1714 -0.0744
19044TIP3   OH278546   2.277   6.227  12.695  0.0904  0.4969  0.2460
19044TIP3    H178547   2.350   6.252  12.639  1.1939 -0.2254  1.3342
19044TIP3    H278548   2.208   6.199  12.634  2.2542 -3.1337 -0.8309
19045TIP3   OH278549   1.554   5.503  15.360  0.1521  0.5081  0.0298
19045TIP3    H178550   1.552   5.469  15.449 -0.1458 -0.5105 -0.3580
19045TIP3    H278551   1.474   5.469  15.319 -0.0730  1.5300 -0.4341
19046TIP3   OH278552   5.801   1.176   5.566 -0.1283 -0.0510  0.1772
19046TIP3    H178553   5.773   1.222   5.487 -1.1747  0.0985  0.6232
19046TIP3    H278554   5.892   1.203   5.578  0.1151 -0.2247 -1.0707
19047TIP3   OH278555   1.335   4.918   2.930  0.6875  0.2953  0.2175
19047TIP3    H178556   1.240   4.925   2.919  0.8892  1.2713 -1.0672
19047TIP3    H278557   1.350   4.824   2.945 -0.4947  0.1749  0.7623
19048TIP3   OH278558   5.910   2.139  13.784  1.0753  0.3926 -0.9157
19048TIP3    H178559   5.871   2.146  13.871 -0.5592  2.4227 -1.7506
19048TIP3    H278560   5.957   2.221  13.771 -1.6706  1.7887 -3.2329
19049TIP3   OH278561   4.537   2.959   3.198  0.0101  0.2196  0.0486
19049TIP3    H178562   4.468   3.021   3.224  0.3291  0.8137 -0.4797
19049TIP3    H278563   4.550   2.904   3.275 -0.7953  0.3353  0.2807
19050TIP3   OH278564   3.595   3.626   5.819 -0.1003  0.2906  0.5846
19050TIP3    H178565   3.568   3.555   5.878 -0.2955 -0.3664 -0.2728
19050TIP3    H278566   3.515   3.651   5.773  0.3690 -0.4780 -0.7169
19051TIP3   OH278567   5.035   0.284  14.012 -0.2832 -0.1999 -0.1354
19051TIP3    H178568   5.009   0.220  13.946  0.3030  0.6321 -1.2182
19051TIP3    H278569   4.954   0.307  14.057 -0.5830 -1.2970 -0.0836
19052TIP3   OH278570   5.981   1.967   1.404 -0.1278  0.0158  0.2390
19052TIP3    H178571   5.889   1.988   1.388  0.1259  1.1397  0.1569
19052TIP3    H278572   5.986   1.952   1.498 -0.5420 -0.9110  0.1288
19053TIP3   OH278573   6.010   0.506   1.390  0.6012  0.4316 -0.4190
19053TIP3    H178574   6.049   0.445   1.454  1.7978  0.7184 -0.8484
19053TIP3    H278575   5.925   0.468   1.370  0.6840 -0.2751  0.4932
19054TIP3   OH278576   2.356   0.798   0.256 -0.4102  0.0324  0.1256
19054TIP3    H178577   2.262   0.781   0.253 -0.4981 -0.3399  2.6551
19054TIP3    H278578   2.382   0.774   0.345  1.7221  1.9476  0.1278
19055TIP3   OH278579   1.334   5.890   1.304  0.1020 -0.1669 -0.2305
19055TIP3    H178580   1.325   5.817   1.243 -4.3179 -0.5178  0.5503
19055TIP3    H278581   1.314   5.967   1.252 -2.3994 -0.3411  0.3746
19056TIP3   OH278582   2.128   1.310  11.017  0.0484  0.5172  0.7592
19056TIP3    H178583   2.167   1.394  11.041  1.6475 -0.1101  0.4749
19056TIP3    H278584   2.201   1.258  10.984 -0.1250 -2.2866  4.2370
19057TIP3   OH278585   2.057   4.498   0.077 -0.1938 -0.0583  0.6032
19057TIP3    H178586   2.073   4.463  -0.010 -2.2063  3.6076 -1.4803
19057TIP3    H278587   2.144   4.508   0.116  1.1542  1.5573 -2.4991
19058TIP3   OH278588   6.209   5.898  16.644  0.1592 -0.7076  0.5525
19058TIP3    H178589   6.247   5.819  16.683  1.7063  0.2521  1.0773
19058TIP3    H278590   6.231   5.892  16.551  0.5445 -0.7467  0.6459
19059TIP3   OH278591   0.634   5.378  16.613 -0.5538  0.5448  0.2736
19059TIP3    H178592   0.617   5.294  16.571 -1.2260  0.4717  0.6705
19059TIP3    H278593   0.729   5.383  16.619 -0.4698  0.2774 -0.6740
19060TIP3   OH278594   1.128   0.979   5.546  0.0090  0.0514  0.0904
19060TIP3    H178595   1.060   1.016   5.489  0.6754  0.5878 -0.3707
19060TIP3    H278596   1.080   0.949   5.624 -1.0219 -1.3529 -1.0312
19061TIP3   OH278597   2.572   5.326  13.969  0.6030 -0.1463  0.1646
19061TIP3    H178598   2.522   5.244  13.967  1.7638 -0.8614 -0.9106
19061TIP3    H278599   2.661   5.300  13.947  0.9114  1.4732 -0.6129
19062TIP3   OH278600   3.609   3.296  12.816  0.5037 -0.0548 -0.8870
19062TIP3    H178601   3.553   3.348  12.758  0.6300 -1.8754 -2.7563
19062TIP3    H278602   3.667   3.361  12.857  0.2912  1.3507 -2.6635
19063TIP3   OH278603   2.874   1.456   2.438 -0.4072 -0.6413 -0.3049
19063TIP3    H178604   2.828   1.377   2.411 -1.9884  0.1066  0.0962
19063TIP3    H278605   2.885   1.506   2.358 -2.3480  0.1894 -0.0919
19064TIP3   OH278606   3.785   0.542  13.639  0.7297  0.4333  0.1596
19064TIP3    H178607   3.817   0.525  13.551 -0.0376  0.5054 -0.1472
19064TIP3    H278608   3.689   0.542  13.630  0.6232 -0.1951  1.1091
19065TIP3   OH278609   0.842   2.388   4.664  0.2139  0.5678  0.4825
19065TIP3    H178610   0.908   2.321   4.680 -0.1670  0.2429  0.7176
19065TIP3    H278611   0.872   2.434   4.585  0.0593 -0.4167 -0.1710
19066TIP3   OH278612   0.404   2.555  14.494  0.1518  0.2274  0.3779
19066TIP3    H178613   0.392   2.647  14.518  0.8759  0.9097 -1.6161
19066TIP3    H278614   0.375   2.506  14.571  0.4445  2.1272  1.7773
19067TIP3   OH278615   2.774   3.249   3.457  0.2087  0.8420 -0.0864
19067TIP3    H178616   2.827   3.277   3.382 -1.1030 -0.2930 -1.4986
19067TIP3    H278617   2.720   3.178   3.423 -1.2294  1.0330  1.6509
19068TIP3   OH278618   1.518   5.239   1.658  0.7943  0.3799  0.7335
19068TIP3    H178619   1.561   5.267   1.578 -0.5446  2.2264  0.5975
19068TIP3    H278620   1.460   5.168   1.631  1.0708  0.3226  0.2799
19069TIP3   OH278621   3.968   3.063   6.231  0.4491  0.2564 -0.1547
19069TIP3    H178622   4.044   3.027   6.278  1.1901 -1.1353 -2.2670
19069TIP3    H278623   3.991   3.154   6.214  1.5848 -0.0963 -0.5951
19070TIP3   OH278624   4.588   1.475  11.737  0.0542  0.2975  0.2914
19070TIP3    H178625   4.511   1.452  11.686 -0.3968  0.7787  0.7350
19070TIP3    H278626   4.660   1.426  11.697 -0.2793  0.6975 -0.8050
19071TIP3   OH278627   3.920   3.877   5.058 -0.6484 -0.2170  0.2779
19071TIP3    H178628   3.974   3.805   5.091  3.5419  1.9660 -1.0890
19071TIP3    H278629   3.893   3.848   4.970  0.3333 -0.4409  0.0444
19072TIP3   OH278630   2.235   3.525  12.339 -0.1132  0.0762 -0.4927
19072TIP3    H178631   2.263   3.438  12.310 -1.4561 -0.4244 -0.3724
19072TIP3    H278632   2.269   3.584  12.272 -3.1315 -1.0327 -3.3444
19073TIP3   OH278633   6.474   4.013  14.508 -0.0106  0.1827  0.2040
19073TIP3    H178634   6.408   3.951  14.476  0.0600  0.0903  0.2361
19073TIP3    H278635   6.425   4.072  14.566  0.0967 -0.4431  0.9486
19074TIP3   OH278636   2.168   4.122  12.283 -0.0494  0.8109 -0.7665
19074TIP3    H178637   2.149   4.208  12.321 -0.8642 -0.7201  2.6682
19074TIP3    H278638   2.207   4.072  12.355 -1.2682 -2.2655 -2.0833
19075TIP3   OH278639   4.995   2.415   3.050 -0.2506  0.6080  0.0089
19075TIP3    H178640   4.977   2.506   3.074 -0.4129  0.6451 -0.2569
19075TIP3    H278641   4.971   2.409   2.958  1.1937  0.6964 -0.3957
19076TIP3   OH278642   1.379   0.692   3.551 -0.1712 -0.1231  0.3243
19076TIP3    H178643   1.429   0.768   3.580 -0.9845  0.5077  0.1135
19076TIP3    H278644   1.316   0.677   3.621 -0.3422 -0.2940  0.1348
19077TIP3   OH278645   3.417   2.448  15.679  0.3453 -0.0590  0.6762
19077TIP3    H178646   3.365   2.459  15.758  0.5835  0.6063  0.7515
19077TIP3    H278647   3.385   2.516  15.620 -0.4852 -1.1498 -0.1684
19078TIP3   OH278648   4.022   2.646  16.126 -0.0436 -0.3975  0.4145
19078TIP3    H178649   3.995   2.556  16.105 -1.2079 -0.4300  1.8742
19078TIP3    H278650   3.974   2.667  16.206  3.2009  0.1505  2.3767
19079TIP3   OH278651   4.291   3.616  12.061 -0.4487 -0.3121 -0.3674
19079TIP3    H178652   4.241   3.606  11.980  0.8605 -0.9709 -1.1342
19079TIP3    H278653   4.356   3.683  12.041 -0.5716  0.0336  0.3765
19080TIP3   OH278654   2.226   3.937   6.209  0.0508  1.1513 -0.4665
19080TIP3    H178655   2.281   3.866   6.177 -2.2076  0.6353 -3.5789
19080TIP3    H278656   2.284   4.014   6.210  2.2288 -0.3592  1.9063
19081TIP3   OH278657   5.481   0.137   1.663  0.2297 -0.4791 -0.3592
19081TIP3    H178658   5.444   0.097   1.741 -0.0844  0.4822  0.0046
19081TIP3    H278659   5.569   0.100   1.656 -0.7267 -2.7959 -1.2213
19082TIP3   OH278660   4.707   1.883  12.122  0.1483  0.5265 -0.5231
19082TIP3    H178661   4.640   1.815  12.124  0.1689  0.4650 -1.3163
19082TIP3    H278662   4.753   1.868  12.039  0.4976  1.1826 -0.4549
19083TIP3   OH278663   0.738   1.943   4.294 -0.2273 -0.0544  0.5961
19083TIP3    H178664   0.685   2.010   4.338  0.4003  1.0931 -0.3186
19083TIP3    H278665   0.809   1.924   4.355 -0.3442  0.2098  0.8140
19084TIP3   OH278666   6.447   5.942   6.346  0.1666  0.1917  0.3104
19084TIP3    H178667   6.457   6.035   6.368  1.1571  0.0264  0.6118
19084TIP3    H278668   6.496   5.896   6.415 -1.5787 -0.6390  1.0428
19085TIP3   OH278669   2.629   0.040   1.691 -0.4750  0.1155 -0.1024
19085TIP3    H178670   2.553   0.097   1.682  0.1370  1.1123  0.7595
19085TIP3    H278671   2.622  -0.021   1.618 -0.7071  1.8150 -1.5786
19086TIP3   OH278672   0.854   4.109   5.809  0.1509 -0.9955  0.0219
19086TIP3    H178673   0.773   4.141   5.849  0.9283  2.3168 -0.7995
19086TIP3    H278674   0.825   4.070   5.726 -0.6704 -0.2218 -0.0709
19087TIP3   OH278675   5.192   4.908  14.726  0.5966  0.2047  0.1769
19087TIP3    H178676   5.177   4.996  14.760 -1.4367  0.7958 -1.9508
19087TIP3    H278677   5.280   4.911  14.687  0.5520  1.3000  0.1368
19088TIP3   OH278678   5.917   5.232   4.638  0.1514 -0.4247 -0.4076
19088TIP3    H178679   5.849   5.195   4.694  0.0942  0.8846  0.4171
19088TIP3    H278680   5.875   5.307   4.595 -0.2391 -2.1650 -3.3227
19089TIP3   OH278681   5.146   1.251   2.121  0.2552 -0.9461  0.4571
19089TIP3    H178682   5.144   1.157   2.101 -1.1670 -0.8830  0.2033
19089TIP3    H278683   5.226   1.263   2.171  1.5518 -1.9281 -1.2684
19090TIP3   OH278684   1.334   5.494  11.813  0.0688  0.5736 -0.5883
19090TIP3    H178685   1.247   5.471  11.845  0.7924 -0.8271  0.5086
19090TIP3    H278686   1.322   5.514  11.721 -1.7627  2.5924  0.0010
19091TIP3   OH278687   4.232   0.217  14.133 -0.0516  0.1225 -0.3545
19091TIP3    H178688   4.318   0.222  14.091  0.6775 -0.0478  1.0578
19091TIP3    H278689   4.251   0.210  14.227 -1.5144 -2.7592 -0.1497
19092TIP3   OH278690   3.310   3.577  11.932  0.0735  0.4831  0.4824
19092TIP3    H178691   3.295   3.483  11.923 -0.7283  0.6446  0.0592
19092TIP3    H278692   3.222   3.615  11.938  0.3945  1.1863  0.8640
19093TIP3   OH278693   1.569   4.135  12.338 -0.1701  0.2185  0.4373
19093TIP3    H178694   1.555   4.107  12.429  0.6435 -0.0480  0.4869
19093TIP3    H278695   1.491   4.104  12.292  0.1797 -1.1622  0.7233
19094TIP3   OH278696   5.942   1.682   0.836 -0.6355 -0.3702  0.0505
19094TIP3    H178697   6.033   1.670   0.863 -0.4967 -1.8952 -0.9703
19094TIP3    H278698   5.921   1.603   0.786 -2.4171  0.1103 -0.0338
19095TIP3   OH278699   6.277   5.907  14.069  0.1058 -0.1288  0.2956
19095TIP3    H178700   6.368   5.915  14.040 -0.2140  0.9423 -0.4794
19095TIP3    H278701   6.229   5.881  13.991 -0.5823  1.5660  0.1187
19096TIP3   OH278702   6.224   0.435  12.413  0.0925 -0.4648 -0.0548
19096TIP3    H178703   6.230   0.391  12.498  0.2234  0.2844  0.3335
19096TIP3    H278704   6.256   0.524  12.430 -0.8426  0.0028 -0.6569
19097TIP3   OH278705   3.473   0.010  12.819 -0.0373 -0.3505 -0.5271
19097TIP3    H178706   3.541  -0.052  12.792  0.4311  0.1890 -0.5849
19097TIP3    H278707   3.468  -0.002  12.914  0.1944 -0.3362 -0.5118
19098TIP3   OH278708   0.420   3.605   4.782  0.5801  0.2000  0.2826
19098TIP3    H178709   0.399   3.690   4.743 -0.4655 -0.2098 -0.0777
19098TIP3    H278710   0.515   3.606   4.791  0.8008  0.5981 -1.6139
19099TIP3   OH278711   5.857   3.146   4.865 -0.1012  0.6907  0.0723
19099TIP3    H178712   5.882   3.145   4.773  1.0397  0.3530  0.3671
19099TIP3    H278713   5.935   3.115   4.912 -0.6388  0.9043  1.1557
19100TIP3   OH278714   0.873   0.635   2.118  0.3004  0.4668 -0.1026
19100TIP3    H178715   0.870   0.692   2.041 -0.9444  0.0183 -0.4073
19100TIP3    H278716   0.843   0.690   2.189 -0.5523  0.3016 -0.3302
19101TIP3   OH278717   1.059   3.081   2.912  0.0570  0.1357  0.0758
19101TIP3    H178718   1.015   3.092   2.828 -0.1247  0.2250  0.1833
19101TIP3    H278719   1.151   3.099   2.893 -0.2145  1.8356  0.2266
19102TIP3   OH278720   3.129   4.832   0.128 -0.2388  0.1927 -0.6150
19102TIP3    H178721   3.124   4.864   0.218 -0.7193  0.0874 -0.6018
19102TIP3    H278722   3.219   4.801   0.118 -0.8289 -2.1744  0.6506
19103TIP3   OH278723   4.508   6.132   5.593 -0.5217  0.8246  0.1895
19103TIP3    H178724   4.537   6.220   5.573  0.9289  0.3298  0.0472
19103TIP3    H278725   4.567   6.075   5.545  0.1127 -0.2837  2.1796
19104TIP3   OH278726   4.346   0.134   3.830 -0.0070  0.1903  0.2081
19104TIP3    H178727   4.354   0.132   3.735  1.0200 -0.5937  0.2880
19104TIP3    H278728   4.361   0.225   3.854 -1.1389  0.5531 -0.4347
19105TIP3   OH278729   0.243   4.029  11.350  0.2465 -0.4280 -0.5993
19105TIP3    H178730   0.172   4.069  11.399  0.6049 -0.0423 -0.3955
19105TIP3    H278731   0.246   4.078  11.268  0.4651 -0.2631 -0.4907
19106TIP3   OH278732   1.732   0.417   5.721 -0.4685 -0.3231 -0.1106
19106TIP3    H178733   1.689   0.481   5.664  1.0419 -1.5554 -2.8566
19106TIP3    H278734   1.662   0.358   5.748 -1.5246  1.2798  0.8125
19107TIP3   OH278735   2.395   0.535   3.176 -0.2818 -0.4560  0.4573
19107TIP3    H178736   2.353   0.493   3.251 -0.4940  2.4992  2.1653
19107TIP3    H278737   2.408   0.464   3.113 -2.6851 -2.5636  2.1077
19108TIP3   OH278738   5.960   0.384   1.651 -0.5087  0.1053  0.3539
19108TIP3    H178739   5.874   0.348   1.628 -0.3667 -0.2060  0.2987
19108TIP3    H278740   5.940   0.458   1.708 -0.7997 -0.2676  0.7513
19109TIP3   OH278741   3.182   0.909   6.485  0.1895  0.0461 -0.2065
19109TIP3    H178742   3.170   0.851   6.560  2.4185  0.9561  0.9436
19109TIP3    H278743   3.266   0.881   6.446 -0.5563  0.0796 -1.9277
19110TIP3   OH278744   0.356   6.736   0.511 -0.4560 -0.3002  0.3970
19110TIP3    H178745   0.438   6.692   0.533 -0.0155 -0.4260 -1.3442
19110TIP3    H278746   0.318   6.760   0.596  2.5714  2.0112  1.2986
19111TIP3   OH278747   2.984   6.363   5.142  0.1686  0.2524  0.1888
19111TIP3    H178748   3.079   6.366   5.133  0.1157 -0.6624 -0.8537
19111TIP3    H278749   2.965   6.415   5.220  1.5722 -0.0935  0.7723
19112TIP3   OH278750   4.598   0.187   4.188  0.3780 -0.2001 -0.0296
19112TIP3    H178751   4.570   0.115   4.132  5.1013 -1.3330 -1.3800
19112TIP3    H278752   4.624   0.256   4.126  0.8218  0.6021  1.0260
19113TIP3   OH278753   5.880   1.237   2.368  0.1961 -0.0705 -0.4514
19113TIP3    H178754   5.861   1.263   2.278 -1.2876  0.1868 -0.0874
19113TIP3    H278755   5.843   1.307   2.422 -0.6546 -1.1518  0.4142
19114TIP3   OH278756   6.257   2.848   1.843  0.4072  0.1077 -0.1991
19114TIP3    H178757   6.309   2.919   1.805  1.7107 -0.4122  0.5688
19114TIP3    H278758   6.308   2.769   1.825 -0.7932 -0.5983 -0.6205
19115TIP3   OH278759   5.212   0.233   0.340 -0.5336 -0.3226 -0.4140
19115TIP3    H178760   5.213   0.138   0.333  0.7781 -0.2527 -1.7521
19115TIP3    H278761   5.186   0.264   0.253 -0.9150  0.5472 -0.0080
19116TIP3   OH278762   2.204   1.552   0.247 -0.2443 -0.1245 -0.1462
19116TIP3    H178763   2.277   1.582   0.300  0.9203 -2.3045 -0.4172
19116TIP3    H278764   2.126   1.579   0.296  0.6803  2.1001  0.2305
19117TIP3   OH278765   6.785   3.167  12.702 -0.3645  0.0707  0.1976
19117TIP3    H178766   6.844   3.240  12.685 -0.4402  0.2397  0.6404
19117TIP3    H278767   6.700   3.207  12.715 -0.7733 -0.2539 -1.3866
19118TIP3   OH278768   0.939   0.696  16.436 -0.2921  0.4390  0.1226
19118TIP3    H178769   0.958   0.673  16.345  1.7092  0.9172  0.3686
19118TIP3    H278770   0.846   0.676  16.447 -0.7717  1.0337 -2.2168
19119TIP3   OH278771   3.733   1.387   4.885  0.5300 -0.5868 -0.4536
19119TIP3    H178772   3.793   1.430   4.946  0.0334 -0.6596  0.1030
19119TIP3    H278773   3.785   1.319   4.842  0.8664 -0.5840 -0.0531
19120TIP3   OH278774   3.230   5.289  12.755  0.7077 -0.0760  0.2593
19120TIP3    H178775   3.259   5.365  12.704  0.1820  0.8555  1.2861
19120TIP3    H278776   3.136   5.282  12.736  0.6424 -0.1178  0.5773
19121TIP3   OH278777   0.175   2.798  15.007 -0.0586  0.3739 -0.0740
19121TIP3    H178778   0.147   2.884  14.975  0.1681  0.6002  0.3244
19121TIP3    H278779   0.254   2.778  14.957 -0.7124 -0.1089 -0.9545
19122TIP3   OH278780   3.453   1.627  11.340 -0.1632  0.2894 -0.1377
19122TIP3    H178781   3.485   1.702  11.290 -0.8053 -0.7090 -2.1475
19122TIP3    H278782   3.427   1.563  11.274 -0.3305 -1.4306  1.5015
19123TIP3   OH278783   4.865   4.675   0.184  0.3648 -0.2038  0.1353
19123TIP3    H178784   4.876   4.676   0.089 -0.5744  0.7050  0.0154
19123TIP3    H278785   4.953   4.690   0.218  1.0786 -2.4917 -0.5102
19124TIP3   OH278786   2.147   4.271  16.271 -0.2320 -0.0314  0.4828
19124TIP3    H178787   2.225   4.313  16.306  0.0850  0.0524 -0.3042
19124TIP3    H278788   2.169   4.249  16.181 -0.4517 -1.6954  0.7849
19125TIP3   OH278789   4.305   5.147  12.076  0.1320  0.2739  0.2653
19125TIP3    H178790   4.230   5.090  12.067  0.2508  0.0074  0.9155
19125TIP3    H278791   4.371   5.094  12.120  0.9016  0.3280 -0.7809
19126TIP3   OH278792   2.439   2.882  11.505 -0.5857  0.5063  0.4412
19126TIP3    H178793   2.454   2.965  11.459  1.5887 -0.5133 -0.8559
19126TIP3    H278794   2.504   2.880  11.575  3.4389 -2.3097 -2.8884
19127TIP3   OH278795   6.536   1.638   0.760 -0.1070 -0.6069  0.1960
19127TIP3    H178796   6.524   1.557   0.711 -1.1404  0.2633 -1.0501
19127TIP3    H278797   6.560   1.609   0.848  1.7723 -2.2067 -0.7636
19128TIP3   OH278798   4.875   4.961  17.149  0.0983  0.7304 -0.1780
19128TIP3    H178799   4.901   4.886  17.096  0.1700  0.5018  0.1741
19128TIP3    H278800   4.781   4.952  17.160  0.3956 -0.6015  1.7803
19129TIP3   OH278801   0.952   0.402   5.215  0.6652  0.2449  0.1886
19129TIP3    H178802   0.998   0.477   5.178  0.5595  0.2759  0.1186
19129TIP3    H278803   0.870   0.397   5.164  0.9341 -0.2715 -0.1976
19130TIP3   OH278804   5.736   3.588   5.308 -0.3903  0.4393 -0.0939
19130TIP3    H178805   5.667   3.521   5.315 -0.1965  0.3945  3.1804
19130TIP3    H278806   5.797   3.566   5.378  1.5514  2.0855 -1.1639
19131TIP3   OH278807   3.427   0.610  12.033 -0.3277 -0.4078  0.0864
19131TIP3    H178808   3.357   0.629  11.970 -1.8948 -0.1113  1.8296
19131TIP3    H278809   3.382   0.569  12.107  1.4534 -0.7700  1.0318
19132TIP3   OH278810   5.363   5.578  13.896  0.1789 -0.5440  0.2224
19132TIP3    H178811   5.277   5.537  13.900 -0.3383  0.4233 -0.5498
19132TIP3    H278812   5.425   5.506  13.908 -0.7082 -1.4906 -0.7057
19133TIP3   OH278813   0.505   5.938   5.128  0.5895  0.3556 -0.1655
19133TIP3    H178814   0.546   5.851   5.125  1.1371  0.6514 -1.6130
19133TIP3    H278815   0.578   5.998   5.143  0.3645  0.6708 -0.3332
19134TIP3   OH278816   6.716   2.119  11.783  0.1436 -0.5911 -0.1611
19134TIP3    H178817   6.756   2.165  11.857  0.1392 -1.4045  0.3534
19134TIP3    H278818   6.757   2.033  11.783 -0.3996 -0.8586 -0.6457
19135TIP3   OH278819   1.810   5.068  10.221 -0.2804 -0.1224 -0.0736
19135TIP3    H178820   1.828   4.974  10.210 -1.4715 -0.4921  0.8616
19135TIP3    H278821   1.859   5.092  10.299 -0.3522 -0.0762 -0.0426
19136TIP3   OH278822   1.899   5.192  15.658  0.0369 -0.0595 -0.1194
19136TIP3    H178823   1.815   5.146  15.656 -0.0144  0.0504 -0.5169
19136TIP3    H278824   1.938   5.175  15.572  0.6405 -0.5160  0.2413
19137TIP3   OH278825   1.877   0.098  11.579 -0.2188  0.1957 -0.2076
19137TIP3    H178826   1.925   0.080  11.660  4.5678  1.5926 -2.3694
19137TIP3    H278827   1.898   0.189  11.559 -2.3920  0.3160 -2.3787
19138TIP3   OH278828   0.582   2.776  16.777  0.1042 -0.6548  0.3295
19138TIP3    H178829   0.672   2.802  16.797  0.7140 -0.7230 -2.0429
19138TIP3    H278830   0.534   2.795  16.858  1.9724  0.6396  1.2351
19139TIP3   OH278831   5.925   0.852   2.468 -0.1633 -0.1605  0.5010
19139TIP3    H178832   5.982   0.929   2.468  2.1189 -1.7301 -0.6232
19139TIP3    H278833   5.884   0.852   2.555  1.1127  1.3557  1.1511
19140TIP3   OH278834   3.964   3.181  16.351  0.6530  0.1963 -0.2150
19140TIP3    H178835   3.968   3.164  16.257  1.3769  1.5593 -0.4655
19140TIP3    H278836   3.952   3.276  16.357  1.0063  0.1760  1.0759
19141TIP3   OH278837   5.987   3.033  11.524 -0.2585 -0.0124 -0.0057
19141TIP3    H178838   6.043   2.964  11.488 -0.0255 -0.1205  0.5548
19141TIP3    H278839   6.036   3.066  11.599 -0.4020  0.7217 -0.2298
19142TIP3   OH278840   6.642   0.972  16.336  0.2384 -0.2885  0.3330
19142TIP3    H178841   6.697   0.972  16.414  1.4427 -2.5851 -0.4375
19142TIP3    H278842   6.703   0.985  16.263 -0.4449 -1.1687 -0.4210
19143TIP3   OH278843   3.774   5.268  14.810  0.1396  0.3039 -0.3446
19143TIP3    H178844   3.795   5.322  14.885  1.9333 -0.7163 -0.0516
19143TIP3    H278845   3.792   5.323  14.734  1.3767  0.3353 -0.0466
19144TIP3   OH278846   1.947   3.803   4.420  0.3233  0.6287 -0.4229
19144TIP3    H178847   2.027   3.781   4.371  0.5673 -0.0919  0.2662
19144TIP3    H278848   1.918   3.719   4.456 -0.2961  1.0184 -0.0034
19145TIP3   OH278849   4.489   1.385  15.097  0.4003  0.5595  0.1638
19145TIP3    H178850   4.496   1.320  15.166 -1.1434 -0.8805 -0.9483
19145TIP3    H278851   4.400   1.421  15.107  0.7695  1.5785 -0.0427
19146TIP3   OH278852   0.477   0.905   1.536  0.6881  0.4550  0.3277
19146TIP3    H178853   0.422   0.980   1.560 -1.3708 -1.7797  3.3744
19146TIP3    H278854   0.530   0.888   1.614  0.6588 -1.5805 -0.0368
19147TIP3   OH278855   0.442   2.421   3.243 -0.5574 -0.7793  0.2401
19147TIP3    H178856   0.387   2.454   3.314 -0.5080  1.1019 -0.5432
19147TIP3    H278857   0.531   2.447   3.266 -0.6520  0.7363 -0.9247
19148TIP3   OH278858   3.612   3.650  17.061 -0.5970 -0.1111 -0.2031
19148TIP3    H178859   3.530   3.604  17.042 -0.6153 -0.3530  0.4638
19148TIP3    H278860   3.591   3.742  17.044 -0.9125 -0.2043 -0.3395
19149TIP3   OH278861   5.806   4.572   2.652 -0.2443 -0.6824 -0.0094
19149TIP3    H178862   5.879   4.572   2.590  0.0503 -0.2522  0.3258
19149TIP3    H278863   5.801   4.663   2.682  0.4632 -1.1230  1.5664
19150TIP3   OH278864   3.338   2.880   0.732  0.4021 -0.5709  0.0774
19150TIP3    H178865   3.301   2.813   0.674 -0.0989  0.5821 -0.9878
19150TIP3    H278866   3.364   2.833   0.811 -2.4550 -1.5960  0.4991
19151TIP3   OH278867   1.214   2.708  15.272  0.3682  0.3870 -0.1838
19151TIP3    H178868   1.277   2.777  15.254  1.0485 -0.4990 -1.4072
19151TIP3    H278869   1.153   2.711  15.198  0.4217 -0.3234 -0.2686
19152TIP3   OH278870   4.118   6.678  15.285 -0.3188 -0.3586 -0.0529
19152TIP3    H178871   4.075   6.614  15.341  0.5829 -0.7236  0.2383
19152TIP3    H278872   4.193   6.631  15.247 -0.5975  0.0388 -1.1346
19153TIP3   OH278873   2.443   4.696   1.653  0.0256 -0.6230 -0.0817
19153TIP3    H178874   2.480   4.784   1.662  1.7779 -1.3610  0.5097
19153TIP3    H278875   2.406   4.677   1.739 -1.7313  0.0744 -0.6437
19154TIP3   OH278876   5.927   4.092  10.446 -0.0375  0.1859 -0.5514
19154TIP3    H178877   5.914   3.999  10.428  0.1183 -0.0024  0.2511
19154TIP3    H278878   6.019   4.108  10.427 -0.2984  0.4165 -1.6609
19155TIP3   OH278879   4.413   6.695   3.452 -0.2240 -0.0162 -0.3560
19155TIP3    H178880   4.355   6.619   3.455  0.1206 -0.3024  3.0564
19155TIP3    H278881   4.450   6.701   3.541  1.7351  2.6385 -1.2099
19156TIP3   OH278882   2.660   5.352  12.334  0.1370 -0.7795  0.0573
19156TIP3    H178883   2.597   5.356  12.262 -0.3796 -0.8697  0.4993
19156TIP3    H278884   2.675   5.258  12.347 -0.0160 -0.7721  0.2822
19157TIP3   OH278885   3.031   3.688  13.066  0.3305  0.1733  0.3564
19157TIP3    H178886   2.940   3.718  13.077  0.6132  1.0240  0.4208
19157TIP3    H278887   3.067   3.747  13.000  0.9289  0.0208  0.5495
19158TIP3   OH278888   6.363   0.870   0.858  0.2016  0.4749  0.4253
19158TIP3    H178889   6.332   0.791   0.903  1.1475 -0.1421  0.0202
19158TIP3    H278890   6.292   0.892   0.798  0.3319 -0.6526 -0.1676
19159TIP3   OH278891   2.663   6.465   4.380  0.1771 -0.0440  0.4533
19159TIP3    H178892   2.700   6.553   4.369  0.1895 -0.0510  0.4368
19159TIP3    H278893   2.570   6.479   4.394  0.2222 -0.0130  0.7233
19160TIP3   OH278894   0.424   3.950  16.016  0.1058  0.2360  0.1105
19160TIP3    H178895   0.463   4.034  15.995 -0.7116  0.3687 -0.9652
19160TIP3    H278896   0.487   3.908  16.074  0.9997  1.1559 -0.1704
19161TIP3   OH278897   1.602   0.256  12.718 -0.3249 -0.0727 -0.0354
19161TIP3    H178898   1.677   0.316  12.729 -0.9001  0.4120  1.4871
19161TIP3    H278899   1.537   0.287  12.781 -0.3924 -2.7148  1.3363
19162TIP3   OH278900   4.868   4.697  17.101 -0.3802 -0.1084 -0.6638
19162TIP3    H178901   4.954   4.690  17.058  1.0907 -2.4074  2.2871
19162TIP3    H278902   4.811   4.640  17.050  0.6708 -0.8948 -0.9966
19163TIP3   OH278903   2.687   5.250  15.703  0.4327 -0.2231 -0.2959
19163TIP3    H178904   2.641   5.328  15.735  0.0062 -0.7460  0.3948
19163TIP3    H278905   2.742   5.282  15.631  0.4328  0.7515  0.1245
19164TIP3   OH278906   0.166   4.361  11.212  0.2677  0.5728  0.0856
19164TIP3    H178907   0.077   4.351  11.247  0.4788  0.0071  0.4776
19164TIP3    H278908   0.180   4.282  11.159  0.1660  1.1474 -0.8038
19165TIP3   OH278909   6.594   3.144  14.865  0.0812 -0.3608  0.0368
19165TIP3    H178910   6.609   3.114  14.776  1.1326  0.3868 -0.0580
19165TIP3    H278911   6.528   3.212  14.857  1.2078  0.7283 -0.3930
19166TIP3   OH278912   1.418   1.836   0.113 -0.1137 -0.9460 -0.4883
19166TIP3    H178913   1.434   1.825   0.019  0.4704  1.1379 -0.6914
19166TIP3    H278914   1.332   1.880   0.117  0.9625  1.2764 -0.2514
19167TIP3   OH278915   5.056   6.151  10.372 -0.2035  0.3836 -0.0692
19167TIP3    H178916   5.141   6.107  10.382 -0.6742 -0.3246  0.9081
19167TIP3    H278917   4.996   6.082  10.344 -0.5303  0.8265 -0.4773
19168TIP3   OH278918   6.098   6.037   5.357 -0.3242 -0.0874 -0.5274
19168TIP3    H178919   6.075   6.129   5.340 -0.1073  0.2933  1.0581
19168TIP3    H278920   6.152   6.012   5.282 -0.4028  1.0785 -1.0007
19169TIP3   OH278921   1.026   2.899  13.721  0.2467 -0.3230  0.3531
19169TIP3    H178922   1.107   2.876  13.766  0.6431 -1.0244 -0.6782
19169TIP3    H278923   0.984   2.963  13.778  1.1046 -0.5978  1.3231
19170TIP3   OH278924   1.773   3.192  15.715 -0.5179 -0.4324  0.0384
19170TIP3    H178925   1.840   3.175  15.781 -1.0494 -1.0896  0.4205
19170TIP3    H278926   1.712   3.119  15.723 -0.6938 -0.4172 -1.0516
19171TIP3   OH278927   4.743   2.152  12.988 -0.1306  0.4020 -0.1926
19171TIP3    H178928   4.780   2.116  12.907  1.1957  0.8994  0.1549
19171TIP3    H278929   4.816   2.150  13.050 -0.7340  1.3201  0.5719
19172TIP3   OH278930   1.367   5.525  17.119 -0.1043  0.1398  0.7869
19172TIP3    H178931   1.412   5.558  17.041  0.6318  0.2294  1.2361
19172TIP3    H278932   1.376   5.596  17.184 -3.2947  1.3555  0.0793
19173TIP3   OH278933   0.593   0.365  11.941 -0.6552 -0.4319  0.7903
19173TIP3    H178934   0.665   0.395  11.996 -0.0215 -2.5075  1.1930
19173TIP3    H278935   0.589   0.271  11.957 -0.5666 -1.1209 -2.5223
19174TIP3   OH278936   4.737   2.311  13.654  0.2623 -0.0334 -0.0969
19174TIP3    H178937   4.792   2.234  13.672 -1.0071 -0.5023  2.0674
19174TIP3    H278938   4.794   2.386  13.671  1.2019 -0.4606 -1.2109
19175TIP3   OH278939   1.455   2.202  12.431 -0.5831  0.8000  0.4155
19175TIP3    H178940   1.494   2.279  12.471 -0.2042  1.5322 -1.3126
19175TIP3    H278941   1.400   2.236  12.361 -0.2853 -0.4956 -0.4797
19176TIP3   OH278942   1.800   3.584  14.953  0.3131 -0.6451  0.3874
19176TIP3    H178943   1.895   3.579  14.961  0.4298  0.9453  0.4331
19176TIP3    H278944   1.777   3.525  14.882  1.3430 -0.9729  0.3256
19177TIP3   OH278945   6.772   0.216  13.628 -0.2133  0.3986  0.0153
19177TIP3    H178946   6.678   0.202  13.631 -0.5659  0.5502 -4.3336
19177TIP3    H278947   6.809   0.129  13.645 -1.1918 -0.0153  0.1148
19178TIP3   OH278948   6.594   5.828  16.503 -0.0713  0.4027 -0.3828
19178TIP3    H178949   6.659   5.761  16.521  0.0001  0.6290  0.2120
19178TIP3    H278950   6.645   5.906  16.483 -0.1441  0.7359  0.6611
19179TIP3   OH278951   3.514   4.854  10.544  0.3341 -0.1478 -0.0297
19179TIP3    H178952   3.556   4.870  10.460  0.1736 -0.0102 -0.0839
19179TIP3    H278953   3.527   4.760  10.561  3.3948  0.4090  1.4143
19180TIP3   OH278954   5.395   5.295   5.432  0.2605  0.3566  0.1136
19180TIP3    H178955   5.430   5.302   5.344  0.2351 -0.2478  0.0506
19180TIP3    H278956   5.462   5.334   5.488 -0.4387  2.2940 -0.3082
19181TIP3   OH278957   5.344   6.579   0.086 -0.0302 -0.2973  0.2619
19181TIP3    H178958   5.367   6.629   0.007 -0.2074 -0.9399 -0.2033
19181TIP3    H278959   5.273   6.628   0.125  1.2292  1.0182  1.0164
19182TIP3   OH278960   5.918   3.258   3.415  0.0224  0.0105  0.3551
19182TIP3    H178961   5.981   3.319   3.452  0.2178 -0.3047  0.5528
19182TIP3    H278962   5.906   3.286   3.325  1.1610 -0.4982  0.0374
19183TIP3   OH278963   0.167   0.271  14.912  0.2917 -0.6552  0.4135
19183TIP3    H178964   0.152   0.365  14.923  1.0945 -0.3655 -0.7969
19183TIP3    H278965   0.084   0.237  14.880  0.1547 -0.2691  0.3502
19184TIP3   OH278966   1.795   1.315  15.035  0.0663 -0.3570  0.0067
19184TIP3    H178967   1.780   1.282  15.124  0.2007  0.5275  0.3719
19184TIP3    H278968   1.715   1.364  15.014  0.1366 -0.3554 -0.2654
19185TIP3   OH278969   3.869   1.007  15.705  0.1632  0.6193 -0.2213
19185TIP3    H178970   3.881   0.958  15.787  2.3677 -1.6991 -1.7891
19185TIP3    H278971   3.938   1.074  15.707  1.1451 -0.3491 -0.7554
19186TIP3   OH278972   3.326   0.705  12.455  0.3505 -0.3182 -0.0540
19186TIP3    H178973   3.346   0.798  12.444 -0.3674 -0.3502 -2.0235
19186TIP3    H278974   3.266   0.702  12.530  1.3785  0.6427  0.8341
19187TIP3   OH278975   4.448   5.359  17.108  0.4327 -0.2952  0.5793
19187TIP3    H178976   4.505   5.309  17.167  0.2211 -2.9357 -1.2991
19187TIP3    H278977   4.488   5.347  17.021 -1.9221 -0.6996 -0.5094
19188TIP3   OH278978   1.284   3.090  12.166 -0.3372 -0.0406 -0.5377
19188TIP3    H178979   1.258   3.140  12.243  0.3398  0.3463 -0.5517
19188TIP3    H278980   1.331   3.014  12.200  1.1998  0.8555 -0.5939
19189TIP3   OH278981   3.862   3.449  11.096 -0.1397  0.1113  0.1247
19189TIP3    H178982   3.843   3.380  11.159  1.0347  0.6054  1.0570
19189TIP3    H278983   3.912   3.513  11.145 -0.0394  0.9842 -1.0734
19190TIP3   OH278984   6.549   0.888  12.410  0.1457 -0.1495 -0.3459
19190TIP3    H178985   6.495   0.956  12.369 -0.3049 -0.7802 -0.8396
19190TIP3    H278986   6.618   0.871  12.346 -0.4497 -1.0040 -0.7907
19191TIP3   OH278987   3.422   3.270  15.475 -0.2116  0.3229  0.2457
19191TIP3    H178988   3.378   3.343  15.519  1.0298  0.1689  1.8278
19191TIP3    H278989   3.435   3.301  15.386  0.0916  1.9728  0.8183
19192TIP3   OH278990   4.717   2.512  16.404 -0.3549  0.5861  0.2289
19192TIP3    H178991   4.680   2.600  16.407  0.7907  1.0989  0.0102
19192TIP3    H278992   4.663   2.465  16.341  0.3607  1.8213 -1.3773
19193TIP3   OH278993   2.344   0.210  11.020 -0.7788 -0.4258  0.0234
19193TIP3    H178994   2.319   0.191  10.930 -0.8574  1.6068 -0.4503
19193TIP3    H278995   2.266   0.253  11.058 -1.1530 -2.2459  1.4441
19194TIP3   OH278996   1.964   3.949  11.135 -0.1824  0.0136  0.4350
19194TIP3    H178997   1.976   3.861  11.171  0.0256 -0.1639 -0.0599
19194TIP3    H278998   2.047   3.994  11.155  0.3797 -0.4290 -0.7641
19195TIP3   OH278999   5.088   5.823  16.379 -0.2747  0.0451 -0.6675
19195TIP3    H179000   5.120   5.824  16.470  0.1650 -0.3757 -0.8127
19195TIP3    H279001   5.089   5.731  16.355 -2.5725 -0.0981 -0.3510
19196TIP3   OH279002   1.799   6.793   3.943  0.1303  0.1975 -0.6910
19196TIP3    H179003   1.804   6.862   3.877 -0.1659 -0.8746 -1.8796
19196TIP3    H279004   1.878   6.740   3.929 -0.7056 -0.9549 -1.2886
19197TIP3   OH279005   2.431   5.138  11.044 -0.0151  0.1068 -0.0446
19197TIP3    H179006   2.503   5.177  10.994  0.3604 -0.1996  0.2481
19197TIP3    H279007   2.365   5.206  11.048 -0.5296 -0.2101 -1.9026
19198TIP3   OH279008   1.596   5.605   1.271  0.0610  0.5626  0.7881
19198TIP3    H179009   1.555   5.658   1.202 -0.7056  0.0586  0.8597
19198TIP3    H279010   1.561   5.640   1.353 -2.3631 -1.5790  0.7749
19199TIP3   OH279011   6.167   0.786   4.591 -0.3717  0.0885 -0.3138
19199TIP3    H179012   6.103   0.718   4.612 -1.8834  1.3711 -0.5667
19199TIP3    H279013   6.191   0.822   4.677  0.3508 -0.6656 -0.1879
19200TIP3   OH279014   4.267   4.110   1.922 -0.5730 -0.5135 -0.0815
19200TIP3    H179015   4.323   4.123   1.999  0.8515 -0.4950 -1.0687
19200TIP3    H279016   4.230   4.196   1.904 -0.4771 -0.3990  0.2712
19201TIP3   OH279017   1.113   3.548  15.204  0.2395 -0.2252 -0.0304
19201TIP3    H179018   1.149   3.520  15.288  0.9769  0.2711 -0.1611
19201TIP3    H279019   1.083   3.638  15.220 -0.8741 -0.6005  0.0491
19202TIP3   OH279020   4.659   4.288  14.166  0.1517 -0.2717 -0.2600
19202TIP3    H179021   4.668   4.363  14.225  1.2963 -1.5240  1.2555
19202TIP3    H279022   4.579   4.244  14.195  1.3990 -1.6129  1.3054
19203TIP3   OH279023   6.046   1.613  11.772 -0.6803 -0.1864  0.7224
19203TIP3    H179024   6.084   1.691  11.731 -1.6861 -0.9649 -1.8412
19203TIP3    H279025   6.078   1.617  11.863  2.8514  0.9154 -0.3736
19204TIP3   OH279026   4.336   1.645  11.906 -0.3251  0.5299 -0.1034
19204TIP3    H179027   4.359   1.553  11.908  0.2429  0.6606 -0.4413
19204TIP3    H279028   4.348   1.675  11.996  0.3118  0.4705 -0.1681
19205TIP3   OH279029   1.841   3.574  11.033 -0.3127 -0.1297 -0.3793
19205TIP3    H179030   1.751   3.551  11.010 -0.1298 -0.1773 -1.0724
19205TIP3    H279031   1.864   3.644  10.972  0.1455 -0.1651 -0.2511
19206TIP3   OH279032   5.896   2.817  14.425 -0.1975 -0.0179  0.6603
19206TIP3    H179033   5.804   2.841  14.416 -0.0743  0.3237  0.3008
19206TIP3    H279034   5.920   2.781  14.340 -0.3941 -1.5018  1.1986
19207TIP3   OH279035   6.549   6.596  14.737 -0.4507  0.1026 -0.0026
19207TIP3    H179036   6.615   6.552  14.790  1.2087  2.4376  0.0293
19207TIP3    H279037   6.486   6.630  14.801 -0.6679 -0.5012  0.1145
19208TIP3   OH279038   0.925   6.716  13.869  0.1965 -0.5078 -0.3829
19208TIP3    H179039   0.922   6.656  13.795  3.3762 -0.3763 -0.7743
19208TIP3    H279040   0.849   6.773  13.857 -2.7118 -3.9918 -0.2526
19209TIP3   OH279041   0.226   1.856  17.198  0.4081  0.2617 -0.2906
19209TIP3    H179042   0.308   1.811  17.216  0.5686 -0.1254 -1.7897
19209TIP3    H279043   0.235   1.941  17.240  1.3992  0.0498 -0.0537
19210TIP3   OH279044   0.380   3.212  13.553  0.0221  0.2625 -1.0185
19210TIP3    H179045   0.294   3.246  13.579  0.5193  1.6094 -1.0847
19210TIP3    H279046   0.425   3.195  13.636 -0.3132 -0.5014 -0.9827
19211TIP3   OH279047   1.322   4.804  12.681 -0.5256  0.0710  0.5529
19211TIP3    H179048   1.337   4.816  12.774  1.7253  0.6741  0.1689
19211TIP3    H279049   1.241   4.852  12.663 -1.4348 -0.7331  2.2971
19212TIP3   OH279050   5.065   1.760   3.533  0.4880 -0.0886 -0.0455
19212TIP3    H179051   4.983   1.744   3.579  0.8896 -0.3326  0.5962
19212TIP3    H279052   5.042   1.755   3.440  0.1996 -2.5387  0.0943
19213TIP3   OH279053   1.058   5.172   5.723 -0.0959  0.1025 -0.3996
19213TIP3    H179054   1.112   5.098   5.753 -0.9181  0.0052  0.9495
19213TIP3    H279055   1.012   5.139   5.647 -0.7131 -0.9221  0.3871
19214TIP3   OH279056   4.558   1.644   4.239 -0.3626  0.1894 -0.1664
19214TIP3    H179057   4.615   1.696   4.182  2.0637 -0.0662  1.8323
19214TIP3    H279058   4.504   1.709   4.284  0.1184  0.6821 -0.2889
19215TIP3   OH279059   6.486   0.456  13.771  0.3775 -0.5068 -0.2678
19215TIP3    H179060   6.555   0.496  13.719 -0.1766  2.7987  1.3048
19215TIP3    H279061   6.405   0.477  13.724  0.2086 -2.9171 -1.2166
19216TIP3   OH279062   2.133   0.608   2.824  0.4449 -0.1136 -0.0763
19216TIP3    H179063   2.213   0.577   2.781  0.4242  0.2778 -0.4046
19216TIP3    H279064   2.062   0.580   2.766  0.5058  1.7088 -1.1054
19217TIP3   OH279065   6.787   2.205  15.613  0.8605 -0.2055 -0.0158
19217TIP3    H179066   6.876   2.236  15.595  0.0250  2.9217  0.5586
19217TIP3    H279067   6.730   2.271  15.573 -1.2076 -1.5098  0.5912
19218TIP3   OH279068   5.812   1.598  17.001 -0.1005  0.6573 -0.7837
19218TIP3    H179069   5.884   1.552  16.959 -0.8943 -0.5499 -0.8571
19218TIP3    H279070   5.852   1.678  17.036  1.3913 -0.2495 -0.3218
19219TIP3   OH279071   5.586   2.717   2.430  0.0044  0.0389 -0.0935
19219TIP3    H179072   5.508   2.693   2.480 -0.4269 -0.0768 -0.8087
19219TIP3    H279073   5.560   2.795   2.382  1.6234  2.5829  2.8112
19220TIP3   OH279074   5.460   1.101   1.865 -0.2853 -0.3481  0.3704
19220TIP3    H179075   5.486   1.086   1.956 -0.3574 -0.8269  0.3122
19220TIP3    H279076   5.396   1.032   1.847  0.5930 -0.9595 -0.4174
19221TIP3   OH279077   5.823   0.039  12.646 -0.2852  0.1796  0.4768
19221TIP3    H179078   5.762   0.087  12.702 -1.1886 -0.2967 -0.0724
19221TIP3    H279079   5.773  -0.037  12.617 -0.2039  0.9495 -1.8170
19222TIP3   OH279080   4.238   0.439  11.215 -0.4890 -0.4937  0.4175
19222TIP3    H179081   4.175   0.378  11.254  1.9991 -0.7710  4.6560
19222TIP3    H279082   4.276   0.484  11.290  2.2087  1.8519 -2.1339
19223TIP3   OH279083   6.376   2.549  15.148  0.0055 -0.3434  0.0087
19223TIP3    H179084   6.394   2.636  15.114  0.8027 -0.9537 -1.2039
19223TIP3    H279085   6.447   2.494  15.113 -1.2574 -1.7586 -0.4481
19224TIP3   OH279086   1.632   2.626  16.059 -0.2178  0.3309 -0.0418
19224TIP3    H179087   1.721   2.661  16.058 -0.6165  1.3822 -0.0031
19224TIP3    H279088   1.599   2.645  15.971 -0.6027  0.4956  0.1359
19225TIP3   OH279089   3.531   0.010  11.924 -0.2599  0.0649  0.4005
19225TIP3    H179090   3.504   0.047  11.839 -1.1593  0.6994  0.9422
19225TIP3    H279091   3.448  -0.013  11.966  0.1739 -0.0796  1.1785
19226TIP3   OH279092   3.684   2.741   0.365  0.0960 -0.1241 -0.7347
19226TIP3    H179093   3.676   2.829   0.403 -1.0262 -0.6122  0.2306
19226TIP3    H279094   3.777   2.720   0.374  0.0089  0.0645  1.1856
19227TIP3   OH279095   5.594   5.432   5.578 -0.1036  0.2677  0.1549
19227TIP3    H179096   5.689   5.439   5.583  0.1418 -1.4413 -1.1552
19227TIP3    H279097   5.564   5.459   5.665  1.5628  0.8325  0.5968
19228TIP3   OH279098   6.483   5.063   0.830  0.1916  0.1880 -0.4470
19228TIP3    H179099   6.435   5.014   0.897  0.9398  1.1201  0.8240
19228TIP3    H279100   6.427   5.059   0.753 -1.1876 -0.0628  0.5243
19229TIP3   OH279101   3.219   0.486  14.429 -0.6100  0.2486 -0.3117
19229TIP3    H179102   3.219   0.559  14.367 -0.4432  0.2752 -0.2826
19229TIP3    H279103   3.185   0.523  14.510  3.7018  1.6107  1.1739
19230TIP3   OH279104   5.183   2.602   0.572  0.5709  0.1840  0.4853
19230TIP3    H179105   5.133   2.525   0.546  1.8193 -0.5216  0.1185
19230TIP3    H279106   5.168   2.665   0.502  0.3456 -0.0865  0.2871
19231TIP3   OH279107   3.940   6.246  14.675 -0.5370 -0.1889  0.3739
19231TIP3    H179108   3.870   6.182  14.683 -2.3416  1.8099  1.7451
19231TIP3    H279109   3.994   6.234  14.754 -1.0416  0.1457  0.7759
19232TIP3   OH279110   5.905   5.642  11.898 -0.2761 -0.3567  0.0231
19232TIP3    H179111   5.913   5.559  11.946 -0.8133 -0.3205  0.1826
19232TIP3    H279112   5.836   5.689  11.944  0.4475  0.4493  0.3091
19233TIP3   OH279113   0.374   3.708  17.142 -0.3372 -0.2698 -0.1774
19233TIP3    H179114   0.385   3.697  17.048 -1.6482  1.7012 -0.6142
19233TIP3    H279115   0.448   3.761  17.169 -0.4479 -0.0622 -0.2787
19234TIP3   OH279116   3.224   0.170   3.570  0.1566 -0.2596 -0.4839
19234TIP3    H179117   3.184   0.157   3.656  0.2046 -2.0667 -0.6945
19234TIP3    H279118   3.185   0.252   3.537  0.0063  0.3551  1.1534
19235TIP3   OH279119   0.204   5.221  11.792 -0.1018  0.0171  0.2527
19235TIP3    H179120   0.262   5.165  11.742  0.8110  2.2241 -1.3054
19235TIP3    H279121   0.122   5.220  11.743 -1.0150 -1.9481  1.6718
19236TIP3   OH279122   0.016   6.724  14.629  0.5759  0.3028 -0.0075
19236TIP3    H179123  -0.067   6.682  14.604  0.5153  1.2269 -1.5121
19236TIP3    H279124  -0.007   6.777  14.706  0.4201 -1.5000  1.2615
19237TIP3   OH279125   4.031   6.697  12.990 -0.0667  0.4123  0.1196
19237TIP3    H179126   4.048   6.688  12.897 -0.4653 -1.7885  0.2067
19237TIP3    H279127   3.952   6.751  12.996  0.0304  0.6566 -0.8068
19238TIP3   OH279128   0.946   0.297   6.768  0.0878  0.0938 -0.0393
19238TIP3    H179129   0.933   0.374   6.824 -0.4765  0.4882 -0.6954
19238TIP3    H279130   1.005   0.326   6.699 -0.5395  0.0999 -0.5840
19239TIP3   OH279131   3.629   5.135  12.881 -0.0248  0.3181 -0.1560
19239TIP3    H179132   3.701   5.076  12.860 -0.0780 -0.6778  2.2070
19239TIP3    H279133   3.630   5.141  12.976 -3.1206  0.1898 -0.0255
19240TIP3   OH279134   0.708   1.180   1.057 -0.1614 -0.4204 -0.0289
19240TIP3    H179135   0.709   1.156   0.965 -1.1658 -0.5945 -0.0067
19240TIP3    H279136   0.764   1.257   1.063 -1.0405  0.3127 -0.9982
19241TIP3   OH279137   5.867   2.092   0.681  0.5258 -0.0140 -0.0818
19241TIP3    H179138   5.814   2.015   0.701  0.8471  0.1636  1.5785
19241TIP3    H279139   5.826   2.163   0.731  0.7394  0.7127 -0.9228
19242TIP3   OH279140   4.466   4.832  13.170  0.0180 -0.5192 -0.4341
19242TIP3    H179141   4.473   4.796  13.082 -0.2363 -1.7429  0.0208
19242TIP3    H279142   4.421   4.763  13.220  0.1433  0.1611  0.6433
19243TIP3   OH279143   4.169   0.184  12.130 -0.1806  0.3639 -0.1447
19243TIP3    H179144   4.107   0.128  12.082  0.5014 -0.8639  0.3613
19243TIP3    H279145   4.240   0.200  12.067  0.9717 -1.6816  0.5437
19244TIP3   OH279146   2.281   4.604  15.709 -0.4182  0.0396 -0.1025
19244TIP3    H179147   2.337   4.647  15.644 -0.4400 -0.9247 -0.7675
19244TIP3    H279148   2.298   4.511  15.698 -0.8542 -0.1694  0.8924
19245TIP3   OH279149   2.322   4.396  10.942 -0.0826  0.1716 -0.2618
19245TIP3    H179150   2.397   4.347  10.977 -0.2030  1.2650  1.7200
19245TIP3    H279151   2.331   4.390  10.847  1.7101 -0.9359 -0.0673
19246TIP3   OH279152   6.601   2.613  16.762  0.3048 -0.2541 -0.1879
19246TIP3    H179153   6.575   2.640  16.850  1.9081 -0.8619  0.5226
19246TIP3    H279154   6.529   2.560  16.730 -0.5331  0.4177  0.5477
19247TIP3   OH279155   6.149   4.599   3.326 -0.0192  0.3387  0.3138
19247TIP3    H179156   6.078   4.642   3.374  0.8166  0.8992  1.0917
19247TIP3    H279157   6.162   4.516   3.372  0.0603  0.3949  0.3940
19248TIP3   OH279158   0.695   3.690   4.451  0.1567 -0.1231 -0.2264
19248TIP3    H179159   0.601   3.673   4.460  0.3664 -0.6481  1.1993
19248TIP3    H279160   0.724   3.624   4.387 -0.2824 -0.5594  0.0118
19249TIP3   OH279161   0.809   2.555   0.753  0.0473 -0.3148 -0.1556
19249TIP3    H179162   0.813   2.467   0.715  1.6809 -0.5439  0.4783
19249TIP3    H279163   0.859   2.610   0.692 -0.5572  0.0944 -0.2972
19250TIP3   OH279164   5.739   5.602   0.434  0.2757 -0.5672  0.2459
19250TIP3    H179165   5.708   5.512   0.428  1.2635 -0.8503 -1.5793
19250TIP3    H279166   5.793   5.604   0.513  0.0929 -1.5227  0.4073
19251TIP3   OH279167   2.818   3.370   1.204  0.4287 -0.1126 -0.4616
19251TIP3    H179168   2.800   3.302   1.270  0.6638  0.3579  0.1008
19251TIP3    H279169   2.733   3.386   1.163  0.0142  0.4073  0.5416
19252TIP3   OH279170   3.009   5.623   3.438 -0.2189  0.0385 -0.1968
19252TIP3    H179171   2.959   5.615   3.519  1.7867  1.0818  1.2077
19252TIP3    H279172   2.954   5.678   3.381 -1.5752 -0.5844  0.4619
19253TIP3   OH279173   0.375   6.409  11.023 -0.3478  0.0353 -0.0615
19253TIP3    H179174   0.325   6.453  10.954 -0.3735  0.0424 -0.0387
19253TIP3    H279175   0.466   6.428  11.002 -0.4078  2.1671  1.2951
19254TIP3   OH279176   6.554   6.339  14.325  0.6021 -0.3152 -0.5567
19254TIP3    H179177   6.570   6.390  14.246 -0.6559 -1.7626 -1.8210
19254TIP3    H279178   6.522   6.255  14.293 -0.0547 -0.9198  1.5058
19255TIP3   OH279179   5.728   2.346  13.219 -0.1257 -0.1491 -0.3551
19255TIP3    H179180   5.737   2.255  13.191 -0.1630 -0.3933  0.3969
19255TIP3    H279181   5.793   2.393  13.168 -1.0440 -0.3565 -1.7683
19256TIP3   OH279182   4.645   4.017  14.270 -0.1995 -0.2910 -0.4223
19256TIP3    H179183   4.672   3.926  14.257  2.1462  0.1548  0.7150
19256TIP3    H279184   4.676   4.063  14.193  1.3063  0.0070  0.3256
19257TIP3   OH279185   0.217   1.122  13.420 -0.6646  0.1628 -0.1840
19257TIP3    H179186   0.287   1.159  13.474 -1.0856  1.3113 -0.3789
19257TIP3    H279187   0.141   1.176  13.440 -1.1180 -0.1313 -1.0542
19258TIP3   OH279188   2.079   3.931  14.767  0.6570  0.1365  0.4655
19258TIP3    H179189   2.074   4.024  14.790 -1.9488  1.3432 -3.8984
19258TIP3    H279190   2.173   3.913  14.760  1.2408  2.3100  1.6747
19259TIP3   OH279191   0.213   3.397   3.274  0.1986  0.0609 -0.2470
19259TIP3    H179192   0.271   3.375   3.348 -1.1423 -0.8961  0.5640
19259TIP3    H279193   0.229   3.490   3.258  0.4293  0.3194  1.3392
19260TIP3   OH279194   1.378   0.629  16.455  0.4380  0.3279 -0.3340
19260TIP3    H179195   1.313   0.600  16.391  1.2032 -0.6148 -0.7020
19260TIP3    H279196   1.376   0.561  16.523  0.6258  0.6048 -0.0494
19261TIP3   OH279197   4.840   5.204   3.250  0.1554 -0.5525  0.0972
19261TIP3    H179198   4.919   5.160   3.221  0.3418  0.2847 -0.7170
19261TIP3    H279199   4.769   5.142   3.230  0.4412 -0.6199 -0.7651
19262TIP3   OH279200   3.999   0.966  13.445 -0.0755 -0.5387 -0.4017
19262TIP3    H179201   4.053   0.887  13.454  0.7390  0.0191 -0.2556
19262TIP3    H279202   3.999   1.005  13.532 -1.3156 -0.8926 -0.2243
19263TIP3   OH279203   4.624   4.090  13.229 -0.1069  0.2044  0.2428
19263TIP3    H179204   4.581   4.142  13.297  0.5409  0.5758  0.3832
19263TIP3    H279205   4.582   4.005  13.234  0.6389 -0.1144  1.8487
19264TIP3   OH279206   0.727   5.773  15.025 -0.2322 -0.7237 -1.0993
19264TIP3    H179207   0.647   5.781  15.078 -0.1794  0.6629 -1.2027
19264TIP3    H279208   0.719   5.842  14.959  0.2191 -1.7405 -2.2388
19265TIP3   OH279209   5.193   1.425  15.629 -1.1246 -0.3515 -0.7034
19265TIP3    H179210   5.209   1.507  15.582 -0.6305 -0.1683 -0.2228
19265TIP3    H279211   5.220   1.356  15.568  1.9401 -0.0637  0.1598
19266TIP3   OH279212   5.506   3.101   3.561  0.2351  0.0847  0.2362
19266TIP3    H179213   5.510   3.007   3.576  1.2863 -0.2609 -1.8532
19266TIP3    H279214   5.508   3.140   3.648  2.0332 -1.7718  1.0932
19267TIP3   OH279215   3.147   4.744   6.571 -0.5216 -0.0375 -0.5844
19267TIP3    H179216   3.206   4.739   6.647  0.6718  0.5902 -1.4286
19267TIP3    H279217   3.072   4.795   6.602  1.0150  2.2866 -0.4197
19268TIP3   OH279218   3.895   4.764   4.540 -0.1944 -0.3053 -0.0060
19268TIP3    H179219   3.800   4.771   4.531 -0.2847 -1.6413 -0.3592
19268TIP3    H279220   3.927   4.753   4.451  0.1188 -1.4831  0.2327
19269TIP3   OH279221   1.310   2.949  15.193  0.8201 -0.5605  0.2941
19269TIP3    H179222   1.228   2.981  15.157 -0.6793 -2.5302  1.7111
19269TIP3    H279223   1.349   2.897  15.122  0.3821 -0.3927 -0.0728
19270TIP3   OH279224   4.173   0.483  11.618 -0.1237  0.4695  0.0279
19270TIP3    H179225   4.135   0.449  11.699 -0.8541 -1.2611 -0.9917
19270TIP3    H279226   4.241   0.420  11.594 -2.6985 -1.5088 -2.8628
19271TIP3   OH279227   6.197   3.689  10.468  0.1308  0.0344  0.0389
19271TIP3    H179228   6.168   3.624  10.404  1.3768  0.5061 -1.0640
19271TIP3    H279229   6.223   3.638  10.545  0.7613 -0.7556 -0.6805
19272TIP3   OH279230   0.549   6.403   0.989  0.4399 -0.2476 -0.0418
19272TIP3    H179231   0.538   6.413   1.083  1.6591 -3.3803  0.5409
19272TIP3    H279232   0.644   6.394   0.976  0.3150  0.2965 -1.6198
19273TIP3   OH279233   2.205   1.462  12.723  0.4743 -0.5603 -0.0753
19273TIP3    H179234   2.282   1.439  12.670 -0.9253 -2.3560 -1.4529
19273TIP3    H279235   2.198   1.390  12.786  0.8223  0.4415  1.1706
19274TIP3   OH279236   5.009   3.612   3.366 -0.7555  0.6440 -0.2980
19274TIP3    H179237   5.053   3.529   3.384  1.0804  1.6593  0.1417
19274TIP3    H279238   4.917   3.596   3.387 -0.0816 -0.6579  1.9096
19275TIP3   OH279239   0.650   3.080  13.869 -0.6030 -0.1897  0.1577
19275TIP3    H179240   0.597   3.160  13.867  0.9535  0.9038  0.5206
19275TIP3    H279241   0.660   3.061  13.962 -1.3993 -1.1308  0.0596
19276TIP3   OH279242   2.883   1.774   0.083 -0.0805  0.4155 -0.1853
19276TIP3    H179243   2.869   1.738  -0.005 -0.7426  0.2576 -0.0262
19276TIP3    H279244   2.821   1.726   0.138  0.3953  0.4455  0.3889
19277TIP3   OH279245   4.088   4.778   5.547  0.2547 -0.0295  0.0926
19277TIP3    H179246   4.138   4.706   5.585  0.0817  1.0238  2.5069
19277TIP3    H279247   4.131   4.857   5.581 -1.5229  0.9428  0.1997
19278TIP3   OH279248   4.895   3.349   6.157  0.1896  0.1417  0.6663
19278TIP3    H179249   4.958   3.420   6.150  0.1934 -0.0205 -2.2852
19278TIP3    H279250   4.940   3.273   6.119 -0.7054 -0.7917  1.4062
19279TIP3   OH279251   5.263   0.141   2.689 -0.1915  0.5379 -0.4396
19279TIP3    H179252   5.195   0.127   2.623  0.2229  2.0609 -1.2410
19279TIP3    H279253   5.326   0.199   2.646  1.7194 -0.9711  0.2075
19280TIP3   OH279254   4.855   3.693  13.478 -0.6486 -0.4470 -0.9541
19280TIP3    H179255   4.850   3.620  13.416  0.1620 -0.2861 -1.2212
19280TIP3    H279256   4.902   3.657  13.553  0.6521  0.0650 -1.4989
19281TIP3   OH279257   4.204   4.981   3.420 -0.5449  0.0734  0.0362
19281TIP3    H179258   4.249   5.042   3.478  0.3586 -1.0014  0.4857
19281TIP3    H279259   4.273   4.944   3.365 -1.1116 -0.4085 -0.3680
19282TIP3   OH279260   3.203   4.180  10.376  0.5063 -0.0820  0.1826
19282TIP3    H179261   3.296   4.180  10.398  0.4773  0.9915  0.4006
19282TIP3    H279262   3.201   4.193  10.281  0.5860 -1.2539  0.0118
19283TIP3   OH279263   5.292   5.218   0.753 -0.5537 -0.3451 -0.1789
19283TIP3    H179264   5.211   5.182   0.787 -0.2484 -1.1560 -0.2844
19283TIP3    H279265   5.280   5.218   0.658 -0.5058 -0.2827 -0.1850
19284TIP3   OH279266   1.689   5.959   4.735  0.2420  0.0243 -0.4739
19284TIP3    H179267   1.677   6.054   4.735  0.3885  0.0784 -2.2278
19284TIP3    H279268   1.663   5.932   4.646  0.2273 -1.5690 -0.0082
19285TIP3   OH279269   1.794   3.537  15.790 -0.3545  0.3062  0.6469
19285TIP3    H179270   1.738   3.599  15.743 -1.0397 -1.7332 -1.4193
19285TIP3    H279271   1.815   3.469  15.726  1.5300 -0.8920  2.3913
19286TIP3   OH279272   5.942   2.736   2.767  0.0373  0.4067 -0.1688
19286TIP3    H179273   6.036   2.727   2.753  0.1612  1.9425 -0.4971
19286TIP3    H279274   5.906   2.751   2.679 -0.7981 -2.0358 -0.3229
19287TIP3   OH279275   3.469   5.854   2.270 -0.2675  0.1271  0.1490
19287TIP3    H179276   3.485   5.941   2.307  1.4670 -0.3579  0.5985
19287TIP3    H279277   3.543   5.801   2.299 -1.4107 -1.5817  0.0826
19288TIP3   OH279278   4.690   5.609  13.315 -0.1521  0.1964  0.1410
19288TIP3    H179279   4.641   5.571  13.388 -2.3187  0.3856 -1.0908
19288TIP3    H279280   4.721   5.534  13.265 -0.0218  0.0665  0.4170
19289TIP3   OH279281   5.042   5.339  11.443 -0.4620  0.1851  0.8893
19289TIP3    H179282   4.965   5.374  11.398  0.6327  2.2654  0.4880
19289TIP3    H279283   5.042   5.383  11.528 -0.0728 -0.2734  1.1327
19290TIP3   OH279284   4.925   3.325   1.884 -0.1087 -0.3082 -0.0194
19290TIP3    H179285   4.863   3.336   1.812 -1.8724 -4.1273  0.6198
19290TIP3    H279286   4.989   3.395   1.873 -1.9870  1.0897 -3.4505
19291TIP3   OH279287   0.835   1.869  13.495  0.0825 -0.3206  0.2286
19291TIP3    H179288   0.854   1.962  13.487  1.1408 -0.6735 -2.3974
19291TIP3    H279289   0.899   1.826  13.439 -0.6080 -2.6284  1.0643
19292TIP3   OH279290   4.254   4.053  15.138  0.0090  0.4161  0.1432
19292TIP3    H179291   4.175   4.008  15.108  1.0549 -0.5957 -1.2252
19292TIP3    H279292   4.312   3.983  15.167  0.5753  1.1070  0.7159
19293TIP3   OH279293   2.755   6.414  15.119  0.3975 -0.5688  0.2499
19293TIP3    H179294   2.692   6.429  15.049  0.5802  1.9786  0.5332
19293TIP3    H279295   2.812   6.346  15.085 -1.1006 -1.2831 -0.9683
19294TIP3   OH279296   6.197   3.422   5.179  0.4950  0.4338  0.5391
19294TIP3    H179297   6.274   3.372   5.205 -0.9892 -2.6672 -0.5049
19294TIP3    H279298   6.183   3.484   5.251  1.2656 -2.1583  3.0885
19295TIP3   OH279299   6.658   5.513  14.265 -0.0939 -0.0150  0.5429
19295TIP3    H179300   6.749   5.497  14.243  0.0453  0.7422  0.5472
19295TIP3    H279301   6.612   5.513  14.181 -0.1215 -0.5584  0.5543
19296TIP3   OH279302   0.614   6.516   5.062 -0.5620 -0.3736 -0.4907
19296TIP3    H179303   0.528   6.485   5.034 -1.6549  0.9070  1.2083
19296TIP3    H279304   0.606   6.525   5.157  0.9442  1.3241 -0.4751
19297TIP3   OH279305   4.959   1.378  13.162 -0.1935  0.1819  0.3071
19297TIP3    H179306   5.002   1.308  13.212  0.9722  1.6460  1.4664
19297TIP3    H279307   5.001   1.376  13.076 -0.6109 -0.9161  0.1180
19298TIP3   OH279308   1.953   4.676   5.699  0.0652  0.9884 -0.4526
19298TIP3    H179309   2.038   4.671   5.657 -0.5807 -0.7763 -1.6840
19298TIP3    H279310   1.903   4.604   5.661 -1.3321  0.7274  1.7096
19299TIP3   OH279311   4.020   3.567   1.647 -0.2780 -0.8597 -0.5830
19299TIP3    H179312   4.108   3.568   1.684 -0.9679 -1.7247  1.1744
19299TIP3    H279313   3.994   3.474   1.650 -1.5802 -0.5030 -0.2153
19300TIP3   OH279314   5.553   2.089   4.531 -0.1054  0.4475 -0.0679
19300TIP3    H179315   5.464   2.077   4.498 -0.2458  3.6817 -1.2165
19300TIP3    H279316   5.544   2.149   4.604  1.2144  2.1168 -1.2057
19301TIP3   OH279317   1.926   5.281  15.983 -0.2542 -0.6214  0.0677
19301TIP3    H179318   1.979   5.203  16.001  0.9169  0.0997 -0.1836
19301TIP3    H279319   1.907   5.317  16.070  0.7697 -0.1752  0.1181
19302TIP3   OH279320   3.836   1.178  11.267  0.2979 -0.2604  0.5319
19302TIP3    H179321   3.790   1.099  11.240 -0.4235  0.5214 -0.5713
19302TIP3    H279322   3.767   1.242  11.286  0.8822  0.6598 -0.3166
19303TIP3   OH279323   1.637   3.658  12.335 -0.2285 -0.2892 -0.1039
19303TIP3    H179324   1.594   3.588  12.385  2.3739 -1.2050  1.0507
19303TIP3    H279325   1.648   3.621  12.247  0.2167 -0.9707  0.2264
19304TIP3   OH279326   6.160   6.527  14.681  0.3827  0.3499  0.4795
19304TIP3    H179327   6.209   6.502  14.760 -0.5148  0.9733  1.2545
19304TIP3    H279328   6.069   6.506  14.702 -0.1513  2.4476  0.4290
19305TIP3   OH279329   2.215   4.868   0.203  0.3765 -0.3094  0.4568
19305TIP3    H179330   2.247   4.783   0.230  0.6735  0.3185  2.1775
19305TIP3    H279331   2.146   4.889   0.265  0.6510  0.9276  0.3730
19306TIP3   OH279332   5.475   3.450   5.747  0.2279  0.2890 -0.7521
19306TIP3    H179333   5.457   3.541   5.723  2.7488  1.5247  1.4858
19306TIP3    H279334   5.463   3.447   5.842 -0.4263 -1.9258 -0.8348
19307TIP3   OH279335   0.435   6.797   3.361  0.0835 -0.2435 -0.1174
19307TIP3    H179336   0.419   6.779   3.268  3.1031  0.0035 -0.8223
19307TIP3    H279337   0.460   6.889   3.363 -0.6481 -0.0652  1.0629
19308TIP3   OH279338   0.174   0.439  12.948  0.0881 -0.1903 -0.1036
19308TIP3    H179339   0.235   0.400  12.885  1.0404 -0.5952  1.0397
19308TIP3    H279340   0.090   0.437  12.903  0.9458  0.6720 -1.8448
19309TIP3   OH279341   4.130   3.635   5.611  0.3709  0.0607  0.3716
19309TIP3    H179342   4.093   3.607   5.527 -1.3778  2.2003  0.3453
19309TIP3    H279343   4.200   3.572   5.628  0.5459 -0.6742 -2.4922
19310TIP3   OH279344   2.185   5.163  14.585 -0.0436 -0.1322  0.3686
19310TIP3    H179345   2.178   5.255  14.559 -3.7708  0.1355  1.6894
19310TIP3    H279346   2.255   5.162  14.651  0.4358  1.6051 -0.0564
19311TIP3   OH279347   6.031   0.476  17.155 -0.0841 -0.7991 -0.0091
19311TIP3    H179348   6.049   0.382  17.157  0.2032 -0.7861 -1.2783
19311TIP3    H279349   6.086   0.510  17.084 -0.9073  0.1720 -0.2140
19312TIP3   OH279350   5.276   1.880  15.209 -0.0063 -0.0843 -0.0265
19312TIP3    H179351   5.337   1.945  15.246  1.3120 -1.4098  0.2334
19312TIP3    H279352   5.330   1.827  15.150 -1.1131 -0.7615 -0.4628
19313TIP3   OH279353   5.818   1.047   4.788 -0.4023 -0.4511 -0.2487
19313TIP3    H179354   5.795   1.005   4.870 -0.1481  1.2288  0.7283
19313TIP3    H279355   5.861   0.978   4.737 -2.8431 -2.2398 -0.0707
19314TIP3   OH279356   1.421   2.365  11.872  0.1980 -0.3595  0.1854
19314TIP3    H179357   1.464   2.344  11.955 -0.2509  0.5024  0.6525
19314TIP3    H279358   1.491   2.399  11.817  0.3399 -0.0986  0.5209
19315TIP3   OH279359   6.019   2.678   1.926 -0.0836  0.1372  0.2522
19315TIP3    H179360   5.986   2.666   1.837  0.7934 -2.3360  0.1840
19315TIP3    H279361   6.109   2.708   1.914 -0.2813  0.7857  0.3453
19316TIP3   OH279362   2.283   6.214  17.194 -0.2787  0.0925  0.1073
19316TIP3    H179363   2.364   6.220  17.143 -1.3431  0.3521 -1.6507
19316TIP3    H279364   2.271   6.120  17.209  0.3995  0.0612  0.4946
19317TIP3   OH279365   4.513   4.080   2.151 -0.3265  0.2311 -0.0254
19317TIP3    H179366   4.605   4.095   2.129 -0.3214  0.7003  0.2970
19317TIP3    H279367   4.480   4.167   2.174 -0.9146  0.1033 -0.3814
19318TIP3   OH279368   4.917   4.058  10.364 -0.3019  0.9750 -0.3965
19318TIP3    H179369   4.829   4.041  10.332 -2.0336  1.1273  3.6531
19318TIP3    H279370   4.945   3.975  10.403  0.2046  1.6147  0.6487
19319TIP3   OH279371   1.520   3.978  15.238 -0.2062 -0.4271  0.3850
19319TIP3    H179372   1.583   4.006  15.304 -0.0310  0.4126 -0.1368
19319TIP3    H279373   1.456   3.926  15.288  0.0635 -0.0297  1.1655
19320TIP3   OH279374   4.167   3.282   3.623  0.4453  0.0588  0.1286
19320TIP3    H179375   4.153   3.329   3.541 -1.0557  0.2486  0.4626
19320TIP3    H279376   4.178   3.351   3.689  2.5910 -0.0803 -0.0056
19321TIP3   OH279377   6.411   6.408   4.569  0.8640  0.7165 -0.0338
19321TIP3    H179378   6.369   6.392   4.654  2.3067 -0.9692  0.4351
19321TIP3    H279379   6.348   6.460   4.520  0.7468  3.4177  2.7143
19322TIP3   OH279380   2.318   4.028   0.818  0.3407 -0.5557 -0.4092
19322TIP3    H179381   2.344   4.118   0.798  0.7020 -0.1171  1.8064
19322TIP3    H279382   2.360   4.009   0.902 -1.9021 -1.8507  0.4896
19323TIP3   OH279383   2.547   5.804  12.144 -0.1202 -0.7633 -0.6445
19323TIP3    H179384   2.473   5.744  12.136 -1.5539  0.7937  0.3096
19323TIP3    H279385   2.507   5.891  12.147  1.6148  0.0388  1.6191
19324TIP3   OH279386   6.303   4.094   4.901 -0.4005  0.1169  0.1373
19324TIP3    H179387   6.289   4.048   4.983  2.8187  0.3486  0.9527
19324TIP3    H279388   6.256   4.177   4.911 -1.2812 -0.4801  1.0941
19325TIP3   OH279389   1.092   5.213  15.546  0.0622 -0.0234  0.0616
19325TIP3    H179390   1.100   5.203  15.451  0.5650 -0.7142  0.1709
19325TIP3    H279391   1.148   5.288  15.567  1.1843 -0.8134 -0.0049
19326TIP3   OH279392   4.199   4.025  12.023  0.5327 -0.0572  0.6181
19326TIP3    H179393   4.130   4.004  12.087 -1.3573  0.8830 -1.0248
19326TIP3    H279394   4.200   3.950  11.964  0.7574  0.0507  0.4848
19327TIP3   OH279395   0.002   2.335  11.202  0.1545  0.1493  0.4674
19327TIP3    H179396  -0.016   2.428  11.220 -0.3098  0.2893 -0.6123
19327TIP3    H279397  -0.030   2.289  11.279 -1.6756  0.7106  0.0996
19328TIP3   OH279398   0.075   5.235  14.479  0.5505 -0.3250 -0.4827
19328TIP3    H179399   0.019   5.179  14.425  1.0244 -0.2783 -1.0284
19328TIP3    H279400   0.056   5.324  14.449  0.8901 -0.3071 -0.6501
19329TIP3   OH279401   3.177   2.146   5.964  0.7956 -0.5924 -0.2555
19329TIP3    H179402   3.149   2.071   6.016 -0.1971 -0.4739 -0.5939
19329TIP3    H279403   3.100   2.202   5.960  2.0746  1.5224  1.8276
19330TIP3   OH279404   3.879   0.844   5.780  0.8613  0.9134 -0.1592
19330TIP3    H179405   3.916   0.767   5.737  1.9474  1.2799  0.1049
19330TIP3    H279406   3.832   0.808   5.855  0.1355  0.3958 -0.8361
19331TIP3   OH279407   0.889   5.013  13.909 -0.1785  0.2827 -0.2379
19331TIP3    H179408   0.817   4.956  13.937  1.5896 -1.8110  0.2366
19331TIP3    H279409   0.886   5.009  13.813 -0.0569 -0.6460 -0.2116
19332TIP3   OH279410   0.543   4.594   2.410  0.7106 -0.0181  0.1884
19332TIP3    H179411   0.575   4.511   2.376  0.6707  0.2887 -0.6208
19332TIP3    H279412   0.529   4.648   2.332 -1.9942 -0.2118  0.4447
19333TIP3   OH279413   1.169   1.372   3.237  0.0311  0.0957 -0.3575
19333TIP3    H179414   1.195   1.450   3.189  0.9460 -0.2582 -0.4624
19333TIP3    H279415   1.251   1.335   3.269 -0.5365  0.2525  1.3958
19334TIP3   OH279416   0.324   0.195  15.256  1.0336 -0.1272  0.5051
19334TIP3    H179417   0.249   0.212  15.313 -1.2357 -0.1839 -2.2237
19334TIP3    H279418   0.367   0.280  15.246  0.2531  0.3011  0.7060
19335TIP3   OH279419   4.062   5.052   0.197 -0.2558  0.4603  0.2062
19335TIP3    H179420   4.034   4.961   0.200 -1.3881  0.7273 -1.3318
19335TIP3    H279421   4.149   5.049   0.158 -0.1442  0.0211  0.4799
19336TIP3   OH279422   3.209   3.946  10.562 -0.1410  0.1086  0.3852
19336TIP3    H179423   3.283   3.992  10.602  0.9530 -0.7674 -0.5702
19336TIP3    H279424   3.177   4.007  10.495 -0.0995  0.3617  0.5913
19337TIP3   OH279425   4.819   6.687  14.828 -0.7765  0.1662  0.1758
19337TIP3    H179426   4.786   6.649  14.747 -2.0969  0.7045  0.4421
19337TIP3    H279427   4.908   6.653  14.835 -1.4799 -1.9256 -0.1928
19338TIP3   OH279428   6.316   3.115   5.088 -0.8665 -0.3501  0.3601
19338TIP3    H179429   6.364   3.042   5.128 -0.5895 -0.2979  0.1240
19338TIP3    H279430   6.366   3.193   5.114 -1.0152 -0.2675  0.3964
19339TIP3   OH279431   5.886   3.132  12.526  0.2119 -0.2901 -0.2197
19339TIP3    H179432   5.882   3.175  12.441 -2.0103 -1.2827 -0.6801
19339TIP3    H279433   5.885   3.204  12.590  1.0138  0.4269 -0.9807
19340TIP3   OH279434   6.008   1.046   4.265 -0.2072  0.3375  0.2814
19340TIP3    H179435   5.943   1.097   4.314  1.1371  0.4981  2.0128
19340TIP3    H279436   5.956   0.979   4.220 -1.6114  0.7247  1.2424
19341TIP3   OH279437   3.435   2.315   0.163 -0.3336 -0.3418 -0.8920
19341TIP3    H179438   3.358   2.282   0.209 -0.3004 -0.9132 -1.2368
19341TIP3    H279439   3.459   2.395   0.211 -1.6310  0.3160 -1.2913
19342TIP3   OH279440   0.435   6.578   5.562 -0.0419  0.0079  0.3656
19342TIP3    H179441   0.340   6.567   5.563 -0.0986  0.4817  1.6359
19342TIP3    H279442   0.467   6.514   5.625  0.3449  0.8077  1.0056
19343TIP3   OH279443   0.067   6.303  11.855  0.1381 -0.7331 -0.1908
19343TIP3    H179444   0.087   6.383  11.808 -0.2091 -1.0270 -0.8483
19343TIP3    H279445   0.107   6.233  11.803 -1.1047 -1.1588 -0.6093
19344TIP3   OH279446   4.864   4.049   0.105  0.0219 -0.2728 -0.2041
19344TIP3    H179447   4.899   4.068   0.017  0.8695 -0.6487  0.0351
19344TIP3    H279448   4.937   4.068   0.164 -0.4725 -0.2334  0.4038
19345TIP3   OH279449   3.918   6.546   1.166 -0.1818  0.0061 -0.2953
19345TIP3    H179450   3.838   6.579   1.208  1.0632  2.5477  0.3037
19345TIP3    H279451   3.908   6.569   1.074  0.5368  2.0334  0.0649
19346TIP3   OH279452   5.473   4.858   5.818 -0.3554  0.4274  0.4510
19346TIP3    H179453   5.422   4.923   5.866  1.1264  1.1537  1.1108
19346TIP3    H279454   5.531   4.910   5.762  2.1699 -0.1675  2.3328
19347TIP3   OH279455   3.821   4.676   0.694 -0.2562  0.2143  0.2056
19347TIP3    H179456   3.881   4.682   0.768  0.9649 -0.0850 -0.7353
19347TIP3    H279457   3.854   4.739   0.630  0.6213 -1.7369 -1.3750
19348TIP3   OH279458   6.462   1.749  12.961  0.3061 -0.1648 -0.1471
19348TIP3    H179459   6.419   1.670  12.994  0.7763 -0.8421 -1.0933
19348TIP3    H279460   6.392   1.814  12.956 -0.5607 -1.1264 -1.2739
19349TIP3   OH279461   2.122   0.367   3.022 -0.1307 -0.9425 -0.0457
19349TIP3    H179462   2.211   0.389   2.997 -0.6099  1.9634  0.4820
19349TIP3    H279463   2.069   0.390   2.946 -0.6275 -0.7112  0.3605
19350TIP3   OH279464   5.432   3.335  12.634  0.5521  0.1204  0.2129
19350TIP3    H179465   5.428   3.411  12.692  2.1194 -0.8346  1.6902
19350TIP3    H279466   5.507   3.352  12.577  0.0553  0.2974 -0.3919
19351TIP3   OH279467   4.086   1.357  16.673 -0.2130 -0.1268 -0.0394
19351TIP3    H179468   4.113   1.358  16.765 -1.0825  0.7848  0.2176
19351TIP3    H279469   4.113   1.443  16.640  0.9216 -0.7812 -0.9056
19352TIP3   OH279470   4.178   1.754   0.288 -0.0853  0.5566 -0.3579
19352TIP3    H179471   4.187   1.664   0.257 -2.5703 -0.2836  1.1059
19352TIP3    H279472   4.229   1.757   0.369  1.6644  1.1197 -1.4176
19353TIP3   OH279473   0.543   3.888  12.956  0.0626  0.4522 -0.3049
19353TIP3    H179474   0.563   3.911  12.865 -0.8459  0.7753 -0.4336
19353TIP3    H279475   0.588   3.955  13.008 -1.1677  1.5443 -0.6129
19354TIP3   OH279476   4.476   6.054   4.650 -0.0099  0.1543 -0.0155
19354TIP3    H179477   4.488   5.964   4.681 -1.5812  0.0248  0.2649
19354TIP3    H279478   4.382   6.068   4.650  0.2214  2.1484  0.9505
19355TIP3   OH279479   4.049   0.538   6.361  0.4421 -0.3432  0.2680
19355TIP3    H179480   4.059   0.632   6.350 -0.0010 -0.0423  2.1764
19355TIP3    H279481   4.106   0.516   6.434  0.4775 -1.5534 -0.1023
19356TIP3   OH279482   2.894   0.417   5.923  0.3677  0.1883 -0.2842
19356TIP3    H179483   2.807   0.395   5.956  0.6252  0.7474  0.7994
19356TIP3    H279484   2.950   0.416   6.000  1.5280 -1.0635 -1.0891
19357TIP3   OH279485   0.749   0.816  16.656 -0.2754 -0.1899  0.0011
19357TIP3    H179486   0.701   0.755  16.601 -0.4912 -0.1921  0.1904
19357TIP3    H279487   0.681   0.864  16.704 -0.1623  0.9625 -0.9447
19358TIP3   OH279488   5.416   6.210   4.883  0.2893  0.1957 -0.0433
19358TIP3    H179489   5.346   6.268   4.915 -0.2999 -0.0011 -0.9361
19358TIP3    H279490   5.388   6.185   4.795 -0.6073 -3.2237  1.0470
19359TIP3   OH279491   0.789   2.909  16.891  0.1577  0.1794 -0.0028
19359TIP3    H179492   0.883   2.910  16.874 -0.0578  1.1167 -1.3013
19359TIP3    H279493   0.782   2.900  16.986  1.5074 -1.7986 -0.0242
19360TIP3   OH279494   3.657   6.516   3.793  0.3802 -0.2626  0.5401
19360TIP3    H179495   3.730   6.567   3.758  0.7523 -1.0838  0.0993
19360TIP3    H279496   3.583   6.576   3.792  0.1726 -0.4411 -2.3689
19361TIP3   OH279497   6.077   1.683   1.754 -0.2783  0.0779 -0.3840
19361TIP3    H179498   6.096   1.590   1.742 -0.4928  0.2098 -1.9420
19361TIP3    H279499   5.998   1.686   1.807 -1.0701 -0.6739 -1.4987
19362TIP3   OH279500   0.357   2.864   1.318  0.0301  0.0352 -0.2730
19362TIP3    H179501   0.348   2.906   1.404 -1.1420 -0.5466 -0.0920
19362TIP3    H279502   0.428   2.912   1.275  1.8287 -0.7539  1.6586
19363TIP3   OH279503   5.775   5.985   2.152  0.0881 -0.7370 -0.1939
19363TIP3    H179504   5.739   6.038   2.223 -1.7256 -2.7758  0.5279
19363TIP3    H279505   5.745   6.028   2.072  1.2485  0.9938  0.2689
19364TIP3   OH279506   2.387   0.826  15.482  0.6195 -0.3884 -0.5541
19364TIP3    H179507   2.359   0.908  15.521 -1.8088 -1.6991  0.6780
19364TIP3    H279508   2.457   0.795  15.539 -0.4962 -0.5793  0.7584
19365TIP3   OH279509   1.352   2.063   5.896 -0.0515  0.4904 -0.1536
19365TIP3    H179510   1.294   2.007   5.948  0.1000  0.0513 -0.4527
19365TIP3    H279511   1.436   2.059   5.942  0.2878 -0.4944 -0.8260
19366TIP3   OH279512   1.694   1.912   0.169 -0.5966 -0.2358 -0.4042
19366TIP3    H179513   1.723   1.984   0.113 -0.8598  0.6334  0.5472
19366TIP3    H279514   1.599   1.909   0.157 -0.7095  0.2510  0.3283
19367TIP3   OH279515   6.429   1.468  14.962  0.1509  0.5942 -0.1993
19367TIP3    H179516   6.413   1.375  14.946  0.6109  0.4399  0.2083
19367TIP3    H279517   6.438   1.506  14.875  3.0078 -0.2950 -0.3910
19368TIP3   OH279518   4.455   1.755   3.422 -0.4780  0.1958  0.1659
19368TIP3    H179519   4.501   1.808   3.357 -1.8033 -1.4971 -2.3159
19368TIP3    H279520   4.523   1.698   3.458  0.1534  0.6224 -0.3163
19369TIP3   OH279521   2.495   3.116   2.335  0.0493 -0.2323 -0.1669
19369TIP3    H179522   2.476   3.150   2.422  0.9902  0.3268 -0.1592
19369TIP3    H279523   2.522   3.025   2.350  1.8539  0.3366  0.3570
19370TIP3   OH279524   0.204   1.073   6.224 -0.6603 -0.4476 -0.0571
19370TIP3    H179525   0.119   1.029   6.220 -0.7501 -0.2122 -1.9895
19370TIP3    H279526   0.257   1.018   6.282 -1.8206 -1.1444  0.3819
19371TIP3   OH279527   1.559   2.010   2.959  0.2491 -0.4425 -0.4994
19371TIP3    H179528   1.531   2.072   2.891 -1.4721  1.2027  1.5715
19371TIP3    H279529   1.652   2.028   2.971  1.0117 -1.8728 -3.4170
19372TIP3   OH279530   3.894   3.142  12.862  0.1104  0.2274  0.1600
19372TIP3    H179531   3.810   3.186  12.851 -0.1957 -0.2543  0.5435
19372TIP3    H279532   3.956   3.197  12.815 -0.2447  1.1421  0.7295
19373TIP3   OH279533   6.759   1.193  14.332 -0.3442  0.3098  0.6587
19373TIP3    H179534   6.702   1.214  14.406 -0.5625  0.1791  0.5305
19373TIP3    H279535   6.698   1.175  14.260 -0.2995 -3.0392  1.3009
19374TIP3   OH279536   5.129   4.734  16.457 -0.1953 -0.4378  0.0583
19374TIP3    H179537   5.132   4.830  16.462  0.4539 -0.4631  0.2201
19374TIP3    H279538   5.201   4.705  16.513 -1.2979 -1.0577  1.1962
19375TIP3   OH279539   6.629   5.857   4.912  0.0924  0.2559  0.6735
19375TIP3    H179540   6.544   5.866   4.869 -0.4817  2.4167  2.1001
19375TIP3    H279541   6.678   5.798   4.855 -1.6789  0.4858 -1.2275
19376TIP3   OH279542   5.529   0.716  14.917 -0.1624 -0.0637  0.0717
19376TIP3    H179543   5.559   0.802  14.887 -1.5904  0.2023 -0.6667
19376TIP3    H279544   5.568   0.706  15.004 -0.0470  1.3738  0.2129
19377TIP3   OH279545   0.401   0.278   5.252 -0.2335 -0.2356 -0.2054
19377TIP3    H179546   0.380   0.338   5.180 -0.6056 -0.4626 -0.2870
19377TIP3    H279547   0.437   0.201   5.210  0.1942 -0.0953 -0.1032
19378TIP3   OH279548   5.321   3.155  16.288 -0.0760 -0.2352 -0.5736
19378TIP3    H179549   5.311   3.209  16.210 -2.3082  1.5544  0.7980
19378TIP3    H279550   5.342   3.218  16.358 -2.0850 -1.1590  0.9688
19379TIP3   OH279551   6.703   0.956  15.659  0.2154 -0.1392 -0.0544
19379TIP3    H179552   6.713   0.941  15.753  0.8672  1.5527  0.1917
19379TIP3    H279553   6.609   0.947  15.642  0.3286 -2.5065  0.3319
19380TIP3   OH279554   2.431   3.124  12.070  0.5191  0.4692  0.1545
19380TIP3    H179555   2.450   3.152  11.981  0.9551  0.6289  0.2972
19380TIP3    H279556   2.380   3.043  12.059 -2.7455  2.3926 -0.3237
19381TIP3   OH279557   5.738   3.518   4.344 -0.2134  0.2283  0.0600
19381TIP3    H179558   5.766   3.443   4.395  0.2837  0.7163  0.5137
19381TIP3    H279559   5.818   3.568   4.327 -0.4142  0.2397 -0.9302
19382TIP3   OH279560   1.819   1.795   2.022  0.1375  0.6304  0.1078
19382TIP3    H179561   1.869   1.837   2.092 -0.3245  2.9853 -0.8636
19382TIP3    H279562   1.866   1.819   1.942 -1.2132  0.8886 -0.6387
19383TIP3   OH279563   1.279   3.414   1.346  0.5827 -0.2055 -0.1805
19383TIP3    H179564   1.307   3.420   1.255  0.8685  0.6047 -0.0516
19383TIP3    H279565   1.219   3.339   1.348 -1.2239  1.1231 -1.4857
19384TIP3   OH279566   2.053   4.647   6.475 -0.5635  0.3511  0.5485
19384TIP3    H179567   2.128   4.686   6.519  0.4329 -0.0263 -0.7614
19384TIP3    H279568   2.080   4.559   6.452 -1.3608  0.2362 -0.0251
19385TIP3   OH279569   3.259   3.329   2.864 -0.2985  0.0120  0.1476
19385TIP3    H179570   3.337   3.299   2.816  0.0153  0.1046  0.5944
19385TIP3    H279571   3.288   3.337   2.955 -1.2745 -1.5875  0.6436
19386TIP3   OH279572   1.330   6.210  12.274 -0.2647  0.0609  0.0138
19386TIP3    H179573   1.354   6.171  12.190  0.8972  0.9366 -0.0834
19386TIP3    H279574   1.266   6.149  12.312 -0.3192 -0.6637 -1.2121
19387TIP3   OH279575   1.762   4.715  16.162 -0.0619  0.1024 -0.1900
19387TIP3    H179576   1.767   4.709  16.257 -1.1909 -0.1915 -0.1337
19387TIP3    H279577   1.700   4.647  16.137 -0.2827  0.6123 -1.0812
19388TIP3   OH279578   5.377   3.278   0.415  0.5638 -0.4652 -0.1419
19388TIP3    H179579   5.460   3.256   0.373 -0.8846 -2.5278 -2.1574
19388TIP3    H279580   5.341   3.193   0.442 -0.7715  0.4084  0.9628
19389TIP3   OH279581   0.535   5.269   3.664  0.0694  0.2166  0.3145
19389TIP3    H179582   0.472   5.313   3.721 -0.5443  0.5021 -0.5765
19389TIP3    H279583   0.523   5.176   3.682 -1.6952  0.1659 -0.9250
19390TIP3   OH279584   5.466   5.538  11.687 -0.2508  0.0931  0.3083
19390TIP3    H179585   5.405   5.568  11.755 -0.9222 -0.1755 -0.1703
19390TIP3    H279586   5.552   5.564  11.720 -0.6962  1.4023  0.5100
19391TIP3   OH279587   4.236   6.481  16.651 -0.4204  0.0085  0.8364
19391TIP3    H179588   4.198   6.537  16.584 -1.0121 -0.2398  0.9574
19391TIP3    H279589   4.241   6.536  16.729  0.1888  0.2710  0.6215
19392TIP3   OH279590   2.313   4.332   2.270 -0.0546 -0.1440 -0.5042
19392TIP3    H179591   2.348   4.243   2.281  0.4304  0.0370 -0.5790
19392TIP3    H279592   2.286   4.358   2.358 -0.2995 -0.4051 -0.4988
19393TIP3   OH279593   5.222   6.435  14.668  0.1819  0.4709 -0.3272
19393TIP3    H179594   5.311   6.402  14.680 -0.5451 -1.3717  0.3881
19393TIP3    H279595   5.191   6.392  14.588 -1.1569 -1.6374  1.2048
19394TIP3   OH279596   0.648   6.547   0.360 -0.2583 -0.0368 -0.4152
19394TIP3    H179597   0.655   6.642   0.354 -1.6110  0.1899  0.9653
19394TIP3    H279598   0.722   6.514   0.310 -0.2513  1.7260 -1.6357
19395TIP3   OH279599   3.699   2.450   5.391 -0.3249  0.0699  0.2343
19395TIP3    H179600   3.770   2.398   5.428 -0.0220 -0.3998 -0.9498
19395TIP3    H279601   3.694   2.422   5.300 -1.6074  0.5592  0.1282
19396TIP3   OH279602   4.092   3.657   5.150  0.2018 -0.1372 -0.3887
19396TIP3    H179603   4.121   3.663   5.059  1.1060  2.3796 -0.0448
19396TIP3    H279604   4.169   3.683   5.201 -0.7247  0.0287  0.9879
19397TIP3   OH279605   4.036   5.862   2.458 -0.0758 -0.3812  1.0096
19397TIP3    H179606   4.105   5.871   2.524  0.1579  2.9973  0.4949
19397TIP3    H279607   4.066   5.915   2.384 -2.7387  0.4699  0.4061
19398TIP3   OH279608   2.490   4.686   5.594  0.2455  0.1814  0.2790
19398TIP3    H179609   2.523   4.632   5.522 -1.2031 -1.0284  0.4710
19398TIP3    H279610   2.557   4.678   5.662  0.7094 -0.2601 -0.2164
19399TIP3   OH279611   1.099   5.143   4.596 -0.4095 -0.5873  0.4489
19399TIP3    H179612   1.152   5.167   4.519 -0.5803  0.9095  0.7541
19399TIP3    H279613   1.163   5.117   4.662  0.1711  2.4677  1.2574
19400TIP3   OH279614   2.575   3.127  14.429 -0.4503  0.3917 -0.2384
19400TIP3    H179615   2.545   3.100  14.515  2.4932 -0.6239  0.6048
19400TIP3    H279616   2.551   3.219  14.422 -1.8872  0.1526  1.1056
19401TIP3   OH279617   4.211   0.175  14.413 -0.1080 -0.4969  0.2504
19401TIP3    H179618   4.231   0.219  14.495  0.9409 -0.4909  0.0038
19401TIP3    H279619   4.191   0.085  14.438  0.0738 -0.4604  0.5309
19402TIP3   OH279620   0.637   3.706  11.653 -0.5442 -0.0155 -0.5321
19402TIP3    H179621   0.681   3.639  11.601 -0.1458 -1.5244  1.6162
19402TIP3    H279622   0.544   3.695  11.633 -0.3619 -0.2576 -1.2624
19403TIP3   OH279623   0.512   6.104  13.700 -0.3295  0.0405  0.1939
19403TIP3    H179624   0.531   6.011  13.715  1.1104  0.2880 -0.0091
19403TIP3    H279625   0.528   6.145  13.785 -1.9227 -0.0101  0.5538
19404TIP3   OH279626   3.621   5.970  10.783 -0.2267  0.4225 -0.2185
19404TIP3    H179627   3.531   5.939  10.779  0.1982 -0.9063  0.1584
19404TIP3    H279628   3.647   5.983  10.692 -0.9967  1.4447 -0.3063
19405TIP3   OH279629   5.394   6.714   4.509 -0.1379  0.0863 -0.1632
19405TIP3    H179630   5.480   6.740   4.474  0.6924 -1.1792  0.8170
19405TIP3    H279631   5.341   6.793   4.505  0.1231  0.2340 -3.5217
19406TIP3   OH279632   2.960   4.110  16.857  0.1456 -0.0181 -0.1892
19406TIP3    H179633   2.902   4.175  16.897  2.8784  2.7582 -0.3636
19406TIP3    H279634   2.965   4.135  16.765  1.7299 -0.0366 -0.1332
19407TIP3   OH279635   1.942   5.683   2.184 -0.0068  0.7944 -0.0214
19407TIP3    H179636   1.880   5.718   2.120 -0.8867 -3.8108 -2.0745
19407TIP3    H279637   2.026   5.683   2.138  0.2779  1.4540  0.4897
19408TIP3   OH279638   5.884   0.372   3.759 -1.1507 -0.4061  0.1515
19408TIP3    H179639   5.935   0.444   3.722  0.7553 -2.2752 -1.0993
19408TIP3    H279640   5.831   0.340   3.686 -0.1722 -1.7508 -0.0086
19409TIP3   OH279641   4.489   3.358  10.336  0.5142  0.0521  0.4027
19409TIP3    H179642   4.430   3.325  10.268  1.5149  0.5654 -0.7642
19409TIP3    H279643   4.492   3.289  10.402  0.6538 -1.1216 -0.7871
19410TIP3   OH279644   0.719   1.254   2.367 -0.2734  0.3520 -0.1672
19410TIP3    H179645   0.769   1.209   2.435 -1.4979  1.4146  1.5273
19410TIP3    H279646   0.785   1.284   2.304  0.7454 -2.0042 -0.3047
19411TIP3   OH279647   0.088   1.402   1.648 -0.2517 -0.4265 -0.1301
19411TIP3    H179648   0.063   1.482   1.696 -0.6814 -1.5381  1.5978
19411TIP3    H279649   0.127   1.434   1.567 -1.4191  1.5231  0.0099
19412TIP3   OH279650   0.387   3.193   2.467 -0.3548 -0.5169  0.6020
19412TIP3    H179651   0.318   3.260   2.468 -0.4572 -0.5600 -1.0804
19412TIP3    H279652   0.340   3.110   2.464 -0.2209 -0.6751  2.1064
19413TIP3   OH279653   2.914   5.081   1.346  0.5068 -0.4976  0.1533
19413TIP3    H179654   2.905   4.986   1.358 -0.1096 -0.5411 -0.5909
19413TIP3    H279655   2.943   5.091   1.255 -0.7123  0.0700 -0.1963
19414TIP3   OH279656   3.550   3.385   0.296  0.2090 -0.3537  0.3849
19414TIP3    H179657   3.576   3.419   0.210  0.5231 -1.0741  0.1813
19414TIP3    H279658   3.583   3.449   0.359  1.0261 -0.4137  0.0261
19415TIP3   OH279659   5.809   1.706  12.441 -0.3668 -0.6189  0.0068
19415TIP3    H179660   5.827   1.789  12.397  2.5252 -1.6613 -1.0301
19415TIP3    H279661   5.812   1.727  12.534 -0.9213  0.6444 -0.2434
19416TIP3   OH279662   0.702   6.131   2.918 -0.4161  0.2792 -0.4778
19416TIP3    H179663   0.750   6.095   2.993  0.5726  1.4176 -0.5432
19416TIP3    H279664   0.620   6.081   2.916 -0.0441 -0.4204  0.7753
19417TIP3   OH279665   6.073   0.594  13.450 -0.3245  0.0870  0.2763
19417TIP3    H179666   6.010   0.654  13.411 -1.4715 -1.1870  0.0964
19417TIP3    H279667   6.139   0.581  13.382  0.9745  2.5286  0.9585
19418TIP3   OH279668   2.599   4.802   5.175 -0.1403 -0.3918  0.2441
19418TIP3    H179669   2.555   4.865   5.119  1.4520  0.1316 -0.4568
19418TIP3    H279670   2.579   4.831   5.264 -0.0654  0.6517 -0.0676
19419TIP3   OH279671   5.986   5.151  11.534 -0.4329 -0.3678 -0.1492
19419TIP3    H179672   5.891   5.156  11.523 -0.5700  3.8724  1.0761
19419TIP3    H279673   6.021   5.165  11.446 -0.9047 -1.4527 -0.5265
19420TIP3   OH279674   4.141   5.804   2.842 -0.0093 -0.0518  0.0750
19420TIP3    H179675   4.079   5.747   2.887  1.3456 -0.0958  2.0464
19420TIP3    H279676   4.092   5.884   2.822 -1.8597 -1.7096 -2.4955
19421TIP3   OH279677   0.859   6.492   5.304 -0.3281  0.5788 -0.0021
19421TIP3    H179678   0.792   6.494   5.373  0.3516 -0.3366  0.7173
19421TIP3    H279679   0.877   6.584   5.285 -0.5253  0.8497  1.0719
19422TIP3   OH279680   1.759   0.303   1.269 -0.4069 -0.0046 -0.1439
19422TIP3    H179681   1.811   0.222   1.266 -0.2384  0.0275  1.2339
19422TIP3    H279682   1.748   0.327   1.177  1.4160 -0.4118 -0.5259
19423TIP3   OH279683   5.392   0.799   6.381  0.5972  0.1884  0.2662
19423TIP3    H179684   5.361   0.762   6.464 -1.5304 -0.6718 -0.8333
19423TIP3    H279685   5.395   0.724   6.321  1.3310  0.9267 -0.6441
19424TIP3   OH279686   1.193   2.643  11.133  0.1882  0.5710 -0.0425
19424TIP3    H179687   1.109   2.628  11.177  0.0437  0.2463 -0.4237
19424TIP3    H279688   1.201   2.570  11.072 -0.1542  1.5989 -1.3716
19425TIP3   OH279689   4.655   6.424  16.433  0.2018 -0.5272  0.0093
19425TIP3    H179690   4.659   6.332  16.460  0.2732 -0.3739  0.5404
19425TIP3    H279691   4.725   6.466  16.483 -0.7810  0.0973  0.8916
19426TIP3   OH279692   1.682   4.577   2.861 -0.0361 -0.1185  0.2648
19426TIP3    H179693   1.607   4.633   2.839 -1.3944 -0.9622  2.4267
19426TIP3    H279694   1.668   4.497   2.811  0.6097  0.4991 -0.9581
19427TIP3   OH279695   6.135   4.513  11.548 -0.0146 -0.3837 -0.0162
19427TIP3    H179696   6.121   4.558  11.631  0.5674 -0.2789  0.0279
19427TIP3    H279697   6.082   4.563  11.485 -0.8715 -0.7795  0.3832
19428TIP3   OH279698   0.291   3.801   1.050  0.4547 -0.3755 -0.1987
19428TIP3    H179699   0.371   3.828   1.095  1.0213 -2.0934 -0.0967
19428TIP3    H279700   0.221   3.845   1.097  1.2350 -0.1000  0.7368
19429TIP3   OH279701   4.538   2.244  15.723  0.0863  0.0726 -0.3550
19429TIP3    H179702   4.580   2.243  15.810 -2.5150  0.7937  1.0124
19429TIP3    H279703   4.464   2.303  15.734 -1.2376 -1.0555 -2.6587
19430TIP3   OH279704   1.961   5.725  10.691  0.2407 -0.4418 -0.3950
19430TIP3    H179705   1.939   5.697  10.602 -0.6302 -1.8347  0.2303
19430TIP3    H279706   1.914   5.808  10.701  0.8882  0.0720 -1.4504
19431TIP3   OH279707   5.461   3.897  16.760  0.0867 -0.0953  0.4004
19431TIP3    H179708   5.398   3.968  16.776  2.9347  1.9563  3.8710
19431TIP3    H279709   5.418   3.820  16.796 -1.1364  0.8731  1.1328
19432TIP3   OH279710   2.722   1.261   2.130 -0.3619  0.1587  0.1591
19432TIP3    H179711   2.712   1.356   2.129 -0.3435  0.1577 -0.4400
19432TIP3    H279712   2.655   1.231   2.192  0.5157  0.6529  1.3783
19433TIP3   OH279713   1.883   6.708   0.563  0.6654 -0.5870  0.2384
19433TIP3    H179714   1.838   6.623   0.564 -0.1453 -0.1678  2.1139
19433TIP3    H279715   1.972   6.686   0.534  0.5068 -2.0932  0.7714
19434TIP3   OH279716   4.853   0.466   2.826 -0.4905  0.2148 -0.4482
19434TIP3    H179717   4.767   0.424   2.833  0.2359 -1.0775  2.5005
19434TIP3    H279718   4.903   0.409   2.769 -1.0652 -0.0034 -0.7441
19435TIP3   OH279719   5.746   2.060  13.560 -0.0818 -0.2240  0.0481
19435TIP3    H179720   5.746   2.144  13.605 -1.4962 -0.7269  1.0487
19435TIP3    H279721   5.832   2.022  13.579 -0.3246 -0.0472  1.6291
19436TIP3   OH279722   0.035   6.401  15.104 -0.1753  0.4430 -0.5836
19436TIP3    H179723  -0.045   6.383  15.055 -0.3183  0.0226 -0.2086
19436TIP3    H279724   0.078   6.471  15.056 -0.5886  0.4191 -0.9934
19437TIP3   OH279725   2.223   0.836   1.397 -0.0891 -0.7031 -0.4780
19437TIP3    H179726   2.302   0.889   1.413 -0.9197  0.6266 -0.6482
19437TIP3    H279727   2.151   0.893   1.423 -0.9591 -2.5761  1.5214
19438TIP3   OH279728   4.425   4.746  14.726 -0.0835 -0.1321  0.2376
19438TIP3    H179729   4.397   4.670  14.676  0.8940 -0.9141  0.8219
19438TIP3    H279730   4.359   4.813  14.709  0.1433 -0.4067 -1.9619
19439TIP3   OH279731   2.811   3.181   2.824  0.2325 -0.2400 -0.1703
19439TIP3    H179732   2.722   3.168   2.789 -0.0594  0.4719  0.2912
19439TIP3    H279733   2.798   3.199   2.917  0.7004  1.8661 -0.4723
19440TIP3   OH279734   5.461   3.978   1.678 -0.6329 -0.2647 -0.4410
19440TIP3    H179735   5.489   3.933   1.598  3.0680 -0.6533  0.8971
19440TIP3    H279736   5.498   4.065   1.672  0.7379 -0.6645  1.2834
19441TIP3   OH279737   1.106   6.374   0.249 -0.1088 -0.1500 -0.2151
19441TIP3    H179738   1.157   6.455   0.244  1.3977 -1.0618 -0.3769
19441TIP3    H279739   1.073   6.360   0.160 -0.2374  0.2119 -0.2222
19442TIP3   OH279740   5.878   6.736   1.632 -0.2251  0.0255  0.5292
19442TIP3    H179741   5.840   6.653   1.662 -2.5641  0.6377 -0.5516
19442TIP3    H279742   5.905   6.718   1.542 -1.7195  0.6734 -0.0798
19443TIP3   OH279743   0.704   3.988  10.903 -0.0282  0.0876  0.7823
19443TIP3    H179744   0.680   4.073  10.941 -0.9351  0.1672  0.0639
19443TIP3    H279745   0.626   3.934  10.915 -0.6109  0.3224 -1.5438
19444TIP3   OH279746   3.214   6.663  13.961 -0.2938 -0.1915 -0.1591
19444TIP3    H179747   3.240   6.752  13.984 -0.8838 -0.2153  0.6278
19444TIP3    H279748   3.233   6.611  14.039  1.8580 -1.1540 -1.2501
19445TIP3   OH279749   0.031   2.045   3.232  0.1443 -0.9759 -0.4944
19445TIP3    H179750  -0.011   2.011   3.312  1.2560 -0.5914  0.2806
19445TIP3    H279751   0.123   2.023   3.242  0.6073  0.6393 -0.8189
19446TIP3   OH279752   6.474   3.299   5.199  0.3518  0.3082  0.1420
19446TIP3    H179753   6.502   3.391   5.202 -0.1698  0.4626  0.4120
19446TIP3    H279754   6.529   3.255   5.263  0.8303  0.3702 -0.2243
19447TIP3   OH279755   2.266   4.650  10.541  0.0971  0.2814  0.3328
19447TIP3    H179756   2.294   4.571  10.587 -0.3310  1.7136  3.2611
19447TIP3    H279757   2.320   4.653  10.462  2.2565 -1.3566  1.6685
19448TIP3   OH279758   1.196   2.739  15.546  0.3429  0.3117  0.0961
19448TIP3    H179759   1.188   2.718  15.453 -0.0624  0.1897  0.1563
19448TIP3    H279760   1.180   2.656  15.591  1.0329  0.2610  0.2635
19449TIP3   OH279761   0.572   2.123   4.045  0.1121 -0.1678  0.1918
19449TIP3    H179762   0.489   2.172   4.047  0.5945  0.7100 -0.4167
19449TIP3    H279763   0.636   2.185   4.080  0.2451 -1.4523  2.4082
19450TIP3   OH279764   5.133   1.850   1.392  0.0329  0.5069  0.1927
19450TIP3    H179765   5.112   1.774   1.446  1.1115  1.0355  1.4305
19450TIP3    H279766   5.136   1.817   1.302 -0.7448 -0.6312  0.5787
19451TIP3   OH279767   6.532   1.127   2.267  0.1916 -0.5446 -0.5325
19451TIP3    H179768   6.554   1.096   2.179 -0.0430  0.7996 -1.0926
19451TIP3    H279769   6.591   1.201   2.282 -1.1614  0.5529 -0.4178
19452TIP3   OH279770   1.934   0.723   3.588 -0.4514 -0.5193 -0.5037
19452TIP3    H179771   1.993   0.726   3.513  0.7277  0.5828  0.4183
19452TIP3    H279772   1.951   0.638   3.628  1.2413  0.1325  0.2701
19453TIP3   OH279773   0.359   3.133   2.940 -0.7907 -0.7632  0.0337
19453TIP3    H179774   0.291   3.191   2.907 -0.3907  0.4421  1.2252
19453TIP3    H279775   0.322   3.096   3.020  0.7749  1.9043  2.1671
19454TIP3   OH279776   4.995   2.135   3.196  0.4085  0.1796 -0.2771
19454TIP3    H179777   4.988   2.083   3.117 -1.9770  0.8042 -0.5564
19454TIP3    H279778   4.987   2.225   3.166  0.0644  0.4539  0.6121
19455TIP3   OH279779   6.181   2.346   0.151 -1.2406  0.2174 -0.2555
19455TIP3    H179780   6.140   2.431   0.135  0.7524  1.0715 -1.2320
19455TIP3    H279781   6.204   2.348   0.244 -1.3912  0.6593 -0.2254
19456TIP3   OH279782   5.714   5.965  10.409 -0.2722  0.1710  0.9104
19456TIP3    H179783   5.669   5.947  10.327 -0.7128 -0.1230  1.2128
19456TIP3    H279784   5.644   5.982  10.472  0.0282  3.5771  0.5593
19457TIP3   OH279785   3.672   5.537   4.393  0.0480  0.1369  0.4167
19457TIP3    H179786   3.613   5.528   4.468  2.0804 -0.0576  2.0870
19457TIP3    H279787   3.638   5.612   4.345 -0.2024  1.5696  2.6514
19458TIP3   OH279788   5.271   4.919  16.166  0.2041 -0.5043 -0.8763
19458TIP3    H179789   5.189   4.962  16.142 -0.0687 -1.9640 -2.8058
19458TIP3    H279790   5.339   4.967  16.120  0.6137  1.1507  1.2778
19459TIP3   OH279791   5.714   1.867  13.257 -0.1715  0.7679  0.2946
19459TIP3    H179792   5.640   1.815  13.226  0.5968 -1.2969  1.7283
19459TIP3    H279793   5.733   1.832  13.344  2.1931  1.5599  0.1675
19460TIP3   OH279794   1.975   1.117  12.761  0.4960  0.3950 -0.2615
19460TIP3    H179795   1.995   1.180  12.830  0.2621 -0.0365  0.2018
19460TIP3    H279796   1.989   1.166  12.680  0.2804  1.0588  0.0951
19461TIP3   OH279797   4.987   2.507   1.030  0.0910 -0.3616 -0.1484
19461TIP3    H179798   4.909   2.507   1.085  0.6928 -0.4641  0.7383
19461TIP3    H279799   5.036   2.429   1.057  0.5340 -0.2578 -0.6288
19462TIP3   OH279800   5.960   0.062  12.038  0.0666  0.1389  0.0568
19462TIP3    H179801   6.027   0.024  11.982  0.3192 -0.2266  0.5970
19462TIP3    H279802   6.005   0.078  12.122 -0.5902 -0.3878  0.5211
19463TIP3   OH279803   5.133   0.663   0.909  0.6335 -0.0753 -0.6657
19463TIP3    H179804   5.138   0.657   0.813  1.5860  0.3565 -0.6500
19463TIP3    H279805   5.145   0.756   0.928  2.2270 -0.3660 -0.0495
19464TIP3   OH279806   4.958   1.336   5.354 -0.1590 -0.2587 -0.3856
19464TIP3    H179807   4.865   1.332   5.376 -0.2401  0.5721 -0.5478
19464TIP3    H279808   4.997   1.264   5.404 -0.6470  0.3268  0.8960
19465TIP3   OH279809   2.720   6.237  16.145  0.4742  0.0115  0.1548
19465TIP3    H179810   2.797   6.257  16.198  0.1159  0.4990  0.4969
19465TIP3    H279811   2.736   6.149  16.111  1.2990  0.2113  0.0079
19466TIP3   OH279812   6.205   2.246  14.345 -0.6416  0.0044 -0.6518
19466TIP3    H179813   6.142   2.302  14.389  0.0370 -0.5035  1.0148
19466TIP3    H279814   6.156   2.166  14.326 -1.1850  0.5584 -1.6762
19467TIP3   OH279815   2.758   3.467  12.081 -0.2111  0.4093  0.5633
19467TIP3    H179816   2.745   3.393  12.141 -0.7023  1.2006  1.4600
19467TIP3    H279817   2.693   3.454  12.012  1.5431 -1.5051 -0.8631
19468TIP3   OH279818   4.739   6.710   6.073 -0.4048 -0.5836  0.3364
19468TIP3    H179819   4.770   6.781   6.017 -0.1504 -1.6322 -0.8867
19468TIP3    H279820   4.650   6.737   6.098 -1.7487 -1.3723 -3.0142
19469TIP3   OH279821   5.735   3.449   0.080 -0.5053 -0.4565  0.3343
19469TIP3    H179822   5.731   3.375   0.019 -0.1605 -0.4169  0.2610
19469TIP3    H279823   5.810   3.500   0.050  0.4298 -1.0672  1.5026
19470TIP3   OH279824   1.828   2.042   2.984  0.3123 -0.0485  0.2084
19470TIP3    H179825   1.887   1.992   2.929  1.0926 -2.4842  3.0264
19470TIP3    H279826   1.831   1.999   3.069 -2.6308  2.0311  1.5616
19471TIP3   OH279827   2.758   6.044   4.960 -0.0136  0.3119  0.0520
19471TIP3    H179828   2.676   6.012   4.997  0.2698 -0.8995 -0.3087
19471TIP3    H279829   2.759   6.137   4.981 -1.6019  0.4123 -0.1989
19472TIP3   OH279830   2.139   1.340  16.514 -0.0119 -0.8228 -0.3097
19472TIP3    H179831   2.222   1.385  16.499  0.2733 -1.4691 -0.7292
19472TIP3    H279832   2.164   1.251  16.539 -0.5744 -1.2098 -1.0678
19473TIP3   OH279833   2.627   0.804  15.583 -0.2580  0.3798  0.0010
19473TIP3    H179834   2.666   0.874  15.530  0.4544 -0.6236 -0.8265
19473TIP3    H279835   2.651   0.827  15.673  1.8384  0.0997 -0.4297
19474TIP3   OH279836   5.231   5.945  16.175 -0.4491  0.3931 -0.1066
19474TIP3    H179837   5.192   5.914  16.256 -0.1445  0.0663 -0.0798
19474TIP3    H279838   5.167   5.924  16.107 -0.0378 -0.7615 -0.1542
19475TIP3   OH279839   2.453   0.378  11.750 -0.5422 -0.6416  0.4506
19475TIP3    H179840   2.464   0.317  11.676 -2.3744 -0.0694 -0.3614
19475TIP3    H279841   2.505   0.339  11.821 -0.0143 -2.0585 -0.6550
19476TIP3   OH279842   6.266   6.756   1.886  0.4926  0.0634  0.1597
19476TIP3    H179843   6.291   6.848   1.894 -0.5284  0.3194  0.6457
19476TIP3    H279844   6.187   6.749   1.940 -0.9756 -0.4715 -1.9424
19477TIP3   OH279845   6.527   6.186   6.436 -0.0858  0.4391  0.2340
19477TIP3    H179846   6.469   6.194   6.512 -0.5475 -0.5233 -0.0110
19477TIP3    H279847   6.564   6.274   6.425  0.2674  0.5098  1.7857
19478TIP3   OH279848   0.512   2.824  14.205 -0.1196  0.0759  0.6270
19478TIP3    H179849   0.589   2.773  14.231 -0.2271 -0.5497 -0.2542
19478TIP3    H279850   0.494   2.879  14.281 -0.2029 -1.4282  1.7503
19479TIP3   OH279851   4.341   4.762   6.486 -0.0468  0.3445 -0.1196
19479TIP3    H179852   4.328   4.671   6.512  0.4788  0.4087  0.4064
19479TIP3    H279853   4.436   4.774   6.488 -0.1572  1.1617  0.7250
19480TIP3   OH279854   5.766   5.049  15.521 -0.3025 -0.2844  0.2663
19480TIP3    H179855   5.787   4.955  15.520 -0.0591 -0.2779 -2.5699
19480TIP3    H279856   5.849   5.092  15.499 -0.8487  0.4571 -0.4038
19481TIP3   OH279857   0.298   4.723   0.103  0.0320 -0.3611  0.8435
19481TIP3    H179858   0.318   4.632   0.127  1.5414 -0.1080  0.6228
19481TIP3    H279859   0.318   4.773   0.182  1.8200  0.0727  0.1753
19482TIP3   OH279860   1.175   5.313   2.985 -0.3507  0.1878  0.3444
19482TIP3    H179861   1.194   5.406   2.969 -0.8066  0.5684  1.9001
19482TIP3    H279862   1.085   5.312   3.015 -0.2373 -0.7309  0.6738
19483TIP3   OH279863   3.416   0.150  15.367  0.1007 -0.0338 -0.3982
19483TIP3    H179864   3.426   0.106  15.451 -0.4951  0.4675 -0.0561
19483TIP3    H279865   3.423   0.243  15.387  2.6072  0.0453 -1.3021
19484TIP3   OH279866   1.120   3.524   0.807 -0.2401  0.0163 -0.1505
19484TIP3    H179867   1.124   3.602   0.751 -0.5580  0.2754  0.1840
19484TIP3    H279868   1.145   3.554   0.894 -0.2719 -0.2721 -0.0377
19485TIP3   OH279869   6.108   0.851  11.036  0.4644 -0.1667  0.0197
19485TIP3    H179870   6.107   0.772  10.982 -0.7986 -1.1332  1.3636
19485TIP3    H279871   6.182   0.902  11.003  0.5773 -1.3464 -1.6694
19486TIP3   OH279872   6.324   0.411  14.027  0.4762  0.5185 -0.2042
19486TIP3    H179873   6.246   0.356  14.035  0.2596  0.6075 -1.3826
19486TIP3    H279874   6.386   0.357  13.978  0.8266  0.7724 -0.0443
19487TIP3   OH279875   2.044   0.907   5.054  0.0547 -0.4891 -0.3497
19487TIP3    H179876   2.029   0.828   5.003 -0.1137 -0.3003 -0.5956
19487TIP3    H279877   1.974   0.909   5.118 -0.2120 -0.2996 -0.6431
19488TIP3   OH279878   4.243   4.969  11.201 -0.5335 -0.7516  0.2802
19488TIP3    H179879   4.220   4.901  11.137 -0.7845 -0.0481 -0.3893
19488TIP3    H279880   4.165   4.978  11.255 -0.5525 -0.8838  0.2776
19489TIP3   OH279881   0.587   5.402   2.077  0.7090  0.7415  0.5594
19489TIP3    H179882   0.664   5.450   2.108 -0.3032  1.1619  2.5964
19489TIP3    H279883   0.545   5.370   2.157 -0.7049 -0.3123 -0.5567
19490TIP3   OH279884   5.010   5.448  13.619  0.1935  0.1725 -0.2159
19490TIP3    H179885   5.085   5.441  13.679  0.2951  0.5720 -0.2951
19490TIP3    H279886   4.971   5.360  13.619  0.9712 -0.1827 -0.5733
19491TIP3   OH279887   6.590   4.078  11.695  0.1380  0.0149  0.5657
19491TIP3    H179888   6.553   4.049  11.778  1.3098 -0.7689  0.8499
19491TIP3    H279889   6.637   4.001  11.662 -0.5389  0.2218 -0.9625
19492TIP3   OH279890   6.402   4.267   5.261  0.5322  0.2878 -0.0794
19492TIP3    H179891   6.463   4.196   5.243 -1.5541 -1.6026 -0.1050
19492TIP3    H279892   6.318   4.224   5.277 -0.7038  2.7188  0.5446
19493TIP3   OH279893   5.358   0.889  13.496 -0.0069  0.4710  0.2459
19493TIP3    H179894   5.293   0.827  13.462  0.5170  0.3477 -0.5366
19493TIP3    H279895   5.428   0.890  13.431  0.4744  1.1109  0.7552
19494TIP3   OH279896   2.453   6.501   4.128  0.1035 -0.0785  0.1708
19494TIP3    H179897   2.396   6.439   4.174 -0.1897 -0.6489 -0.9283
19494TIP3    H279898   2.539   6.458   4.126  0.1854  0.0716  0.4253
19495TIP3   OH279899   2.326   2.221   0.020  0.4183  0.5844 -0.9095
19495TIP3    H179900   2.349   2.146   0.076  1.4779 -0.1871 -2.3299
19495TIP3    H279901   2.273   2.183  -0.049  0.6779  1.2031 -1.4519
19496TIP3   OH279902   6.520   4.353  11.764 -0.5025 -0.0710 -0.4761
19496TIP3    H179903   6.593   4.353  11.826 -0.1626  0.8460 -0.8552
19496TIP3    H279904   6.525   4.269  11.720 -0.6470 -0.6719  0.6223
19497TIP3   OH279905   5.239   2.348  11.217 -0.1051 -0.1482 -0.4396
19497TIP3    H179906   5.265   2.257  11.199  0.7622 -0.1990  0.8955
19497TIP3    H279907   5.227   2.351  11.312  1.7056  1.5477 -0.1845
19498TIP3   OH279908   3.578   6.481  16.465 -0.3831  0.5299  0.4129
19498TIP3    H179909   3.664   6.460  16.428 -1.6096 -1.8582 -1.3181
19498TIP3    H279910   3.549   6.559  16.417 -0.4746 -0.5095 -1.2924
19499TIP3   OH279911   5.953   0.565  14.186 -0.1341 -0.0207  0.2106
19499TIP3    H179912   6.002   0.596  14.110 -0.7008  0.0694 -0.1287
19499TIP3    H279913   5.993   0.609  14.260 -0.3878  0.8880 -0.1760
19500TIP3   OH279914   5.833   4.439   5.378 -0.0707 -0.3543  0.5598
19500TIP3    H179915   5.924   4.436   5.349 -0.6858 -0.4449 -1.5250
19500TIP3    H279916   5.813   4.532   5.388  0.4989 -0.3577  2.0263
19501TIP3   OH279917   2.759   3.533   4.934  0.5474  0.1143 -0.1408
19501TIP3    H179918   2.722   3.574   4.856  1.3678 -1.1825 -1.2599
19501TIP3    H279919   2.854   3.535   4.919  0.6258 -1.8302 -0.0761
19502TIP3   OH279920   2.751   3.519   1.916  0.2330 -0.0104  0.4779
19502TIP3    H179921   2.782   3.455   1.852  0.5782  0.5559  0.0723
19502TIP3    H279922   2.805   3.503   1.994  1.5260  0.9187 -0.1951
19503TIP3   OH279923   3.361   1.808  16.307  0.2818 -0.0855 -0.4758
19503TIP3    H179924   3.277   1.773  16.277 -0.4871 -0.7024  2.1506
19503TIP3    H279925   3.423   1.736  16.294 -0.0596 -0.3918 -0.4136
19504TIP3   OH279926   0.636   1.504   0.597  0.0299 -0.5415 -0.1085
19504TIP3    H179927   0.640   1.559   0.676  1.3943  0.7000 -0.9746
19504TIP3    H279928   0.668   1.562   0.527 -0.1094 -1.9499 -1.3722
19505TIP3   OH279929   6.450   6.301  13.562 -0.4169  0.5328  0.2382
19505TIP3    H179930   6.507   6.254  13.623 -0.7768 -2.7406 -1.7358
19505TIP3    H279931   6.487   6.390  13.560  2.6083 -0.5465  1.4912
19506TIP3   OH279932   1.874   2.239  11.692 -0.1548  0.1778 -0.4018
19506TIP3    H179933   1.869   2.144  11.688 -0.5969  0.2338 -1.4089
19506TIP3    H279934   1.941   2.263  11.628  1.1670  0.4634  1.0428
19507TIP3   OH279935   5.903   2.202  13.048  0.1422 -0.4300  0.2219
19507TIP3    H179936   5.961   2.269  13.012  0.9811 -1.0615  0.3962
19507TIP3    H279937   5.843   2.181  12.976  0.2883  0.0341 -0.0404
19508TIP3   OH279938   4.523   2.810  11.207  0.5908  0.1676  0.0083
19508TIP3    H179939   4.590   2.805  11.275 -0.0221 -0.6827  0.5741
19508TIP3    H279940   4.558   2.756  11.135  0.3491 -0.6136  0.4628
19509TIP3   OH279941   3.803   5.819  10.921 -0.3801 -0.0414 -0.1595
19509TIP3    H179942   3.818   5.729  10.892  0.1131  0.4388 -1.4785
19509TIP3    H279943   3.724   5.846  10.876 -2.7054 -0.9467  3.0363
19510TIP3   OH279944   2.416   2.853   3.368  0.0262 -0.3493 -0.1582
19510TIP3    H179945   2.470   2.775   3.367 -1.0074 -1.0866 -0.2287
19510TIP3    H279946   2.359   2.842   3.444 -1.6081 -0.7424 -1.3809
19511TIP3   OH279947   3.293   2.267   2.611 -0.0436  0.2851  0.1503
19511TIP3    H179948   3.310   2.361   2.609  0.4924  0.1903  0.2295
19511TIP3    H279949   3.269   2.249   2.702  1.4474  0.0738  0.5203
19512TIP3   OH279950   3.201   2.715  16.232  0.5785  0.6490  0.3838
19512TIP3    H179951   3.126   2.737  16.176 -0.2740 -0.0368  1.2127
19512TIP3    H279952   3.224   2.625  16.208  1.4625  1.0236 -0.2046
19513TIP3   OH279953   0.335   3.164   2.068  0.3262 -0.3364 -0.0852
19513TIP3    H179954   0.275   3.179   2.141  1.7060  0.2153  0.9709
19513TIP3    H279955   0.294   3.209   1.994 -0.5120  0.1183  0.6342
19514TIP3   OH279956   4.632   3.164  16.535  0.2567  0.2831  0.2114
19514TIP3    H179957   4.653   3.253  16.565  0.9538  1.0807 -2.3931
19514TIP3    H279958   4.597   3.121  16.612  1.1541  2.4057  1.9213
19515TIP3   OH279959   1.139   1.463  12.108 -0.1587 -0.3918 -0.5882
19515TIP3    H179960   1.158   1.421  12.192  0.2148 -0.6661 -0.8043
19515TIP3    H279961   1.045   1.477  12.109  0.0342  0.9407  0.4797
19516TIP3   OH279962   6.186   6.304  15.868 -0.5276 -0.5260  0.0457
19516TIP3    H179963   6.199   6.393  15.899  2.2810 -1.0281  0.5841
19516TIP3    H279964   6.155   6.315  15.778  1.7235  1.0842 -0.6356
19517TIP3   OH279965   3.296   6.043   0.586 -0.0243  0.3966 -0.2536
19517TIP3    H179966   3.213   6.079   0.617  0.8041  1.4119  0.9217
19517TIP3    H279967   3.334   6.001   0.664  1.3940  1.6010 -0.2423
19518TIP3   OH279968   2.957   0.684   6.058 -0.7172  0.0987 -0.1395
19518TIP3    H179969   2.969   0.711   6.149 -1.0745  0.9715 -0.3400
19518TIP3    H279970   3.036   0.634   6.037 -1.9681 -2.8776  1.5767
19519TIP3   OH279971   5.099   6.763   0.815 -0.1570  0.8070 -0.7805
19519TIP3    H179972   5.158   6.724   0.752  1.3667 -0.1905  1.1440
19519TIP3    H279973   5.155   6.817   0.871 -1.5142  2.0343 -0.5348
19520TIP3   OH279974   5.368   5.299   2.149 -0.1121  0.4299 -0.1840
19520TIP3    H179975   5.326   5.229   2.099 -1.5673  2.0572 -1.3535
19520TIP3    H279976   5.462   5.283   2.136 -0.3426 -1.8192  0.4072
19521TIP3   OH279977   5.446   6.641  15.621  0.4427  0.2435  0.4445
19521TIP3    H179978   5.471   6.683  15.538 -0.1016 -0.0745  0.1162
19521TIP3    H279979   5.516   6.578  15.638 -0.2574 -0.8730 -0.6382
19522TIP3   OH279980   5.023   3.374  15.534 -0.1785  0.0053  0.2526
19522TIP3    H179981   4.992   3.371  15.444 -0.5594  1.3158  0.3218
19522TIP3    H279982   5.063   3.288  15.549 -0.8800 -0.5329 -0.8759
19523TIP3   OH279983   2.288   6.520   3.162 -0.0392  0.0011  0.4116
19523TIP3    H179984   2.250   6.454   3.221  0.5024 -0.3370  0.3847
19523TIP3    H279985   2.314   6.591   3.219 -2.0959  0.9286  0.2908
19524TIP3   OH279986   5.711   2.182  14.768  0.0939 -0.7088 -0.1353
19524TIP3    H179987   5.783   2.226  14.813  0.2356 -1.4625  0.3903
19524TIP3    H279988   5.717   2.091  14.796 -0.4329 -0.9904 -0.8992
19525TIP3   OH279989   2.563   1.482   0.273 -0.1557 -0.6918 -0.4664
19525TIP3    H179990   2.565   1.480   0.177 -0.4570 -1.3601 -0.4695
19525TIP3    H279991   2.636   1.426   0.299 -1.2375 -2.0976 -0.3371
19526TIP3   OH279992   0.819   2.170  14.375 -0.1963  0.2928 -0.1832
19526TIP3    H179993   0.839   2.243  14.434 -0.4895  0.0378  0.2381
19526TIP3    H279994   0.758   2.208  14.311 -1.2668  0.1393  0.7183
19527TIP3   OH279995   3.965   2.634  10.473  0.0285  0.1779 -0.0374
19527TIP3    H179996   4.008   2.675  10.548  0.7177  0.1004 -0.3797
19527TIP3    H279997   3.899   2.577  10.511 -0.7652  1.4015  0.4520
19528TIP3   OH279998   1.623   2.819   1.517 -0.0390 -0.0455 -0.5606
19528TIP3    H179999   1.661   2.761   1.450  1.1962  0.8663 -0.6980
19528TIP3    H280000   1.612   2.763   1.593  1.7189 -0.3671 -0.4934
19529TIP3   OH280001   6.280   2.406  15.360 -0.2179  0.1220 -0.1155
19529TIP3    H180002   6.320   2.426  15.444 -0.1042 -1.4144  0.2278
19529TIP3    H280003   6.324   2.464  15.297  2.2829 -1.1821  0.2991
19530TIP3   OH280004   5.672   4.888   3.382  0.5056  0.1738 -0.3924
19530TIP3    H180005   5.735   4.891   3.453 -0.7062  0.8154  0.6963
19530TIP3    H280006   5.715   4.931   3.309  0.5036  2.8395  1.0438
19531TIP3   OH280007   5.592   6.695  12.300 -0.4576  0.0862 -0.3907
19531TIP3    H180008   5.645   6.668  12.374 -1.7272  1.0964  0.9500
19531TIP3    H280009   5.522   6.630  12.295 -0.5978  0.2377 -0.4348
19532TIP3   OH280010   1.480   4.476  11.427  0.4030 -0.8043  0.2123
19532TIP3    H180011   1.479   4.521  11.511  2.4872  1.6510 -0.9491
19532TIP3    H280012   1.571   4.480  11.398 -0.3882 -0.7513 -2.5713
19533TIP3   OH280013   5.704   2.962   5.014 -0.7141  0.6043 -0.5831
19533TIP3    H180014   5.727   3.010   4.935  0.6242  0.4520 -0.3022
19533TIP3    H280015   5.767   2.992   5.079 -2.8509  2.0808  0.9726
19534TIP3   OH280016   2.040   1.465   2.023 -0.3691 -0.4135  0.0155
19534TIP3    H180017   2.054   1.448   2.116  0.2543 -0.3282 -0.0599
19534TIP3    H280018   2.102   1.534   2.001 -2.3237  1.4556  0.1152
19535TIP3   OH280019   6.608   2.919  15.989 -0.4902  0.5251 -0.4651
19535TIP3    H180020   6.666   2.900  16.063 -0.0927  1.5238 -0.4974
19535TIP3    H280021   6.621   2.846  15.929  1.3412  1.0735 -0.8114
19536TIP3   OH280022   0.786   4.732   3.457 -0.7200 -0.3968  0.2119
19536TIP3    H180023   0.807   4.688   3.375  0.4734  0.9799 -0.2455
19536TIP3    H280024   0.853   4.703   3.518 -0.8521 -0.4158  0.3508
19537TIP3   OH280025   0.819   4.445  16.903 -0.9958  0.2244 -0.1801
19537TIP3    H180026   0.891   4.508  16.901 -1.2550  0.5238 -2.3273
19537TIP3    H280027   0.744   4.492  16.866 -2.1756 -0.2762  1.4339
19538TIP3   OH280028   3.064   0.787   1.964 -0.2464  0.5354 -0.2241
19538TIP3    H180029   3.110   0.750   2.039 -2.0470 -0.8480  0.2837
19538TIP3    H280030   3.008   0.715   1.933 -1.3923  1.8528 -1.3352
19539TIP3   OH280031   5.107   4.836   6.231 -0.3501 -0.3515  0.1193
19539TIP3    H180032   5.123   4.853   6.138 -1.2686  3.6645  0.5218
19539TIP3    H280033   5.188   4.863   6.274 -0.5060 -0.6694  0.6200
19540TIP3   OH280034   5.758   0.466   3.430  0.5488 -0.0930 -0.0639
19540TIP3    H180035   5.753   0.547   3.380  1.2205  0.0209  0.0419
19540TIP3    H280036   5.847   0.465   3.466  0.3624 -0.5965  0.4055
19541TIP3   OH280037   0.918   3.308   2.974  0.0129 -0.3925 -0.2161
19541TIP3    H180038   0.869   3.322   2.892 -0.2427  0.4866  0.0798
19541TIP3    H280039   0.979   3.237   2.953 -0.9775 -1.1115 -0.7755
19542TIP3   OH280040   6.709   5.678   2.449 -0.8430 -0.2737  0.3356
19542TIP3    H180041   6.769   5.752   2.456 -2.0983  0.7598  0.5126
19542TIP3    H280042   6.708   5.656   2.356  0.5964 -1.0172  0.4588
19543TIP3   OH280043   1.347   5.057  11.292  0.2547  0.0905  0.2320
19543TIP3    H180044   1.300   4.996  11.349 -0.2481  0.8540  0.6645
19543TIP3    H280045   1.289   5.133  11.286  0.5815  0.2721 -0.8085
19544TIP3   OH280046   0.303   6.571  16.990  0.4029 -0.2759 -0.1113
19544TIP3    H180047   0.390   6.533  16.977  1.4926  2.0587 -0.3074
19544TIP3    H280048   0.319   6.665  16.995 -1.9339  0.1231  1.6525
19545TIP3   OH280049   0.062   0.470   0.164  0.2372 -0.3418 -0.3327
19545TIP3    H180050   0.085   0.562   0.170  2.8460 -0.8531 -1.2634
19545TIP3    H280051  -0.026   0.465   0.201  1.0872  2.0623  2.3688
19546TIP3   OH280052   2.059   3.283  14.703  0.0444  0.1675 -0.0470
19546TIP3    H180053   2.030   3.198  14.668 -1.6476  0.4848  0.4995
19546TIP3    H280054   1.982   3.339  14.697  1.0156  1.5628  0.0081
19547TIP3   OH280055   2.240   6.238  12.405  0.5822  0.3614 -0.0724
19547TIP3    H180056   2.274   6.301  12.341 -0.7455  0.9719 -0.2018
19547TIP3    H280057   2.172   6.285  12.452 -0.7261 -1.0880 -0.4275
19548TIP3   OH280058   3.217   1.028  13.213  0.9111 -0.5005 -0.4664
19548TIP3    H180059   3.234   1.030  13.118 -0.9583 -1.7263 -0.8799
19548TIP3    H280060   3.264   1.105  13.247  1.5259  0.0421 -2.3871
19549TIP3   OH280061   0.385   1.852   1.642 -0.7854  0.0711 -0.2054
19549TIP3    H180062   0.340   1.832   1.724 -2.5741 -0.0679 -1.1714
19549TIP3    H280063   0.324   1.907   1.594  0.1562  0.0076 -1.5311
19550TIP3   OH280064   5.379   4.106   0.256  0.2912 -0.0914  0.0971
19550TIP3    H180065   5.447   4.039   0.256  1.1677  0.7691 -0.6405
19550TIP3    H280066   5.393   4.155   0.337 -0.3648 -0.7887  0.6484
19551TIP3   OH280067   2.909   3.338  16.733 -0.1877 -0.4320  0.0240
19551TIP3    H180068   2.898   3.425  16.771 -0.6167 -2.2489  4.6825
19551TIP3    H280069   3.003   3.322  16.734 -0.1860 -0.4146  0.2977
19552TIP3   OH280070   3.793   4.739   6.392 -0.0643 -0.2397 -0.7355
19552TIP3    H180071   3.719   4.776   6.344  1.0688  2.0563 -0.8026
19552TIP3    H280072   3.859   4.808   6.393  1.8788 -2.0017 -0.1488
19553TIP3   OH280073   6.493   5.547   2.628  0.3586 -0.6795  0.0643
19553TIP3    H180074   6.569   5.512   2.673  0.5254 -0.6552 -0.1942
19553TIP3    H280075   6.498   5.642   2.641 -1.3014 -0.8629  2.6693
19554TIP3   OH280076   6.475   2.398  17.008  0.3759 -0.8320  0.0789
19554TIP3    H180077   6.444   2.485  17.035  2.2424  0.1358 -0.7242
19554TIP3    H280078   6.401   2.361  16.960 -0.0423  0.8389 -0.6430
19555TIP3   OH280079   2.274   0.682  16.664 -0.1564 -0.4465  0.1610
19555TIP3    H180080   2.360   0.724  16.676 -1.3720  2.9797 -1.7600
19555TIP3    H280081   2.231   0.694  16.749 -0.1127  1.4835 -0.0450
19556TIP3   OH280082   1.983   3.494  10.536 -0.3831  0.8683 -0.6507
19556TIP3    H180083   2.007   3.501  10.628  1.3878 -0.2641 -0.9653
19556TIP3    H280084   1.950   3.580  10.512  0.2744  1.5339  0.7491
19557TIP3   OH280085   3.284   6.515   2.432  0.2555  0.4249  0.1484
19557TIP3    H180086   3.339   6.548   2.504  0.6224  0.8052 -0.3031
19557TIP3    H280087   3.235   6.592   2.402  0.3934  0.3531 -0.2653
19558TIP3   OH280088   3.744   3.390   5.344  0.2235 -0.6070  0.0733
19558TIP3    H180089   3.739   3.482   5.320 -2.4082 -0.5209  0.6309
19558TIP3    H280090   3.828   3.360   5.310  0.5752  1.6781 -1.2174
19559TIP3   OH280091   2.926   0.808   2.751  0.0523 -0.1458  0.1081
19559TIP3    H180092   2.974   0.747   2.807 -2.7145 -1.0060  1.7696
19559TIP3    H280093   2.902   0.879   2.810 -0.7371  0.2150 -0.6395
19560TIP3   OH280094   3.700   0.133   5.312  0.7667 -0.0269  0.1013
19560TIP3    H180095   3.742   0.174   5.236 -0.6170 -0.9191 -1.1990
19560TIP3    H280096   3.723   0.040   5.305 -2.9499 -0.9642 -1.8706
19561TIP3   OH280097   3.846   6.359   4.434 -0.2244  0.2917 -0.9272
19561TIP3    H180098   3.859   6.306   4.355  0.7867  2.2121 -2.1215
19561TIP3    H280099   3.933   6.363   4.474 -0.6918 -0.4992  0.2328
19562TIP3   OH280100   0.294   2.508   1.803 -0.0944 -0.3373 -0.4704
19562TIP3    H180101   0.321   2.539   1.717 -0.2946  0.4835 -0.2426
19562TIP3    H280102   0.241   2.430   1.785 -1.2826  0.6058 -1.1732
19563TIP3   OH280103   2.237   5.839   2.832 -0.7494 -0.6723  0.6085
19563TIP3    H180104   2.199   5.910   2.884 -2.2842 -1.4558  0.6267
19563TIP3    H280105   2.186   5.839   2.751  0.4818 -0.5708 -0.1840
19564TIP3   OH280106   2.873   3.798   0.083  0.3752 -0.4901 -0.0899
19564TIP3    H180107   2.828   3.864   0.030 -0.3813 -0.1910  0.8878
19564TIP3    H280108   2.943   3.766   0.027  0.0731  0.3592 -0.9874
19565TIP3   OH280109   6.096   6.605  13.891 -0.5057  0.1144 -0.7628
19565TIP3    H180110   6.009   6.565  13.883 -1.2089  1.3917  0.1712
19565TIP3    H280111   6.146   6.543  13.943 -0.8521 -0.6241 -1.2904
19566TIP3   OH280112   5.629   2.638   1.588 -0.2750 -0.2074 -0.6244
19566TIP3    H180113   5.605   2.630   1.680 -0.3618 -0.8309 -0.6964
19566TIP3    H280114   5.591   2.722   1.561  1.8119  1.2091  0.5184
19567TIP3   OH280115   6.062   3.266  14.622 -0.2805 -0.3127  0.5014
19567TIP3    H180116   6.144   3.231  14.586 -1.7253 -2.4328 -0.9905
19567TIP3    H280117   6.002   3.191  14.621 -2.0464  0.9735  2.2685
19568TIP3   OH280118   6.501   2.142  13.147 -0.3306 -0.3095  0.6220
19568TIP3    H180119   6.426   2.151  13.088  0.8985 -2.2968 -1.3738
19568TIP3    H280120   6.462   2.110  13.229 -1.7766 -0.2233  0.0067
19569TIP3   OH280121   4.843   4.400   4.826 -0.0291 -0.3927  0.3857
19569TIP3    H180122   4.847   4.309   4.795 -0.8220  0.0303 -1.0730
19569TIP3    H280123   4.915   4.444   4.780 -1.0181  0.1737 -0.6941
19570TIP3   OH280124   4.042   1.240   0.258  0.2554 -0.8759 -0.2887
19570TIP3    H180125   4.006   1.195   0.334  0.5844 -1.1493 -0.2944
19570TIP3    H280126   4.041   1.175   0.188 -1.5616 -0.1718 -0.9879
19571TIP3   OH280127   1.295   5.818  15.427 -0.8992  0.3096 -0.3111
19571TIP3    H180128   1.388   5.824  15.409 -0.7175 -0.2708  0.4254
19571TIP3    H280129   1.259   5.901  15.394 -0.3511 -0.0471 -1.8596
19572TIP3   OH280130   6.517   1.810  11.824  0.9818  0.6745  0.0978
19572TIP3    H180131   6.512   1.739  11.760  3.1424  1.0361 -0.5793
19572TIP3    H280132   6.487   1.887  11.775 -2.7671  0.1175  1.2525
19573TIP3   OH280133   1.434   5.001   1.541  0.7226  0.3190 -0.3934
19573TIP3    H180134   1.460   5.004   1.449 -0.1724  1.2232 -0.6438
19573TIP3    H280135   1.489   4.933   1.580  0.6951 -0.4999 -1.7229
19574TIP3   OH280136   3.554   4.489  11.968  0.0084  0.3059  0.1292
19574TIP3    H180137   3.513   4.509  11.884  1.1148  0.9006 -0.2965
19574TIP3    H280138   3.529   4.561  12.025  1.8875  1.6692 -0.6614
19575TIP3   OH280139   0.329   5.134  14.456  0.2920  0.5900 -0.4537
19575TIP3    H180140   0.240   5.164  14.440 -0.1256 -0.5470 -0.3162
19575TIP3    H280141   0.384   5.212  14.440 -0.5984  0.9806 -1.7252
19576TIP3   OH280142   0.450   2.444   1.451  0.2915 -0.3901  0.1104
19576TIP3    H180143   0.498   2.489   1.381 -0.3873  0.0591 -0.0837
19576TIP3    H280144   0.509   2.446   1.526  0.4307  0.4986 -0.0063
19577TIP3   OH280145   5.212   0.220  12.754 -0.5947  0.2321  0.0074
19577TIP3    H180146   5.290   0.178  12.791  0.4790 -0.9635 -3.2622
19577TIP3    H280147   5.138   0.172  12.791  0.4225 -1.2346  0.2090
19578TIP3   OH280148   2.281   0.103   3.880 -0.3096  0.2666  0.5458
19578TIP3    H180149   2.261   0.056   3.962 -0.3826  2.9195  2.1508
19578TIP3    H280150   2.346   0.168   3.905  0.5723  0.3756 -1.8288
19579TIP3   OH280151   4.160   2.903   3.589  0.0549 -0.7939  0.1409
19579TIP3    H180152   4.074   2.943   3.605  0.8080  1.2315 -0.5721
19579TIP3    H280153   4.221   2.956   3.641  1.0249 -1.4515 -0.3005
19580TIP3   OH280154   1.235   4.612   2.573 -0.4081 -0.1837  0.5383
19580TIP3    H180155   1.186   4.693   2.589 -2.1188 -0.6246 -1.8541
19580TIP3    H280156   1.168   4.544   2.567  0.6761 -1.2046 -0.6793
19581TIP3   OH280157   5.853   3.965  14.786 -0.5605  0.3703 -0.2143
19581TIP3    H180158   5.870   3.903  14.857 -0.7993  3.1989  2.5587
19581TIP3    H280159   5.940   3.995  14.759 -0.4606 -0.8251 -1.3667
19582TIP3   OH280160   0.260   6.215   6.233 -0.3453 -0.0164  0.1828
19582TIP3    H180161   0.180   6.266   6.246 -1.3557 -0.0890 -4.2517
19582TIP3    H280162   0.320   6.275   6.189  0.4774 -1.1541 -0.2842
19583TIP3   OH280163   0.109   3.638   6.685  0.8167 -0.0270 -0.1196
19583TIP3    H180164   0.192   3.618   6.640  2.3845  0.4838  2.3347
19583TIP3    H280165   0.128   3.718   6.735 -1.4007  0.4928  0.0018
19584TIP3   OH280166   2.078   0.581   3.980 -0.3754 -0.4422  0.0818
19584TIP3    H180167   2.168   0.567   3.952 -0.1892  0.5044  0.1844
19584TIP3    H280168   2.043   0.492   3.993 -0.3316 -0.9703 -2.6626
19585TIP3   OH280169   1.409   3.685  14.975 -0.6590  0.5082 -0.1600
19585TIP3    H180170   1.422   3.779  14.983  1.2130  0.2646  0.0737
19585TIP3    H280171   1.487   3.653  14.929 -1.4209 -0.8935 -0.5553
19586TIP3   OH280172   3.384   3.734   2.097  0.0874 -0.6692 -0.3401
19586TIP3    H180173   3.328   3.670   2.142  0.4215 -1.3340 -0.8569
19586TIP3    H280174   3.462   3.685   2.072  0.6000  0.0833 -0.2565
19587TIP3   OH280175   0.166   0.321   2.600  0.1978  0.1412 -0.0133
19587TIP3    H180176   0.234   0.288   2.659 -0.2317 -0.0814  0.3605
19587TIP3    H280177   0.177   0.416   2.601  0.2738  0.1288  0.3182
19588TIP3   OH280178   6.296   3.432  14.143 -0.0916  0.0329 -0.6367
19588TIP3    H180179   6.294   3.515  14.191 -0.9271  0.3608 -1.2032
19588TIP3    H280180   6.387   3.421  14.116  0.0023  0.8392 -0.6670
19589TIP3   OH280181   0.111   4.758  16.540 -0.4209  0.1144  0.3659
19589TIP3    H180182   0.162   4.810  16.602 -1.6650  0.7613  0.8794
19589TIP3    H280183   0.028   4.805  16.532 -0.2573  0.1179 -1.8934
19590TIP3   OH280184   2.242   6.657  15.519 -0.3372  0.3128  0.2012
19590TIP3    H180185   2.322   6.706  15.499  0.1379 -0.3803  0.3681
19590TIP3    H280186   2.219   6.614  15.437  0.2734 -0.6204  0.4967
19591TIP3   OH280187   1.328   5.003   3.895  0.2424 -0.3269  0.0406
19591TIP3    H180188   1.414   5.004   3.853  0.4427  1.5818  0.4020
19591TIP3    H280189   1.340   5.053   3.976 -0.9115 -1.1453  0.7502
19592TIP3   OH280190   3.812   0.632   5.118 -0.1004 -0.0401  0.2912
19592TIP3    H180191   3.817   0.698   5.048 -2.3334 -1.9239 -1.8545
19592TIP3    H280192   3.896   0.588   5.116 -0.0303  0.0966 -1.1265
19593TIP3   OH280193   1.639   4.113  16.764 -0.6150 -0.0871  0.2661
19593TIP3    H180194   1.633   4.022  16.793 -3.1602  0.3010  1.2785
19593TIP3    H280195   1.565   4.123  16.704 -0.7052  1.4114  0.5824
19594TIP3   OH280196   5.692   6.686   0.392 -0.1715  0.0424 -0.1219
19594TIP3    H180197   5.611   6.694   0.342 -0.3186 -1.2230 -0.1394
19594TIP3    H280198   5.761   6.687   0.326 -0.2600 -0.0745 -0.2173
19595TIP3   OH280199   6.218   0.961   4.050 -0.4781  0.5130 -0.3859
19595TIP3    H180200   6.183   0.997   4.132  0.1895  0.6918 -0.1696
19595TIP3    H280201   6.204   1.030   3.985  0.0922  0.8682 -0.1432
19596TIP3   OH280202   0.845   1.314  16.969 -0.1916  0.0447 -0.3487
19596TIP3    H180203   0.822   1.398  16.930 -0.8001 -0.5908 -1.3945
19596TIP3    H280204   0.854   1.254  16.895 -2.6250 -1.5078  0.4845
19597TIP3   OH280205   1.269   0.535  11.748 -0.2916 -0.4428 -0.3234
19597TIP3    H180206   1.262   0.615  11.696  0.9331 -0.3961 -0.4397
19597TIP3    H280207   1.353   0.542  11.793 -0.9671 -0.8476  1.0672
19598TIP3   OH280208   4.596   2.357  13.928 -0.4043 -0.1174  0.3030
19598TIP3    H180209   4.525   2.310  13.974  0.1844 -2.4502 -0.9833
19598TIP3    H280210   4.607   2.308  13.846  0.5112  2.1806 -1.0154
19599TIP3   OH280211   1.795   0.906   4.846  0.1977  0.1191 -0.3573
19599TIP3    H180212   1.882   0.873   4.826  0.0256 -0.9742  0.6119
19599TIP3    H280213   1.777   0.875   4.935 -0.7673  1.2061 -0.1391
19600TIP3   OH280214   4.417   1.380   2.126  0.5247  0.0167  0.1157
19600TIP3    H180215   4.445   1.387   2.217  2.6700 -0.1203 -0.4893
19600TIP3    H280216   4.483   1.324   2.085 -1.0120 -0.8362 -1.2955
19601TIP3   OH280217   5.132   6.437  12.110 -0.1140  0.3272 -0.1038
19601TIP3    H180218   5.214   6.486  12.104  0.2781 -0.2658  0.3369
19601TIP3    H280219   5.159   6.345  12.109 -0.6792  0.1296  1.2117
19602TIP3   OH280220   5.155   1.418  12.577  0.0465 -0.1349 -0.3756
19602TIP3    H180221   5.069   1.387  12.547  0.3393 -2.0411  0.5438
19602TIP3    H280222   5.144   1.512  12.591 -1.8619 -0.3184 -0.4033
19603TIP3   OH280223   4.936   6.549  16.101  0.6265  0.2812  0.0768
19603TIP3    H180224   4.969   6.489  16.168  1.9197  1.3915  0.4738
19603TIP3    H280225   4.910   6.491  16.029  0.0008 -0.8699  1.1891
19604TIP3   OH280226   1.401   5.960  12.455  0.4311  0.5995 -0.6471
19604TIP3    H180227   1.444   5.879  12.428 -0.1670  0.5600 -1.5455
19604TIP3    H280228   1.461   6.001  12.517  0.4471 -0.8582  0.3451
19605TIP3   OH280229   4.340   3.797   4.436  0.2955 -0.0226  0.2215
19605TIP3    H180230   4.252   3.809   4.403  0.0905 -0.6091  0.5446
19605TIP3    H280231   4.378   3.885   4.435 -0.4903  0.3307  0.6489
19606TIP3   OH280232   0.779   6.598   2.532  0.5731  0.0215 -0.3114
19606TIP3    H180233   0.840   6.524   2.538 -0.0558 -0.5077 -0.2118
19606TIP3    H280234   0.759   6.620   2.623  0.7850  0.3370 -0.3416
19607TIP3   OH280235   1.374   2.950  15.594  0.0731  0.1346 -0.1623
19607TIP3    H180236   1.326   2.873  15.564 -0.2347  0.0448  0.5360
19607TIP3    H280237   1.368   3.013  15.522 -1.0874  0.1203 -0.0860
19608TIP3   OH280238   4.729   5.091  16.591  0.0579  0.0742 -0.0314
19608TIP3    H180239   4.692   5.110  16.677 -0.4805  2.4062 -0.7098
19608TIP3    H280240   4.820   5.066  16.609  0.3606  1.8410  1.1654
19609TIP3   OH280241   3.487   4.457   0.390 -0.0502 -0.6918 -0.1837
19609TIP3    H180242   3.404   4.415   0.414  0.0534 -1.9493 -1.8558
19609TIP3    H280243   3.472   4.550   0.405 -1.2678 -1.0338  0.8988
19610TIP3   OH280244   6.786   2.337  14.390  0.0056 -0.4460 -0.3270
19610TIP3    H180245   6.815   2.428  14.398 -2.0494  0.2501 -0.2343
19610TIP3    H280246   6.863   2.286  14.416  0.9424  1.2638  0.5016
19611TIP3   OH280247   0.546   2.729   1.938  0.0320 -0.2934 -0.6312
19611TIP3    H180248   0.584   2.753   2.023  1.9888 -1.4046 -1.1273
19611TIP3    H280249   0.464   2.778   1.934  1.1335  1.8244  0.7555
19612TIP3   OH280250   5.300   4.123  14.267  0.3594  0.0972  0.1123
19612TIP3    H180251   5.278   4.061  14.337 -0.0725  0.3996  0.2486
19612TIP3    H280252   5.241   4.197  14.281 -1.2343 -0.7187 -1.8211
19613TIP3   OH280253   4.932   3.321   2.162 -0.0338 -0.2216  0.2833
19613TIP3    H180254   5.008   3.367   2.197 -0.9403  0.2869  1.6995
19613TIP3    H280255   4.932   3.339   2.069 -0.2227  2.5115  0.7340
19614TIP3   OH280256   3.365   0.557  15.975  0.3382  0.0019  0.1378
19614TIP3    H180257   3.371   0.466  15.948 -0.9098 -0.5302  1.5134
19614TIP3    H280258   3.272   0.579  15.967  0.0696  0.1625  2.6497
19615TIP3   OH280259   4.914   1.770  12.644  0.0345 -0.5785 -0.6979
19615TIP3    H180260   4.995   1.747  12.600  0.1095 -1.9425  0.0869
19615TIP3    H280261   4.845   1.747  12.582  0.1371 -2.5253 -0.1754
19616TIP3   OH280262   5.865   2.758  16.993  0.2070  0.5044 -0.3080
19616TIP3    H180263   5.793   2.697  16.977  0.4514  0.5645 -1.7932
19616TIP3    H280264   5.840   2.804  17.073 -2.3530  1.8371 -1.7262
19617TIP3   OH280265   2.746   3.423  16.252  0.6628 -0.3432 -0.1939
19617TIP3    H180266   2.713   3.511  16.235 -2.0444 -0.8868  1.5968
19617TIP3    H280267   2.753   3.418  16.348  1.7562 -1.7459 -0.3222
19618TIP3   OH280268   4.869   2.457  15.733 -0.2153  0.0254  0.2794
19618TIP3    H180269   4.943   2.518  15.728  1.4343 -1.8040  1.1060
19618TIP3    H280270   4.828   2.477  15.818 -0.0621  0.3915  0.2697
19619TIP3   OH280271   1.535   3.686   5.483 -0.1141  0.1280 -0.0162
19619TIP3    H180272   1.563   3.657   5.396  1.6394  0.2176  0.4661
19619TIP3    H280273   1.481   3.763   5.467  1.5671  1.1690 -0.9985
19620TIP3   OH280274   0.226   6.007  15.315 -0.3932 -0.3458 -0.0963
19620TIP3    H180275   0.173   5.945  15.366 -0.6453 -0.1247 -0.0866
19620TIP3    H280276   0.175   6.088  15.316  0.3862  0.1511  0.6954
19621TIP3   OH280277   0.018   3.355   0.539  0.7187 -0.2065 -0.1166
19621TIP3    H180278   0.001   3.435   0.589  0.4291 -0.8896  0.8983
19621TIP3    H280279  -0.069   3.327   0.509  1.0451  1.3581 -2.9239
19622TIP3   OH280280   6.227   1.824   1.202 -0.0426  0.2201  0.2564
19622TIP3    H180281   6.134   1.831   1.180  0.1148  0.1437 -0.4708
19622TIP3    H280282   6.262   1.912   1.187 -0.0974  0.3803  1.0378
19623TIP3   OH280283   4.651   5.680  11.316  0.5838  0.3707  0.1165
19623TIP3    H180284   4.632   5.703  11.407  2.2970  1.3496  0.2734
19623TIP3    H280285   4.595   5.605  11.298  0.8122 -0.3912  2.2599
19624TIP3   OH280286   4.153   6.492   0.649  0.0260  0.5395  0.0142
19624TIP3    H180287   4.178   6.584   0.645 -1.2200  0.8835 -0.0684
19624TIP3    H280288   4.127   6.478   0.740 -0.6808  0.5149 -0.1874
19625TIP3   OH280289   5.358   1.169   5.854 -0.0838  0.1983 -0.6118
19625TIP3    H180290   5.451   1.148   5.846 -0.4567 -1.2963 -1.3378
19625TIP3    H280291   5.352   1.261   5.827  1.3063  0.6385  0.4581
19626TIP3   OH280292   3.049   6.051   3.374  0.5701 -0.3460  0.1664
19626TIP3    H180293   2.978   6.071   3.313  1.0376  2.1310  0.3505
19626TIP3    H280294   3.014   6.074   3.460  0.9933 -0.8448  0.4802
19627TIP3   OH280295   2.394   1.965   3.761  0.0564  0.3254  0.0079
19627TIP3    H180296   2.357   1.970   3.849 -2.6771 -2.0614 -0.8431
19627TIP3    H280297   2.327   2.002   3.704  1.1505  0.5069 -1.2095
19628TIP3   OH280298   0.333   0.693   5.672  0.3551 -0.0721 -0.5451
19628TIP3    H180299   0.284   0.775   5.678 -1.6778 -1.1492 -1.2744
19628TIP3    H280300   0.385   0.702   5.592 -0.7675  0.0802 -1.2825
19629TIP3   OH280301   1.344   1.528   1.749  0.1894 -0.1544 -0.3956
19629TIP3    H180302   1.429   1.513   1.791  1.6169 -0.5197 -3.1505
19629TIP3    H280303   1.322   1.444   1.709 -0.0148  0.6430 -2.0709
19630TIP3   OH280304   2.716   1.117   2.542 -0.3227  0.0043  0.4596
19630TIP3    H180305   2.666   1.038   2.524 -2.1077  1.4248 -1.3353
19630TIP3    H280306   2.786   1.117   2.478 -0.4684 -0.0200  0.2992
19631TIP3   OH280307   6.046   2.018   0.858  0.2024  0.4927  0.3530
19631TIP3    H180308   6.126   1.971   0.831 -0.2334 -0.7031  1.0610
19631TIP3    H280309   5.995   2.025   0.778 -0.1589 -1.1766  0.3906
19632TIP3   OH280310   2.664   1.764  13.077 -0.3176  0.2014  0.6206
19632TIP3    H180311   2.610   1.829  13.122  0.2815  0.2524  1.2902
19632TIP3    H280312   2.711   1.720  13.148 -1.1610 -1.3843  0.2546
19633TIP3   OH280313   1.354   0.653   0.867  0.2584 -0.1356  0.1396
19633TIP3    H180314   1.378   0.669   0.776 -2.0733  0.6695 -0.4005
19633TIP3    H280315   1.281   0.592   0.862 -0.4945  0.6195  1.4245
19634TIP3   OH280316   0.672   3.749  11.112  0.4212 -1.0223 -0.7285
19634TIP3    H180317   0.743   3.731  11.050 -0.5811 -1.0623 -1.8957
19634TIP3    H280318   0.662   3.667  11.161  1.2114 -0.9920 -0.5003
19635TIP3   OH280319   3.138   3.353  13.400  0.1298 -0.8188 -0.2907
19635TIP3    H180320   3.112   3.435  13.359  1.1738 -0.1898  0.2572
19635TIP3    H280321   3.233   3.361  13.411  0.3551 -2.3514 -0.7768
19636TIP3   OH280322   6.740   0.280  13.927 -0.4662  0.2188 -0.1408
19636TIP3    H180323   6.711   0.315  13.843 -0.4029 -2.0681 -1.1926
19636TIP3    H280324   6.659   0.249  13.969 -0.2952 -0.3259 -0.2033
19637TIP3   OH280325   5.158   0.162  13.501  0.4457  0.2917  0.2633
19637TIP3    H180326   5.206   0.194  13.578 -0.0222  0.6709  0.3978
19637TIP3    H280327   5.127   0.241  13.457  1.8116  0.1344 -1.0467
19638TIP3   OH280328   3.677   0.341   4.614  0.6293  0.0809 -0.1369
19638TIP3    H180329   3.743   0.302   4.671  0.4139  1.0169  0.7801
19638TIP3    H280330   3.681   0.290   4.533  1.5070 -0.7461  0.4211
19639TIP3   OH280331   0.012   0.022   0.517 -0.1676  0.3793  0.0831
19639TIP3    H180332  -0.080   0.003   0.498 -0.2165 -0.2220  0.8957
19639TIP3    H280333   0.044  -0.056   0.561  1.2841 -0.2364 -1.9245
19640TIP3   OH280334   1.397   1.735  13.086 -0.3272  0.4772 -0.2973
19640TIP3    H180335   1.311   1.733  13.044 -0.7268 -1.9369  0.4801
19640TIP3    H280336   1.378   1.733  13.180  0.5411 -0.9484 -0.1210
19641TIP3   OH280337   4.712   2.556   3.329 -0.0566 -0.9666  0.1661
19641TIP3    H180338   4.709   2.499   3.405 -4.5148  0.2119  1.1701
19641TIP3    H280339   4.698   2.498   3.254 -3.8076 -1.4881  1.0996
19642TIP3   OH280340   6.670   0.851  11.446  0.8686  0.2855 -0.2065
19642TIP3    H180341   6.750   0.797  11.442 -1.2789 -3.1923  0.0389
19642TIP3    H280342   6.653   0.874  11.354 -0.6340 -3.6691 -1.1020
19643TIP3   OH280343   1.884   4.574   4.422 -0.4322 -0.4990 -0.2396
19643TIP3    H180344   1.821   4.569   4.493 -1.6217 -0.8337 -1.2737
19643TIP3    H280345   1.892   4.668   4.403  0.0219 -0.3978  0.4370
19644TIP3   OH280346   4.211   5.358  16.691  0.0551 -0.1243  0.1048
19644TIP3    H180347   4.240   5.436  16.738  0.5132  0.3665 -0.9599
19644TIP3    H280348   4.206   5.290  16.758  2.2310  0.1553  0.6039
19645TIP3   OH280349   0.196   5.489  10.967 -0.1663  0.0009 -0.1864
19645TIP3    H180350   0.166   5.473  10.877 -3.2573  1.9915  0.3483
19645TIP3    H280351   0.249   5.568  10.961  0.2241 -0.2712 -0.3489
19646TIP3   OH280352   3.793   4.811  11.975 -0.4456  0.2547  0.0716
19646TIP3    H180353   3.729   4.878  11.998 -0.6011 -0.0802  0.6147
19646TIP3    H280354   3.820   4.834  11.886  0.2095  1.5964  0.5849
19647TIP3   OH280355   0.337   3.331   0.824  0.2753 -0.3281  0.0786
19647TIP3    H180356   0.270   3.276   0.865  1.0478 -0.9436  0.5371
19647TIP3    H280357   0.346   3.406   0.883 -0.9431  0.4377 -0.6643
19648TIP3   OH280358   0.407   2.527   2.970  0.4081 -0.0684  0.3581
19648TIP3    H180359   0.477   2.592   2.980  0.0684  0.2585  0.6382
19648TIP3    H280360   0.409   2.478   3.052  0.6160 -0.3651  0.1758
19649TIP3   OH280361   3.259   0.219  11.357  0.3223 -0.3759 -0.1541
19649TIP3    H180362   3.271   0.186  11.446  1.3051  1.5788  0.4734
19649TIP3    H280363   3.166   0.202  11.338  0.4892 -2.3516  0.5527
19650TIP3   OH280364   2.598   6.637  11.894 -0.4474  0.2845  0.5276
19650TIP3    H180365   2.521   6.586  11.919  0.2247  0.0993  2.4477
19650TIP3    H280366   2.565   6.727  11.888 -1.1239 -0.0099 -0.2739
19651TIP3   OH280367   1.110   4.124   2.118 -0.3728  0.3865 -0.2364
19651TIP3    H180368   1.033   4.167   2.154  2.7121  3.4997  3.4887
19651TIP3    H280369   1.150   4.190   2.062  0.9121 -0.1827 -0.0076
19652TIP3   OH280370   5.356   4.593  17.078  0.0447  0.4433  0.2169
19652TIP3    H180371   5.424   4.532  17.048 -0.3142 -0.6621  1.5749
19652TIP3    H280372   5.390   4.628  17.160 -0.6859  0.4691  0.5126
19653TIP3   OH280373   4.273   4.106   0.270  0.1631  0.2354  0.1261
19653TIP3    H180374   4.366   4.089   0.287  0.2905 -0.3031 -1.0246
19653TIP3    H280375   4.266   4.111   0.175 -0.6829  2.1538  0.2473
19654TIP3   OH280376   1.505   4.493  12.661  0.5378  0.1587  0.3537
19654TIP3    H180377   1.442   4.471  12.730  0.5225 -3.5906 -0.6393
19654TIP3    H280378   1.584   4.520  12.708  0.7652 -2.9619  2.0114
19655TIP3   OH280379   1.331   5.555  10.396  0.1754  0.2114 -0.6146
19655TIP3    H180380   1.333   5.479  10.454  1.0404 -0.3063 -1.3015
19655TIP3    H280381   1.419   5.559  10.359 -0.1970  0.8877 -1.4441
19656TIP3   OH280382   5.689   5.904   3.787 -0.0380  0.4456  0.3227
19656TIP3    H180383   5.755   5.918   3.720 -1.1949 -0.5850 -1.0894
19656TIP3    H280384   5.686   5.809   3.798 -0.9813  0.5004  0.6707
19657TIP3   OH280385   2.240   5.742  12.728 -0.0805  0.0371 -0.1600
19657TIP3    H180386   2.286   5.790  12.660 -1.7539  1.6347 -0.2293
19657TIP3    H280387   2.282   5.770  12.810  0.3789 -0.0875 -0.3482
19658TIP3   OH280388   1.968   4.806   5.940  0.3024  0.1598  0.3287
19658TIP3    H180389   1.957   4.757   5.858  1.2958  2.8534 -1.5547
19658TIP3    H280390   2.061   4.828   5.942  0.2127  0.4893  2.0122
19659TIP3   OH280391   4.791   2.697  12.136  0.2363 -0.0161  0.5383
19659TIP3    H180392   4.830   2.698  12.223 -1.3179 -1.0699  1.2921
19659TIP3    H280393   4.842   2.632  12.087  0.9524  0.4001  0.7209
19660TIP3   OH280394   4.373   0.593  17.159 -0.0225  0.3959  0.5217
19660TIP3    H180395   4.318   0.645  17.101 -0.4479  0.2447  0.7852
19660TIP3    H280396   4.353   0.502  17.137  0.5958  0.3388  0.1796
19661TIP3   OH280397   1.896   4.292  15.915 -0.6657 -0.8137  0.1931
19661TIP3    H180398   1.830   4.334  15.860  0.7841  0.3259 -0.7518
19661TIP3    H280399   1.941   4.365  15.958 -0.5907 -1.6083  1.5295
19662TIP3   OH280400   1.701   6.502  12.644  0.6879  0.4294  0.5846
19662TIP3    H180401   1.716   6.409  12.657  0.5435  0.2581 -0.3747
19662TIP3    H280402   1.622   6.506  12.590  0.5104  1.1225  0.8798
19663TIP3   OH280403   1.697   6.276  14.766  0.3750 -0.1542  0.0725
19663TIP3    H180404   1.726   6.189  14.794  0.7276  0.0638  0.3907
19663TIP3    H280405   1.622   6.259  14.709  0.4570 -0.6682  0.1134
19664TIP3   OH280406   2.198   0.517   4.590 -0.0609  0.1377 -0.1467
19664TIP3    H180407   2.239   0.571   4.658 -0.6519  0.2785  0.1016
19664TIP3    H280408   2.226   0.428   4.612 -0.0213  0.2127  0.1164
19665TIP3   OH280409   0.836   2.479  16.236 -0.4121 -0.1313  0.0006
19665TIP3    H180410   0.821   2.564  16.276 -1.2457  0.5694 -1.7347
19665TIP3    H280411   0.762   2.466  16.178  0.0954 -1.7103 -0.3341
19666TIP3   OH280412   2.008   0.388  15.556 -0.0700  0.6908 -0.0366
19666TIP3    H180413   1.980   0.330  15.627  0.0359 -0.6424 -1.0513
19666TIP3    H280414   2.090   0.427  15.588  0.2487 -0.2891  0.3795
19667TIP3   OH280415   2.656   5.455  13.503 -0.4220 -0.1127  0.1699
19667TIP3    H180416   2.704   5.411  13.433  0.3336  1.6435 -0.4637
19667TIP3    H280417   2.576   5.403  13.513  0.1604 -1.2750 -0.9330
19668TIP3   OH280418   2.082   3.258   4.573  0.3980  0.1049  0.0140
19668TIP3    H180419   2.082   3.169   4.538 -0.6486 -0.7669  2.0399
19668TIP3    H280420   1.993   3.271   4.605  0.0567  2.5289 -1.6259
19669TIP3   OH280421   6.141   6.457   1.561  0.3143 -0.1618  0.0597
19669TIP3    H180422   6.195   6.455   1.639 -0.6242  0.3664  0.7464
19669TIP3    H280423   6.173   6.533   1.511 -0.8497  1.1790  1.2733
19670TIP3   OH280424   5.225   4.555   5.488  0.6391  0.0013  0.2889
19670TIP3    H180425   5.206   4.649   5.494 -0.2860 -0.2145  1.0692
19670TIP3    H280426   5.139   4.514   5.475  0.6990 -0.9040  2.3539
19671TIP3   OH280427   1.530   6.217  12.897 -0.2415 -0.4797 -0.1983
19671TIP3    H180428   1.625   6.221  12.912 -0.0702 -2.1685 -0.7123
19671TIP3    H280429   1.496   6.291  12.948  1.2755 -0.2506  0.5619
19672TIP3   OH280430   5.550   5.335   4.215  0.0185  0.3569  0.4371
19672TIP3    H180431   5.528   5.243   4.199  3.1802 -0.0793 -2.5855
19672TIP3    H280432   5.504   5.383   4.147  1.2365  0.5193 -0.2926
19673TIP3   OH280433   2.031   4.453  16.091  0.0450  0.1193 -0.2889
19673TIP3    H180434   2.010   4.398  16.167  1.4700 -1.1110 -0.7298
19673TIP3    H280435   2.092   4.519  16.126  0.0317  0.0768 -0.1840
19674TIP3   OH280436   2.945   0.101  13.760  0.3600 -0.0309  0.1709
19674TIP3    H180437   3.020   0.152  13.791  1.6561 -1.3575 -0.6474
19674TIP3    H280438   2.984   0.031  13.706 -1.5086 -0.3727 -0.8200
19675TIP3   OH280439   2.235   3.111  15.695  0.2110 -0.2613  0.6630
19675TIP3    H180440   2.295   3.185  15.687 -0.3542  0.2031  0.6539
19675TIP3    H280441   2.292   3.034  15.700  0.8001  0.1641  0.5738
19676TIP3   OH280442   6.278   1.713   6.072  0.2418 -0.2214 -0.2506
19676TIP3    H180443   6.349   1.671   6.023 -0.8123  1.0001 -3.0582
19676TIP3    H280444   6.209   1.648   6.074  0.0447 -0.0551 -1.0760
19677TIP3   OH280445   6.218   6.269  14.578  0.3514  0.0080 -0.0122
19677TIP3    H180446   6.200   6.363  14.588  0.0000  0.0859 -1.1833
19677TIP3    H280447   6.234   6.238  14.667  2.5513  1.5779  0.2226
19678TIP3   OH280448   4.237   4.530   2.309 -1.1375 -0.6958  0.4804
19678TIP3    H180449   4.233   4.593   2.382 -2.6967 -0.9085  0.6104
19678TIP3    H280450   4.150   4.534   2.270 -0.0988  0.0382 -1.9494
19679TIP3   OH280451   3.218   5.257   3.079  0.1000  0.1528 -0.0676
19679TIP3    H180452   3.227   5.166   3.053 -1.3662 -0.2113  0.5771
19679TIP3    H280453   3.302   5.279   3.119  1.0325 -0.4110 -1.6309
19680TIP3   OH280454   3.075   1.904  12.667  0.0960  0.0711  0.2934
19680TIP3    H180455   3.109   1.950  12.743 -0.9942 -2.2707  2.3407
19680TIP3    H280456   3.146   1.846  12.640 -0.1186 -0.3710  0.6661
19681TIP3   OH280457   4.465   2.121   6.761  0.4851 -0.3343 -0.0650
19681TIP3    H180458   4.525   2.142   6.832  1.9886 -0.4953 -1.2498
19681TIP3    H280459   4.511   2.147   6.681 -1.5965  0.8963 -0.9662
19682TIP3   OH280460   3.724   2.216   2.109 -0.5061 -0.5162 -0.9456
19682TIP3    H180461   3.693   2.126   2.111 -0.8719 -0.3859 -0.5974
19682TIP3    H280462   3.660   2.262   2.055 -1.3447 -0.0970  0.3694
19683TIP3   OH280463   5.715   0.750   5.841  0.6036 -0.1893 -0.5645
19683TIP3    H180464   5.703   0.803   5.920  0.0100  0.3199 -0.9826
19683TIP3    H280465   5.685   0.807   5.770 -0.2956 -1.1809 -1.0034
19684TIP3   OH280466   6.437   1.889  16.885  0.0816  0.7293 -0.2724
19684TIP3    H180467   6.385   1.809  16.877 -0.2054  1.0457 -1.9620
19684TIP3    H280468   6.431   1.930  16.799  1.8057  1.6087 -0.0177
19685TIP3   OH280469   4.075   4.514   1.656  0.7172 -0.2267  0.2457
19685TIP3    H180470   4.143   4.557   1.606  1.1944 -0.2632  0.8531
19685TIP3    H280471   4.003   4.577   1.659 -0.8430 -1.5247 -3.5729
19686TIP3   OH280472   5.808   5.905   5.408  0.3604 -0.2679  0.5718
19686TIP3    H180473   5.789   5.996   5.385  2.0804 -0.1753 -0.6848
19686TIP3    H280474   5.791   5.856   5.327  1.3980 -0.7376  0.6186
19687TIP3   OH280475   1.176   0.745   3.768 -0.0424  0.6255 -0.0462
19687TIP3    H180476   1.227   0.811   3.814 -0.1440  0.2161  0.6689
19687TIP3    H280477   1.108   0.720   3.831 -0.9104  0.9172 -0.8553
19688TIP3   OH280478   1.724   4.860  13.215 -0.3010 -0.5344  0.3214
19688TIP3    H180479   1.714   4.903  13.300 -0.2563  1.4252 -0.6113
19688TIP3    H280480   1.653   4.896  13.162 -1.2861 -2.8765 -0.0890
19689TIP3   OH280481   1.052   1.998   5.325  0.1051 -0.5898 -0.0830
19689TIP3    H180482   0.993   1.924   5.341 -1.7724  0.9284  0.3207
19689TIP3    H280483   1.035   2.059   5.396 -0.1630  1.3085 -1.6885
19690TIP3   OH280484   3.488   1.392  12.417  0.1567 -0.1621  0.7660
19690TIP3    H180485   3.496   1.310  12.465 -1.7591 -1.3937 -0.8718
19690TIP3    H280486   3.437   1.370  12.339 -0.8797  2.6862  0.5125
19691TIP3   OH280487   2.680   2.564  11.561  0.6223 -0.4686 -0.3969
19691TIP3    H180488   2.626   2.509  11.504 -0.3793 -0.0568  0.1153
19691TIP3    H280489   2.631   2.567  11.644  0.9953  0.6265 -0.2012
19692TIP3   OH280490   3.246   2.783  14.104  0.3004 -0.3415  0.2612
19692TIP3    H180491   3.248   2.703  14.157  1.6295  0.0975  0.8972
19692TIP3    H280492   3.320   2.774  14.044  0.0797  0.1338 -0.0886
19693TIP3   OH280493   6.171   5.583  12.367  0.0116 -0.0624 -0.1246
19693TIP3    H180494   6.188   5.664  12.318  1.2143 -0.5279 -0.5172
19693TIP3    H280495   6.129   5.525  12.304 -0.9136  0.2537  0.1759
19694TIP3   OH280496   2.760   6.051   6.710  0.4105  0.5556 -0.4498
19694TIP3    H180497   2.750   6.073   6.803  1.8072 -2.0888  0.4192
19694TIP3    H280498   2.785   6.134   6.669 -0.2662  1.8016  1.4889
19695TIP3   OH280499   0.597   1.875   3.922 -0.5903  0.4725 -0.6250
19695TIP3    H180500   0.589   1.938   3.993 -1.1260 -0.9213  0.6227
19695TIP3    H280501   0.508   1.861   3.891 -0.5293  0.0558 -0.6269
19696TIP3   OH280502   3.540   1.437   0.442  0.1417  0.5148 -0.3053
19696TIP3    H180503   3.616   1.428   0.500 -0.9582 -1.8161  0.8839
19696TIP3    H280504   3.569   1.398   0.360  0.2376 -0.4136  0.1565
19697TIP3   OH280505   4.890   3.848  11.290  0.1802  0.0825  0.4134
19697TIP3    H180506   4.855   3.920  11.238 -0.6269  0.5767  1.6003
19697TIP3    H280507   4.975   3.880  11.321  0.4433 -0.0249 -0.1806
19698TIP3   OH280508   0.796   2.394  11.496  0.4297 -0.3529 -0.7758
19698TIP3    H180509   0.705   2.400  11.524  1.0072 -1.3296  1.5376
19698TIP3    H280510   0.811   2.300  11.485  1.4186 -0.2719 -0.1654
19699TIP3   OH280511   3.318   0.726   6.300  0.8775 -0.0952 -0.2055
19699TIP3    H180512   3.351   0.803   6.254 -1.1634  1.9498  1.5151
19699TIP3    H280513   3.392   0.697   6.353  1.0496  2.2949  1.0139
19700TIP3   OH280514   2.490   6.368  11.760  0.1797 -0.5590  0.2793
19700TIP3    H180515   2.574   6.352  11.803  1.7657 -0.8497 -2.6294
19700TIP3    H280516   2.467   6.284  11.719 -0.8968 -0.1574  0.0031
19701TIP3   OH280517   0.348   3.789  16.350  0.3057 -0.4134 -0.5237
19701TIP3    H180518   0.279   3.795  16.415 -0.8299  1.6106 -1.7998
19701TIP3    H280519   0.304   3.765  16.269  1.3456 -0.6226 -1.0551
19702TIP3   OH280520   3.341   5.676   2.903 -0.2733  0.4117 -0.4262
19702TIP3    H180521   3.311   5.607   2.962  1.7804 -0.1807 -0.0159
19702TIP3    H280522   3.396   5.632   2.839  1.8834  1.7191  0.4098
19703TIP3   OH280523   0.004   0.291  12.557  0.3362  0.0948  0.0004
19703TIP3    H180524   0.011   0.211  12.505  1.7883 -0.2909  0.7349
19703TIP3    H280525  -0.090   0.309  12.562 -0.0138 -1.5700 -0.1643
19704TIP3   OH280526   4.813   0.798   1.582 -0.0653  0.1949  0.0495
19704TIP3    H180527   4.778   0.729   1.525  0.7729  0.0129 -0.2480
19704TIP3    H280528   4.755   0.796   1.659  0.6336 -1.6558  0.5964
19705TIP3   OH280529   4.405   3.662  16.628 -0.2451  0.1283  0.0860
19705TIP3    H180530   4.371   3.729  16.568 -0.6112 -0.5207 -0.4428
19705TIP3    H280531   4.340   3.592  16.625 -0.0232 -0.1205  0.8789
19706TIP3   OH280532   1.475   4.074   6.045 -0.2382  0.5985 -0.1186
19706TIP3    H180533   1.459   4.068   6.139  0.6491  0.9415  0.0575
19706TIP3    H280534   1.512   4.161   6.032  0.3848  0.2649 -0.6696
19707TIP3   OH280535   5.319   5.379   0.960 -0.5174  0.2892 -0.0056
19707TIP3    H180536   5.317   5.337   0.874  0.5711 -0.0056  0.1082
19707TIP3    H280537   5.304   5.472   0.942  2.4989  0.7008 -0.8429
19708TIP3   OH280538   0.457   3.810  14.760 -0.5124  0.8119 -0.3455
19708TIP3    H180539   0.378   3.819  14.813 -1.5796 -0.0366 -1.7293
19708TIP3    H280540   0.429   3.762  14.682  1.7818 -1.4805  0.0808
19709TIP3   OH280541   4.763   4.574  15.709 -0.2198 -0.2270  0.4366
19709TIP3    H180542   4.670   4.580  15.684 -0.0986  0.3359  0.1039
19709TIP3    H280543   4.791   4.490  15.673 -0.6533 -0.5043  0.7312
19710TIP3   OH280544   4.191   5.808   0.100 -0.0912 -0.0119 -0.3579
19710TIP3    H180545   4.208   5.719   0.071 -0.9987 -0.0149 -0.9045
19710TIP3    H280546   4.166   5.800   0.192 -1.4040 -0.4623 -0.7443
19711TIP3   OH280547   2.402   0.009   5.695  0.3875 -0.0347 -0.5356
19711TIP3    H180548   2.325   0.056   5.664 -0.2582  0.5795  1.7983
19711TIP3    H280549   2.446   0.071   5.753  0.5624 -1.6269  1.1248
19712TIP3   OH280550   4.668   6.781  11.001 -0.3324  0.2861 -0.1683
19712TIP3    H180551   4.590   6.801  10.951 -0.5466  2.6016  0.9602
19712TIP3    H280552   4.731   6.850  10.977  1.0765 -1.0190 -0.4058
19713TIP3   OH280553   2.388   4.275   3.126 -0.4621 -0.3959  0.0064
19713TIP3    H180554   2.299   4.240   3.123 -0.1944 -1.1208  0.3029
19713TIP3    H280555   2.425   4.256   3.040 -0.8447  0.6036 -0.3893
19714TIP3   OH280556   0.964   1.041  12.184 -0.3943  0.5278  0.1901
19714TIP3    H180557   0.880   1.085  12.177 -0.5426  0.0315 -1.8996
19714TIP3    H280558   0.949   0.971  12.247 -0.8473  1.8793  1.6357
19715TIP3   OH280559   6.689   4.309  10.911  0.5758  0.6922 -0.2506
19715TIP3    H180560   6.740   4.264  10.843  0.3035  0.9871 -0.6515
19715TIP3    H280561   6.605   4.327  10.870 -0.0291 -0.1912  0.5554
19716TIP3   OH280562   5.788   3.254   4.186  0.6276  0.0599  0.1032
19716TIP3    H180563   5.756   3.305   4.261 -1.8984 -1.5927  0.3064
19716TIP3    H280564   5.795   3.164   4.221  0.6701 -0.5052 -1.3028
19717TIP3   OH280565   6.494   5.019   6.430  0.1314  0.3143 -0.0613
19717TIP3    H180566   6.402   5.031   6.406 -0.1852 -2.4401 -0.4336
19717TIP3    H280567   6.509   5.084   6.499 -1.6740  1.7362 -0.9363
19718TIP3   OH280568   2.355   1.105   4.421 -0.3331  0.2414  0.2098
19718TIP3    H180569   2.411   1.165   4.372 -0.1837 -0.4238 -0.4378
19718TIP3    H280570   2.307   1.162   4.482  0.9235  0.8350  0.6707
19719TIP3   OH280571   5.435   0.979  12.415 -0.6281 -0.5416 -0.3510
19719TIP3    H180572   5.389   1.053  12.455  1.6559  0.2571  1.0110
19719TIP3    H280573   5.403   0.976  12.325 -2.1080  0.9296  0.0771
19720TIP3   OH280574   0.471   4.566  15.853 -0.0097 -0.0792 -0.4685
19720TIP3    H180575   0.463   4.565  15.948 -0.1668 -0.0279 -0.4797
19720TIP3    H280576   0.495   4.656  15.832  0.9214 -0.3094 -0.4132
19721TIP3   OH280577   1.542   6.008   3.717  0.6233  0.2863 -0.2975
19721TIP3    H180578   1.632   6.041   3.725  0.4863  0.6536 -0.2749
19721TIP3    H280579   1.528   5.997   3.623 -0.3013  3.0188 -0.5585
19722TIP3   OH280580   2.662   5.240  10.911 -0.8864  0.5289  0.3313
19722TIP3    H180581   2.741   5.189  10.929 -1.4267 -0.7343 -0.6879
19722TIP3    H280582   2.694   5.328  10.891  0.4237 -0.3034 -1.5015
19723TIP3   OH280583   5.945   4.178   3.693  0.0298  0.4144 -0.2455
19723TIP3    H180584   5.912   4.152   3.606 -0.7133 -1.7195  0.6120
19723TIP3    H280585   5.875   4.154   3.753  1.3477 -0.0349  1.1666
19724TIP3   OH280586   5.881   0.536   2.380  0.1583  0.0753  0.4416
19724TIP3    H180587   5.889   0.593   2.303  1.8073 -1.8113 -0.8695
19724TIP3    H280588   5.969   0.536   2.418  0.5779 -2.4730 -0.3319
19725TIP3   OH280589   1.404   0.498  15.971 -0.7310  0.1651 -0.3085
19725TIP3    H180590   1.489   0.542  15.973 -1.3268  1.3055  1.2742
19725TIP3    H280591   1.368   0.519  15.885 -0.0138  0.8495 -0.4510
19726TIP3   OH280592   0.807   3.989   5.580  0.4831 -0.2954 -0.5521
19726TIP3    H180593   0.759   3.923   5.531  1.2796 -1.7210  0.5064
19726TIP3    H280594   0.866   4.028   5.515 -0.9594  0.3977 -1.5043
19727TIP3   OH280595   0.165   4.126   6.361  0.0902 -0.0934  0.1778
19727TIP3    H180596   0.240   4.068   6.352  0.6563  0.5892  0.3837
19727TIP3    H280597   0.096   4.085   6.309  1.0542  0.0157 -1.2349
19728TIP3   OH280598   2.311   0.535   2.632 -0.1029 -0.2151 -0.0201
19728TIP3    H180599   2.315   0.563   2.541  0.8864  0.0737  0.1059
19728TIP3    H280600   2.312   0.439   2.629 -1.5459 -0.2386 -0.3644
19729TIP3   OH280601   1.057   0.013   1.941 -0.5445 -0.0556 -0.3156
19729TIP3    H180602   1.104  -0.069   1.957  0.0640 -0.1297 -2.2901
19729TIP3    H280603   1.102   0.054   1.868 -0.9508  1.9960  0.4999
19730TIP3   OH280604   0.664   0.553   3.372 -0.3534  0.4136 -0.3499
19730TIP3    H180605   0.656   0.509   3.457 -0.3161 -1.0177 -1.0781
19730TIP3    H280606   0.586   0.527   3.324 -0.0519  0.6927 -0.9988
19731TIP3   OH280607   1.806   0.023   4.209 -0.1231 -0.0838 -0.0919
19731TIP3    H180608   1.751   0.100   4.216 -0.0691  0.1438 -1.7767
19731TIP3    H280609   1.833   0.020   4.117  1.5618 -0.9498  0.3793
19732TIP3   OH280610   3.566   5.078  10.947  0.6456 -0.0885  0.0560
19732TIP3    H180611   3.514   5.000  10.928  0.0425  0.3889 -0.2800
19732TIP3    H280612   3.614   5.096  10.866  0.5777  0.0461  0.0448
19733TIP3   OH280613   6.646   2.167  12.538  0.3442 -0.5629 -0.1286
19733TIP3    H180614   6.600   2.247  12.514 -0.2618 -0.7659  0.3383
19733TIP3    H280615   6.607   2.099  12.482  0.6775 -0.5828 -0.3418
19734TIP3   OH280616   1.204   3.992  15.832  0.0549 -0.3047  0.4026
19734TIP3    H180617   1.146   3.992  15.755  0.4411 -1.0144  0.1002
19734TIP3    H280618   1.232   4.083  15.841 -0.5983 -0.0715  0.1661
19735TIP3   OH280619   6.302   6.590   2.470 -0.0446 -0.0121  0.0820
19735TIP3    H180620   6.315   6.539   2.390  1.9601 -1.3855  1.1805
19735TIP3    H280621   6.354   6.669   2.457  0.8816 -0.5736  0.2823
19736TIP3   OH280622   6.369   2.374  12.797  0.5359  0.0275 -0.3636
19736TIP3    H180623   6.324   2.426  12.731  0.4540  1.0042  0.4527
19736TIP3    H280624   6.458   2.410  12.800  1.6144 -2.1468 -2.2634
19737TIP3   OH280625   3.390   1.954   2.866  0.2701  0.1041 -0.0752
19737TIP3    H180626   3.313   1.905   2.837  0.0536 -0.3517  1.1945
19737TIP3    H280627   3.417   1.909   2.946  2.0710  0.0539 -0.6825
19738TIP3   OH280628   0.543   3.036   3.795  0.3386  0.0653 -0.0380
19738TIP3    H180629   0.559   2.960   3.739  2.3568 -0.6126  1.3913
19738TIP3    H280630   0.448   3.048   3.791  0.0891 -1.8559 -1.1453
19739TIP3   OH280631   0.920   0.837   3.932 -0.3348  0.2209 -0.2977
19739TIP3    H180632   0.886   0.773   3.994  1.4273  0.4868  1.0023
19739TIP3    H280633   0.842   0.883   3.901 -1.4356 -1.1720  0.2746
19740TIP3   OH280634   2.227   3.474  16.041  0.1431  0.2759 -0.0832
19740TIP3    H180635   2.236   3.568  16.054  0.6312  0.1781  0.3120
19740TIP3    H280636   2.253   3.460  15.950 -0.5056  0.5920 -0.3245
19741TIP3   OH280637   2.468   6.642   0.349  0.0880  0.4725 -0.4417
19741TIP3    H180638   2.482   6.609   0.260 -2.3012 -1.5112 -0.2007
19741TIP3    H280639   2.407   6.715   0.337  0.2155  0.5733 -0.4757
19742TIP3   OH280640   4.640   3.895   1.817  0.1074 -0.4811  0.0185
19742TIP3    H180641   4.576   3.929   1.754  1.1026  0.5289 -0.4771
19742TIP3    H280642   4.587   3.853   1.884 -1.0698  0.1500 -0.4766
19743TIP3   OH280643   5.163   2.333  16.816  0.5463  0.1384 -0.4762
19743TIP3    H180644   5.152   2.380  16.733 -0.3069  0.2443 -0.3129
19743TIP3    H280645   5.093   2.267  16.815  1.9794 -1.4327 -0.8933
19744TIP3   OH280646   3.028   4.577   3.735  0.1983  0.0046 -0.1722
19744TIP3    H180647   3.059   4.627   3.811  0.2973 -0.3123 -0.0030
19744TIP3    H280648   2.975   4.639   3.685 -0.3241  0.0625  0.4468
19745TIP3   OH280649   5.421   6.662   6.353 -0.5717  0.2603 -0.7353
19745TIP3    H180650   5.500   6.666   6.300  1.0385  0.1815  1.4943
19745TIP3    H280651   5.401   6.569   6.361  0.2793  0.1403  0.2387
19746TIP3   OH280652   6.076   0.553   2.037 -0.1964  0.2721  0.1395
19746TIP3    H180653   6.061   0.627   2.097 -0.6937 -0.8510  1.4651
19746TIP3    H280654   6.168   0.532   2.049 -0.6139 -0.8859  1.7110
19747TIP3   OH280655   2.849   5.759   3.009 -0.4884  0.3245  0.9320
19747TIP3    H180656   2.784   5.792   2.947  0.3645  1.9134  0.8374
19747TIP3    H280657   2.831   5.665   3.015 -1.7175  0.4507 -0.3554
19748TIP3   OH280658   4.103   3.898   0.327  0.0162 -0.0635  0.7827
19748TIP3    H180659   4.137   3.986   0.313  0.1345 -0.0685  1.0326
19748TIP3    H280660   4.055   3.903   0.409  0.2965 -0.3103  0.9643
19749TIP3   OH280661   3.405   3.093   2.095 -0.2229  0.4096  0.2194
19749TIP3    H180662   3.471   3.031   2.128  1.2050 -0.5615 -3.9153
19749TIP3    H280663   3.438   3.179   2.121  1.5305 -0.1909  0.1119
19750TIP3   OH280664   5.618   1.924   2.314 -0.3008  0.0932 -0.3164
19750TIP3    H180665   5.530   1.956   2.332 -0.1838  0.2040  0.0539
19750TIP3    H280666   5.673   1.964   2.381 -0.0276 -0.2713 -0.3210
19751TIP3   OH280667   3.325   5.426  15.321 -0.1957  0.2310 -0.1062
19751TIP3    H180668   3.311   5.520  15.332 -1.1123  0.1025 -0.1397
19751TIP3    H280669   3.336   5.394  15.410  1.7273  0.5825 -0.1569
19752TIP3   OH280670   6.394   5.850   4.516  0.0009  0.2092  0.3971
19752TIP3    H180671   6.338   5.891   4.450 -3.0347 -0.8393  2.1386
19752TIP3    H280672   6.392   5.757   4.495  0.8685  0.1116  0.7029
19753TIP3   OH280673   3.518   0.690   6.484  0.1846  0.4164 -0.1812
19753TIP3    H180674   3.521   0.779   6.520 -1.1797  0.3040  0.2709
19753TIP3    H280675   3.496   0.634   6.558 -0.4900 -0.0972 -0.7446
19754TIP3   OH280676   6.578   3.754  11.748  0.2012  0.5407 -0.1598
19754TIP3    H180677   6.557   3.660  11.751  1.2553  0.3182  0.9731
19754TIP3    H280678   6.583   3.774  11.654 -0.0091 -0.5478 -0.4183
19755TIP3   OH280679   2.993   3.182   5.164 -0.3366 -0.2466  0.1932
19755TIP3    H180680   2.984   3.276   5.183  1.6082 -0.1731  0.9641
19755TIP3    H280681   3.067   3.176   5.104 -2.1644 -1.1143 -2.1150
19756TIP3   OH280682   6.584   2.425   2.694  0.0521 -0.1447  0.3657
19756TIP3    H180683   6.506   2.444   2.747  0.2912  0.8193  0.3932
19756TIP3    H280684   6.648   2.392   2.757  0.1200  0.3891  0.5893
19757TIP3   OH280685   2.572   1.644   5.045  0.0269 -0.0279 -0.0719
19757TIP3    H180686   2.560   1.575   4.980  1.1905 -0.9658  0.6715
19757TIP3    H280687   2.530   1.611   5.124 -3.4565  2.0675 -0.8261
19758TIP3   OH280688   4.081   2.599   2.028  0.2324  0.1799  0.2611
19758TIP3    H180689   4.144   2.641   2.087 -1.4196  1.5740  1.1255
19758TIP3    H280690   4.110   2.623   1.940  2.0590 -0.9406  0.5035
19759TIP3   OH280691   3.907   2.402  16.098  0.0426 -0.4624  0.3159
19759TIP3    H180692   3.831   2.364  16.054 -1.4279  1.3012  1.2017
19759TIP3    H280693   3.941   2.332  16.153 -0.2589 -1.5929 -0.8875
19760TIP3   OH280694   5.974   5.903   3.361  0.3586 -0.1584  0.0949
19760TIP3    H180695   5.946   5.977   3.306 -3.0127  0.6281  2.5321
19760TIP3    H280696   5.959   5.826   3.306  1.6068  0.7652 -1.6498
19761TIP3   OH280697   0.781   5.702   4.577 -0.6915 -0.4355 -0.8736
19761TIP3    H180698   0.795   5.611   4.603 -2.4913 -0.3672  0.5908
19761TIP3    H280699   0.735   5.696   4.493 -2.0858 -0.9915 -0.1222
19762TIP3   OH280700   0.746   0.689   5.623  0.4387 -0.1842  0.2922
19762TIP3    H180701   0.745   0.606   5.576 -1.1256  0.0686 -0.1677
19762TIP3    H280702   0.694   0.748   5.568  1.2477  1.0163  0.7754
19763TIP3   OH280703   0.983   5.749   2.627  0.4545  0.7590  0.1315
19763TIP3    H180704   0.961   5.699   2.549 -2.0835 -0.0566  1.2575
19763TIP3    H280705   1.061   5.707   2.662  1.6739  1.1900 -1.9467
19764TIP3   OH280706   6.050   4.019  12.174  0.2582 -0.6902  0.1080
19764TIP3    H180707   6.144   4.038  12.170 -0.0804  1.0447 -0.2091
19764TIP3    H280708   6.027   4.029  12.267  0.3908 -1.1735  0.1955
19765TIP3   OH280709   5.285   5.050  17.179 -0.6614 -0.0631  0.1856
19765TIP3    H180710   5.266   5.058  17.086  0.1757 -0.2411 -0.0047
19765TIP3    H280711   5.240   4.970  17.206 -2.2518  0.8111  0.3135
19766TIP3   OH280712   2.136   5.760   3.112  1.0084 -0.3984 -0.1885
19766TIP3    H180713   2.064   5.823   3.107  0.2678 -1.1341  0.9060
19766TIP3    H280714   2.170   5.756   3.022 -1.5731 -1.4892 -1.2143
19767TIP3   OH280715   1.468   3.095   6.536 -0.4279 -0.4166  0.3299
19767TIP3    H180716   1.516   3.131   6.611  0.2784 -1.8579  0.5971
19767TIP3    H280717   1.534   3.086   6.467 -0.6696 -0.8272  0.1492
19768TIP3   OH280718   3.567   3.589  16.468  0.1653 -0.5485  0.6767
19768TIP3    H180719   3.598   3.622  16.553  0.4887  1.4326 -0.1553
19768TIP3    H280720   3.474   3.612  16.466  0.1096 -0.7836  0.5758
19769TIP3   OH280721   6.487   3.720  13.418 -0.2411 -0.2690 -0.1531
19769TIP3    H180722   6.526   3.633  13.425  1.3846  0.4249 -0.1032
19769TIP3    H280723   6.533   3.761  13.344  0.2986  1.1681  0.9303
19770TIP3   OH280724   1.808   0.277   2.395  0.4860  0.0976  0.1530
19770TIP3    H180725   1.790   0.183   2.386  2.2895 -0.2190 -0.4541
19770TIP3    H280726   1.887   0.292   2.343  0.8621  1.7584  1.1272
19771TIP3   OH280727   0.024   2.233  13.450  0.1048 -0.1628  0.1719
19771TIP3    H180728   0.063   2.317  13.474  1.9981 -0.7812 -0.6133
19771TIP3    H280729  -0.068   2.242  13.475  0.5787  1.5853  1.4961
19772TIP3   OH280730   5.699   6.485  14.208 -0.2215 -0.2331  0.4031
19772TIP3    H180731   5.679   6.491  14.301 -0.1626 -1.0485  0.4697
19772TIP3    H280732   5.743   6.401  14.198  0.2729  0.0968 -0.2704
19773TIP3   OH280733   1.262   0.432   4.874  0.2086  0.0567 -0.1360
19773TIP3    H180734   1.231   0.495   4.809  0.1368  0.1592 -0.0039
19773TIP3    H280735   1.190   0.370   4.884 -0.3043  0.7822  0.8002
19774TIP3   OH280736   1.222   0.873   6.000 -0.0393  0.2211 -0.6363
19774TIP3    H180737   1.248   0.928   5.927 -1.0767 -0.4433 -1.5312
19774TIP3    H280738   1.199   0.934   6.070  0.4796  0.8683 -1.0223
19775TIP3   OH280739   5.551   2.439   5.866  0.2475 -0.1446  0.7484
19775TIP3    H180740   5.524   2.434   5.774  2.6676 -0.4678 -0.0183
19775TIP3    H280741   5.512   2.520   5.899 -0.7905 -0.1066 -0.5038
19776TIP3   OH280742   1.715   6.561   1.930  0.6613 -0.1814  0.0949
19776TIP3    H180743   1.637   6.615   1.940 -0.6008 -2.3266  3.8800
19776TIP3    H280744   1.682   6.476   1.900  1.1867 -1.5195  2.9718
19777TIP3   OH280745   5.101   5.620  14.946  0.1908 -0.2307 -0.3692
19777TIP3    H180746   5.165   5.646  15.013  0.5041 -1.3351 -0.2155
19777TIP3    H280747   5.045   5.697  14.936 -0.8672 -0.5237  2.3176
19778TIP3   OH280748   5.659   4.457  10.634 -0.2698 -0.0927 -0.0718
19778TIP3    H180749   5.599   4.389  10.664 -0.8927  0.3825 -0.2168
19778TIP3    H280750   5.602   4.533  10.617  0.5350  0.8260  1.1635
19779TIP3   OH280751   6.709   0.425   6.398 -0.5461 -0.5760 -0.5115
19779TIP3    H180752   6.715   0.497   6.462 -4.3476  0.8371 -1.4222
19779TIP3    H280753   6.774   0.445   6.332 -1.0454  1.7445 -0.3784
19780TIP3   OH280754   5.006   5.202   5.395  0.2046 -0.2641  0.0222
19780TIP3    H180755   5.037   5.129   5.342  1.3558  0.2798 -0.0800
19780TIP3    H280756   4.941   5.246   5.340  1.6987  0.5543 -1.1596
19781TIP3   OH280757   0.864   6.715   3.673  0.2423  0.3805  0.3338
19781TIP3    H180758   0.950   6.716   3.630  1.1458 -1.3243  1.9442
19781TIP3    H280759   0.883   6.690   3.764 -1.8815  0.9243  0.9813
19782TIP3   OH280760   1.982   4.665  10.388  0.3640  0.2101  0.7977
19782TIP3    H180761   1.968   4.572  10.370 -0.1223  0.6293 -1.3336
19782TIP3    H280762   2.075   4.672  10.410  0.5186 -0.7139  0.4863
19783TIP3   OH280763   5.089   1.087  11.538  0.0690 -0.4586 -0.0521
19783TIP3    H180764   5.011   1.055  11.582 -1.2733  0.1008 -1.9118
19783TIP3    H280765   5.133   1.008  11.506 -1.0974 -0.7000 -1.1459
19784TIP3   OH280766   1.125   5.821  11.945 -0.2548 -0.0543  0.1323
19784TIP3    H180767   1.121   5.823  11.849  1.1054 -1.2155  0.0240
19784TIP3    H280768   1.036   5.799  11.972 -0.4590 -0.5604 -0.8954
19785TIP3   OH280769   0.062   6.419  16.007 -0.4291 -0.2450 -0.3113
19785TIP3    H180770   0.081   6.388  16.096 -0.7328  0.7206  0.1072
19785TIP3    H280771   0.015   6.347  15.966  0.4118 -1.0144  0.0452
19786TIP3   OH280772   3.019   6.332  16.340  0.7708 -0.0030  0.1263
19786TIP3    H180773   3.081   6.391  16.383 -3.0498  2.9367  2.2827
19786TIP3    H280774   2.992   6.271  16.409 -0.1466  0.0967 -0.1288
19787TIP3   OH280775   4.092   5.926  16.535 -0.4429  0.2503 -0.4139
19787TIP3    H180776   4.154   5.987  16.576  1.1976 -1.3390 -0.3826
19787TIP3    H280777   4.125   5.914  16.446 -1.3498  0.1935 -0.7562
19788TIP3   OH280778   6.462   2.432   2.391  0.5728  0.3335  0.1809
19788TIP3    H180779   6.436   2.373   2.320  1.0510  0.5826 -0.2083
19788TIP3    H280780   6.439   2.385   2.471 -1.4280  0.7063 -0.1354
19789TIP3   OH280781   6.392   4.360  13.423 -0.0324  0.4640  0.1014
19789TIP3    H180782   6.459   4.301  13.392  0.6004  0.1718  1.8834
19789TIP3    H280783   6.309   4.322  13.393  0.5438  0.6669 -1.8445
19790TIP3   OH280784   4.720   3.229   5.291 -0.0370 -0.2536 -0.0814
19790TIP3    H180785   4.698   3.317   5.322 -0.1408 -0.8688  1.6900
19790TIP3    H280786   4.680   3.170   5.355  2.2523 -1.5222  0.2777
19791TIP3   OH280787   4.275   5.268   1.591 -0.5770 -0.6798 -0.2047
19791TIP3    H180788   4.245   5.238   1.506 -2.2049  2.0736 -0.7073
19791TIP3    H280789   4.199   5.311   1.630  0.2407 -1.4829  2.4823
19792TIP3   OH280790   5.713   2.478  12.665  0.5605  0.1305 -0.6783
19792TIP3    H180791   5.626   2.515  12.674  1.0784  1.2402 -0.0857
19792TIP3    H280792   5.703   2.410  12.598 -0.8394 -0.0632 -0.3010
19793TIP3   OH280793   5.359   3.769  14.272  0.2517  0.2375  0.2261
19793TIP3    H180794   5.265   3.773  14.287  0.1881  1.7427 -0.4078
19793TIP3    H280795   5.398   3.812  14.348  0.3628  0.6212 -0.0450
19794TIP3   OH280796   6.528   6.220   0.100 -0.3743 -0.1196 -0.2715
19794TIP3    H180797   6.541   6.291   0.038 -0.6018 -0.0467 -0.2364
19794TIP3    H280798   6.441   6.186   0.080 -0.8891  0.5902  0.6831
19795TIP3   OH280799   2.924   2.225   6.356 -0.0185 -0.2152 -0.2291
19795TIP3    H180800   2.894   2.286   6.289 -0.2257  1.8352  1.6018
19795TIP3    H280801   2.850   2.165   6.368  0.2888 -1.0928 -2.2487
19796TIP3   OH280802   2.751   2.268  14.049 -0.8157 -0.0726  0.1597
19796TIP3    H180803   2.797   2.291  13.968 -2.1634 -0.8610 -0.8674
19796TIP3    H280804   2.745   2.172  14.047 -1.4701 -0.0595  0.8513
19797TIP3   OH280805   3.967   4.974  16.506 -0.3673  0.2995 -0.9923
19797TIP3    H180806   3.936   5.055  16.545 -0.1115 -0.6188  1.2702
19797TIP3    H280807   4.026   4.936  16.571 -0.0442 -1.4396 -2.2069
19798TIP3   OH280808   6.058   2.659   3.044  0.1580  0.1351  0.0469
19798TIP3    H180809   6.139   2.710   3.054 -0.6417  1.3377  0.6350
19798TIP3    H280810   6.081   2.571   3.073  1.1742  0.5289  0.4805
19799TIP3   OH280811   1.082   6.701  14.968 -0.8451  0.4625  0.0414
19799TIP3    H180812   1.141   6.628  14.989 -1.5866 -0.3976 -0.7593
19799TIP3    H280813   1.122   6.743  14.892 -1.4019 -0.3179 -0.7014
19800TIP3   OH280814   4.324   0.610  16.144 -0.7054  0.3158 -0.6686
19800TIP3    H180815   4.239   0.572  16.165  0.3145 -1.5539  0.3661
19800TIP3    H280816   4.373   0.537  16.106  0.0072  1.7171 -2.5773
19801TIP3   OH280817   2.786   4.328  12.954 -0.4245  0.0058 -0.1786
19801TIP3    H180818   2.779   4.423  12.941  0.1957  0.0500 -0.2089
19801TIP3    H280819   2.880   4.312  12.961 -0.4643 -0.7219 -1.0864
19802TIP3   OH280820   1.184   1.285   2.213 -0.0783 -0.4677 -0.0231
19802TIP3    H180821   1.167   1.362   2.159  1.3419 -0.2516 -0.1849
19802TIP3    H280822   1.271   1.255   2.187 -0.6233 -2.1830 -0.0054
19803TIP3   OH280823   6.094   3.387  15.554  0.1770 -0.3835  0.0926
19803TIP3    H180824   6.088   3.405  15.460 -2.8226  2.8918  0.7154
19803TIP3    H280825   6.137   3.464  15.590 -0.5832 -0.6353  1.6159
19804TIP3   OH280826   4.057   6.029  16.120 -0.4681  0.4729  0.5728
19804TIP3    H180827   4.102   6.099  16.167 -0.5761  0.8500  0.1186
19804TIP3    H280828   4.127   5.968  16.096 -0.1494  1.2029 -0.3919
19805TIP3   OH280829   2.184   6.016   0.259  0.3848 -0.4966 -0.1509
19805TIP3    H180830   2.178   5.932   0.305 -0.3427 -0.5504 -0.3383
19805TIP3    H280831   2.185   5.993   0.167 -0.1568 -0.2808 -0.2116
19806TIP3   OH280832   2.665   2.147   2.123  0.0592 -0.4530  0.1513
19806TIP3    H180833   2.737   2.201   2.155 -0.5354  1.1550 -1.0824
19806TIP3    H280834   2.592   2.168   2.181 -0.0322 -0.3402 -0.0048
19807TIP3   OH280835   0.573   5.153   4.399  0.4045 -0.5435  0.2703
19807TIP3    H180836   0.636   5.101   4.348 -1.9560  0.1032 -3.7475
19807TIP3    H280837   0.527   5.089   4.452  1.2196 -1.7379 -0.4026
19808TIP3   OH280838   0.563   0.504  13.654 -0.0488  0.0694  0.0787
19808TIP3    H180839   0.560   0.507  13.558  0.7567  0.7576  0.0759
19808TIP3    H280840   0.620   0.576  13.680 -0.4031  0.0083  1.0943
19809TIP3   OH280841   2.386   1.531  14.616 -0.0825 -0.4669  0.4864
19809TIP3    H180842   2.396   1.583  14.536  0.1090 -0.0726  0.7626
19809TIP3    H280843   2.425   1.585  14.684 -2.1754  0.1410  1.2398
19810TIP3   OH280844   5.012   6.773   1.923 -0.2473 -0.1462 -0.2037
19810TIP3    H180845   4.938   6.749   1.978  0.9794 -0.1365  1.5341
19810TIP3    H280846   5.060   6.691   1.911  1.0168  0.3219  1.2002
19811TIP3   OH280847   3.228   2.891   2.916  0.2938 -0.1295  0.2593
19811TIP3    H180848   3.275   2.844   2.984 -0.6792  1.1105  1.8577
19811TIP3    H280849   3.296   2.932   2.863  1.0719 -0.3377  1.0778
19812TIP3   OH280850   4.627   0.181  13.962 -0.4721 -0.9291  0.0006
19812TIP3    H180851   4.566   0.210  13.895  0.6253  0.5180 -0.4329
19812TIP3    H280852   4.614   0.086  13.967 -0.9084 -1.0248 -1.9516
19813TIP3   OH280853   3.558   6.390   2.786  0.4000 -0.1338 -0.5717
19813TIP3    H180854   3.551   6.310   2.734  2.3160 -0.3659 -0.5717
19813TIP3    H280855   3.572   6.459   2.721  2.0687 -0.3197 -0.4551
19814TIP3   OH280856   4.570   2.726  15.308  0.7842  0.6122  0.4404
19814TIP3    H180857   4.604   2.690  15.389 -1.5621 -1.0887  0.7986
19814TIP3    H280858   4.480   2.753  15.329 -0.0707 -0.3297 -1.6552
19815TIP3   OH280859   1.024   4.873   0.180 -0.1263 -0.0821 -0.4885
19815TIP3    H180860   1.057   4.786   0.158 -0.9183  0.1020 -2.6660
19815TIP3    H280861   0.950   4.858   0.238 -1.1967 -0.9980 -2.0236
19816TIP3   OH280862   4.033   4.999   3.202 -0.1239 -1.0021 -0.6061
19816TIP3    H180863   4.080   4.999   3.285 -0.4165 -1.3124 -0.4374
19816TIP3    H280864   4.101   4.992   3.135  0.1760  0.1228 -0.4348
19817TIP3   OH280865   1.187   3.022   0.231 -0.1821 -0.2339  0.1028
19817TIP3    H180866   1.166   3.024   0.324 -0.3222 -1.4533  0.1128
19817TIP3    H280867   1.273   3.065   0.225  0.1860 -0.8470  0.9021
19818TIP3   OH280868   6.333   5.521  12.622  0.5336 -0.0195  0.2683
19818TIP3    H180869   6.427   5.504  12.613  0.4937  0.1929 -0.5617
19818TIP3    H280870   6.297   5.506  12.535 -0.2097 -0.1039  0.5823
19819TIP3   OH280871   2.693   4.958   0.159 -0.3912  0.1695  0.4296
19819TIP3    H180872   2.735   5.042   0.140  0.4465 -0.3995 -0.2941
19819TIP3    H280873   2.757   4.892   0.134 -0.8970 -0.6983  1.3340
19820TIP3   OH280874   3.852   3.454  16.413 -0.4665 -0.0954 -0.2533
19820TIP3    H180875   3.857   3.445  16.508  0.9836  0.0158 -0.3035
19820TIP3    H280876   3.782   3.518  16.399  0.2167  0.9291  0.8125
19821TIP3   OH280877   2.888   6.235  13.289  0.2036  0.0754 -0.1057
19821TIP3    H180878   2.872   6.143  13.312 -0.5382 -0.1728 -1.5310
19821TIP3    H280879   2.951   6.232  13.218  0.1844  0.6752 -0.1539
19822TIP3   OH280880   4.719   5.512  16.271  0.4481  0.2614 -0.1029
19822TIP3    H180881   4.753   5.435  16.315 -0.7411 -0.0449  0.3266
19822TIP3    H280882   4.661   5.553  16.336 -0.8683  0.1301 -1.1577
19823TIP3   OH280883   1.318   2.505   5.930  0.0118  0.1119  0.1472
19823TIP3    H180884   1.381   2.506   5.858 -1.6995  2.2879 -1.4899
19823TIP3    H280885   1.367   2.538   6.005  0.9543  1.5443 -1.0229
19824TIP3   OH280886   5.272   6.019   0.283  0.3306  0.2383 -0.0268
19824TIP3    H180887   5.345   5.995   0.226  0.4597 -0.5860  0.4677
19824TIP3    H280888   5.302   6.097   0.329 -0.4072  1.9534 -2.2581
19825TIP3   OH280889   0.002   1.879   4.667  0.7776 -0.1168 -0.1856
19825TIP3    H180890  -0.050   1.805   4.699  2.7746 -1.2371  0.6222
19825TIP3    H280891   0.038   1.918   4.747  3.2407 -0.9831 -0.8040
19826TIP3   OH280892   3.709   5.795   2.823  0.6760  0.1783  0.2369
19826TIP3    H180893   3.691   5.845   2.743 -2.2571  1.7392  1.7365
19826TIP3    H280894   3.724   5.861   2.890 -1.4136 -0.9223  1.8783
19827TIP3   OH280895   0.655   2.140  12.231 -0.6677  0.2887 -0.2991
19827TIP3    H180896   0.582   2.200  12.246 -2.0148 -1.4713  0.6207
19827TIP3    H280897   0.651   2.079  12.305  1.7558  0.1128 -0.2209
19828TIP3   OH280898   6.013   2.966  16.655  0.1398 -0.0060 -0.4824
19828TIP3    H180899   5.978   3.045  16.696 -0.8756 -0.9548  0.5457
19828TIP3    H280900   6.038   2.994  16.567 -2.0038  1.0545 -0.8336
19829TIP3   OH280901   6.171   2.456   5.374  0.3016  0.3164 -0.5826
19829TIP3    H180902   6.111   2.490   5.308  0.3339 -0.6369 -1.1091
19829TIP3    H280903   6.129   2.376   5.406  0.6661  0.3480 -0.0071
19830TIP3   OH280904   0.818   6.174   0.449  0.5411 -0.0722  0.4460
19830TIP3    H180905   0.769   6.203   0.372  1.4483 -1.3003 -0.6409
19830TIP3    H280906   0.758   6.188   0.522 -0.3534  1.1164 -0.4729
19831TIP3   OH280907   5.667   0.081  13.480 -0.1096 -0.3818  0.4362
19831TIP3    H180908   5.652   0.147  13.548 -1.0906 -1.1048  0.9426
19831TIP3    H280909   5.594   0.020  13.490  0.8259 -1.5927  0.0304
19832TIP3   OH280910   0.504   3.705   5.091  0.4973 -0.7638  0.5856
19832TIP3    H180911   0.517   3.749   5.007  0.2250  1.0908  1.4504
19832TIP3    H280912   0.409   3.707   5.105  0.6847  1.1392  1.9817
19833TIP3   OH280913   3.453   4.236   5.709 -0.0292 -0.1382 -0.2797
19833TIP3    H180914   3.382   4.179   5.679  0.1509 -0.9923  0.8411
19833TIP3    H280915   3.418   4.280   5.786  0.3355  0.1586 -0.2772
19834TIP3   OH280916   2.404   4.957  16.343  0.1590 -0.2940  0.0421
19834TIP3    H180917   2.454   4.922  16.417  0.5743  3.4055  1.7406
19834TIP3    H280918   2.469   5.002  16.289 -0.7860  1.8306  0.5553
19835TIP3   OH280919   0.246   4.045  15.563  0.4497 -0.5617 -0.0368
19835TIP3    H180920   0.221   4.112  15.627 -1.0337 -0.2582 -0.8671
19835TIP3    H280921   0.188   3.971  15.581 -2.4963  0.7541 -3.0307
19836TIP3   OH280922   6.307   1.324   2.703 -0.7691  0.4353  0.9112
19836TIP3    H180923   6.385   1.268   2.705 -1.3215 -0.3556  0.7349
19836TIP3    H280924   6.285   1.338   2.796 -0.0950  1.1416  0.9776
19837TIP3   OH280925   4.074   0.549   0.072  0.3779  0.1426 -0.3651
19837TIP3    H180926   4.066   0.617   0.005 -0.8963 -0.2922 -0.6819
19837TIP3    H280927   4.019   0.478   0.041 -1.7148  0.6111  1.9936
19838TIP3   OH280928   2.978   4.692  12.618 -0.2460  0.2104  0.1633
19838TIP3    H180929   2.954   4.661  12.706 -0.0019  0.2546  0.2465
19838TIP3    H280930   3.008   4.614  12.572  0.4772  0.3366  0.4093
19839TIP3   OH280931   2.026   2.987  12.201  0.0661  0.4344  0.2043
19839TIP3    H180932   2.063   3.048  12.139  0.3563  0.3252  0.2678
19839TIP3    H280933   1.932   3.007  12.202  0.2475  1.3206  0.7192
19840TIP3   OH280934   0.802   4.373  16.590  0.4142  0.3740  0.5800
19840TIP3    H180935   0.828   4.459  16.624 -0.7074 -0.3730  3.5384
19840TIP3    H280936   0.885   4.326  16.579  1.0328  1.6708 -0.9076
19841TIP3   OH280937   4.294   3.902  12.547  0.3194 -0.1365  0.2273
19841TIP3    H180938   4.380   3.861  12.556 -0.2303 -1.4145 -0.1349
19841TIP3    H280939   4.251   3.852  12.478 -0.6736  0.5518  0.3359
19842TIP3   OH280940   1.545   1.529  14.602 -0.0183  0.3198  0.0581
19842TIP3    H180941   1.536   1.624  14.601  0.9036  0.4192  0.2831
19842TIP3    H280942   1.619   1.512  14.544 -0.2634 -0.2725 -0.0850
19843TIP3   OH280943   4.485   3.393   0.362 -0.3702  0.6443 -0.2657
19843TIP3    H180944   4.564   3.365   0.408 -0.1744  0.4726 -0.6926
19843TIP3    H280945   4.418   3.330   0.387  0.1570 -0.4538 -1.5056
19844TIP3   OH280946   3.286   1.360   2.226 -0.0120  0.0837  0.4120
19844TIP3    H180947   3.193   1.379   2.236 -0.4624 -0.4991 -1.9714
19844TIP3    H280948   3.321   1.436   2.180  0.3289 -0.3530 -0.0708
19845TIP3   OH280949   1.538   4.366  14.505  0.0567 -0.1373  0.1712
19845TIP3    H180950   1.574   4.286  14.542 -1.5758  0.0747  2.4402
19845TIP3    H280951   1.609   4.429  14.512  0.5373 -0.7330  0.8563
19846TIP3   OH280952   0.201   0.426   1.884  0.0010  0.3310 -0.2810
19846TIP3    H180953   0.126   0.479   1.911 -1.2429 -0.9669 -1.0737
19846TIP3    H280954   0.253   0.415   1.964 -0.6529  1.2275  0.2798
19847TIP3   OH280955   4.928   6.282  14.696 -0.6364  0.3698  0.2282
19847TIP3    H180956   4.987   6.269  14.771 -2.5526 -1.1669  1.5703
19847TIP3    H280957   4.974   6.244  14.622  2.0874  3.4268  0.0906
19848TIP3   OH280958   5.470   4.448   5.330  0.5169  0.4383  0.3000
19848TIP3    H180959   5.559   4.484   5.330  0.7984 -0.2469  0.7315
19848TIP3    H280960   5.420   4.510   5.382  0.8956  0.4714  0.6305
19849TIP3   OH280961   2.314   6.732  13.930  0.0320  0.4446 -0.5405
19849TIP3    H180962   2.388   6.776  13.973  0.1778 -0.0448 -0.2748
19849TIP3    H280963   2.295   6.657  13.987  0.7990 -0.7332 -1.7760
19850TIP3   OH280964   1.451   5.846  14.127  0.5751 -0.1220 -0.1428
19850TIP3    H180965   1.544   5.842  14.151  0.2846 -0.8741  0.9612
19850TIP3    H280966   1.437   5.770  14.071  0.8559  0.6282 -1.2652
19851TIP3   OH280967   4.593   6.741  14.210 -0.3494 -0.0606 -0.6426
19851TIP3    H180968   4.510   6.769  14.172 -0.4663  0.5214  0.0076
19851TIP3    H280969   4.633   6.685  14.144 -0.8353  0.4125 -1.3426
19852TIP3   OH280970   4.690   5.440  12.477 -0.6124  0.0278 -0.1306
19852TIP3    H180971   4.746   5.375  12.520  0.4184 -0.3095 -1.8762
19852TIP3    H280972   4.748   5.484  12.415 -1.6938  1.5020 -0.1414
19853TIP3   OH280973   6.665   5.995  17.155  0.3318 -0.3735  0.2087
19853TIP3    H180974   6.667   6.079  17.201 -0.0078 -0.8742  1.1847
19853TIP3    H280975   6.643   6.016  17.065 -1.4490  0.4503  0.8062
19854TIP3   OH280976   4.645   1.109  13.784 -0.2564  0.2040  0.4763
19854TIP3    H180977   4.708   1.047  13.748  0.0582  0.0931  1.2047
19854TIP3    H280978   4.661   1.190  13.735  0.3866  0.1480  0.5877
19855TIP3   OH280979   4.936   0.636  15.402 -0.0280 -0.0717  0.2379
19855TIP3    H180980   5.023   0.615  15.368 -1.0105 -2.3120 -1.1761
19855TIP3    H280981   4.906   0.709  15.348  0.7773  0.3889  0.4092
19856TIP3   OH280982   1.905   0.187  16.354 -0.0224  0.0895 -0.1823
19856TIP3    H180983   1.977   0.242  16.386 -1.1631  0.6461  1.6208
19856TIP3    H280984   1.921   0.101  16.393 -1.2526  0.6898  1.7644
19857TIP3   OH280985   4.645   3.195   3.735 -0.0832  0.1406 -0.4199
19857TIP3    H180986   4.664   3.169   3.645  0.3050  1.8884 -0.8805
19857TIP3    H280987   4.731   3.200   3.777 -0.1473  0.6741 -0.3469
19858TIP3   OH280988   1.660   4.371   6.518 -0.5246  0.1376 -0.4281
19858TIP3    H180989   1.570   4.370   6.551 -0.5477  0.9587 -0.4525
19858TIP3    H280990   1.693   4.457   6.542 -0.2047  0.3695 -1.6622
19859TIP3   OH280991   6.694   4.307   0.774  0.3029  0.1279  0.7054
19859TIP3    H180992   6.782   4.299   0.810  0.8050 -0.6398 -0.6612
19859TIP3    H280993   6.638   4.265   0.839  0.9626  0.3991  1.4675
19860TIP3   OH280994   5.979   0.857  13.895  0.3221  0.1380  1.0742
19860TIP3    H180995   5.908   0.802  13.927 -0.0385 -0.4020 -0.5425
19860TIP3    H280996   6.055   0.800  13.893  0.2111  0.0066  0.4588
19861TIP3   OH280997   3.656   0.017   0.900 -0.5258 -0.2103  0.0711
19861TIP3    H180998   3.668   0.109   0.925  1.2708 -0.1453 -0.8903
19861TIP3    H280999   3.630   0.021   0.808  1.5364 -0.6818 -0.5764
19862TIP3   OH281000   6.739   0.694  12.749 -0.7619 -0.7280  0.0689
19862TIP3    H181001   6.676   0.753  12.789 -1.1849 -0.7623 -0.5347
19862TIP3    H281002   6.777   0.745  12.677  0.3221 -0.5045  0.7766
19863TIP3   OH281003   5.607   4.514   5.996  1.2521  0.6261  0.4559
19863TIP3    H181004   5.635   4.423   5.989 -1.7856 -0.3018 -2.5780
19863TIP3    H281005   5.588   4.526   6.089  1.9709 -1.7572  0.9819
19864TIP3   OH281006   1.474   3.446  16.160 -0.3137  0.0909  0.4505
19864TIP3    H181007   1.394   3.393  16.155 -0.2031 -0.1433  1.1684
19864TIP3    H281008   1.526   3.417  16.085 -0.0411 -1.1640  1.1169
19865TIP3   OH281009   5.792   4.481  11.213  0.0183  0.0732 -0.2444
19865TIP3    H181010   5.818   4.389  11.205 -1.7700 -0.4985  0.1276
19865TIP3    H281011   5.754   4.502  11.128  0.8416  0.6353 -0.4871
19866TIP3   OH281012   0.617   6.787  12.929 -0.3583 -0.3827 -0.8860
19866TIP3    H181013   0.523   6.792  12.946 -0.2991 -0.7764 -0.4184
19866TIP3    H281014   0.637   6.693  12.933  0.2759 -0.2140  0.3075
19867TIP3   OH281015   4.338   5.121  15.501  0.6391  0.3672 -0.8603
19867TIP3    H181016   4.253   5.137  15.460 -0.1145  1.0941  0.8937
19867TIP3    H281017   4.399   5.113  15.428 -0.9039  0.0195 -2.1488
19868TIP3   OH281018   0.538   6.059  12.607  0.1995  0.0524  0.4697
19868TIP3    H181019   0.580   6.021  12.684 -0.9745 -0.3015  0.9512
19868TIP3    H281020   0.588   6.139  12.591  0.8059 -0.1459  1.2578
19869TIP3   OH281021   1.132   0.815  10.990  0.0778 -0.1073  0.5793
19869TIP3    H181022   1.104   0.771  10.910  1.7115  0.7421 -0.4906
19869TIP3    H281023   1.173   0.745  11.042  2.1213 -0.0408 -0.8511
19870TIP3   OH281024   2.215   6.715   1.236  0.1121  0.0438 -0.0466
19870TIP3    H181025   2.300   6.676   1.217 -0.1530 -0.0352 -1.0847
19870TIP3    H281026   2.166   6.709   1.155 -1.3807 -1.1197  0.8844
19871TIP3   OH281027   4.407   1.005  14.706  0.0611 -0.4843 -0.2374
19871TIP3    H181028   4.378   1.087  14.665 -0.1063 -0.9405 -1.0428
19871TIP3    H281029   4.503   1.007  14.700  0.2405  0.7853  1.9664
19872TIP3   OH281030   3.335   5.702   5.895 -0.1757 -0.2747  0.1773
19872TIP3    H181031   3.331   5.781   5.950 -2.2497 -1.0858  1.2943
19872TIP3    H281032   3.426   5.700   5.863  0.2578  1.9027  1.0622
19873TIP3   OH281033   5.304   6.539  16.057 -0.0011  0.2482 -0.1456
19873TIP3    H181034   5.361   6.477  16.010  1.1458  1.6120 -0.6351
19873TIP3    H281035   5.349   6.553  16.141 -0.3419  0.3158  0.0279
19874TIP3   OH281036   3.752   4.731   4.070  0.3237  0.0912 -0.6308
19874TIP3    H181037   3.832   4.702   4.026  0.4670  0.3412 -0.5389
19874TIP3    H281038   3.707   4.784   4.004 -0.0268 -0.4857 -0.8592
19875TIP3   OH281039   0.856   1.774  16.174  0.0420 -0.3582  0.4806
19875TIP3    H181040   0.839   1.833  16.100 -1.0287 -0.3437  0.7152
19875TIP3    H281041   0.903   1.700  16.135 -0.3927 -0.2897 -0.2023
19876TIP3   OH281042   2.333   5.049  12.896 -0.4721 -0.3393  0.1702
19876TIP3    H181043   2.385   4.974  12.926  0.0667  0.1192  0.4000
19876TIP3    H281044   2.273   5.012  12.832 -1.4008 -1.2911  1.5173
19877TIP3   OH281045   4.632   4.876   1.721 -0.1481 -0.5336  0.5249
19877TIP3    H181046   4.614   4.789   1.685 -0.5924 -0.1087 -0.2966
19877TIP3    H281047   4.546   4.917   1.728 -0.0024 -0.3946  1.5306
19878TIP3   OH281048   4.287   6.105  13.630 -0.1872  0.7499 -0.1389
19878TIP3    H181049   4.275   6.100  13.725 -1.2629  1.8559 -0.1951
19878TIP3    H281050   4.213   6.057  13.594  0.0085  0.6628 -0.4314
19879TIP3   OH281051   2.233   4.733   0.918  0.2751 -0.1282  0.0964
19879TIP3    H181052   2.143   4.737   0.950 -0.2927 -0.3574 -1.4189
19879TIP3    H281053   2.259   4.825   0.908  0.5701 -0.0356  1.3970
19880TIP3   OH281054   5.146   1.551  15.935 -0.0711  0.1569 -0.0367
19880TIP3    H181055   5.171   1.510  15.852 -2.1470  2.4846 -1.9864
19880TIP3    H281056   5.228   1.558  15.984  1.0060 -2.4684 -1.2897
19881TIP3   OH281057   6.407   0.785   3.950  0.4123 -0.0411 -0.2665
19881TIP3    H181058   6.423   0.727   4.024  2.5122  0.1850 -0.5046
19881TIP3    H281059   6.358   0.858   3.987  0.6311 -0.3709  0.6913
19882TIP3   OH281060   5.489   5.953   2.765  0.4781 -0.0664  0.0265
19882TIP3    H181061   5.471   6.035   2.719  0.5103 -1.1669 -2.0503
19882TIP3    H281062   5.425   5.951   2.836  2.5715  3.2738  2.2770
19883TIP3   OH281063   4.534   4.297   5.731 -0.5395  0.7680  0.6193
19883TIP3    H181064   4.574   4.250   5.804  0.3097  4.1835  2.5716
19883TIP3    H281065   4.441   4.298   5.752 -0.7278 -0.7234  0.0295
19884TIP3   OH281066   4.797   4.635   4.026 -0.7782  0.0200  0.2192
19884TIP3    H181067   4.801   4.707   3.963 -1.2122  0.9891  1.2820
19884TIP3    H281068   4.883   4.634   4.068 -1.2596  0.9022  1.2584
19885TIP3   OH281069   4.139   6.574  12.752  0.4899  0.0402 -0.1523
19885TIP3    H181070   4.200   6.500  12.754  0.8088  0.2971 -0.4128
19885TIP3    H281071   4.144   6.607  12.663 -0.3348 -0.1834 -0.2882
19886TIP3   OH281072   2.287   2.919   0.485  0.2621  0.3315 -0.0931
19886TIP3    H181073   2.325   2.839   0.520  1.3952  0.9056  0.0070
19886TIP3    H281074   2.217   2.888   0.426  0.0300 -0.6877  0.6934
19887TIP3   OH281075   5.320   0.642  16.937  0.2464 -0.6619  0.1592
19887TIP3    H181076   5.379   0.681  16.872 -0.3306  0.2686  0.1788
19887TIP3    H281077   5.378   0.616  17.009  0.8569 -1.4250 -0.5728
19888TIP3   OH281078   2.282   3.332  13.560  0.1967  0.2463 -0.5014
19888TIP3    H181079   2.341   3.366  13.627 -0.6276 -0.6647  0.7204
19888TIP3    H281080   2.239   3.410  13.525  1.8194  0.8901 -1.1568
19889TIP3   OH281081   1.039   5.828   1.328 -0.5351 -0.1424 -1.0028
19889TIP3    H181082   1.035   5.832   1.424 -0.8363  1.3519 -1.0459
19889TIP3    H281083   1.075   5.913   1.302  2.2100 -1.5127 -2.1227
19890TIP3   OH281084   4.959   4.975   4.442  0.0009  0.2684  0.1151
19890TIP3    H181085   4.998   5.033   4.376 -0.1096  0.6830  0.4091
19890TIP3    H281086   5.006   4.996   4.522  0.6493 -0.7618  0.0222
19891TIP3   OH281087   2.898   2.810  12.959  0.1370  0.1438 -0.0664
19891TIP3    H181088   2.809   2.819  12.924  0.2957 -1.0267 -0.8074
19891TIP3    H281089   2.888   2.826  13.053 -0.4694  2.3028 -0.4186
19892TIP3   OH281090   5.320   5.621  11.917 -0.2137  0.3768 -0.1755
19892TIP3    H181091   5.275   5.680  11.978  0.2103 -0.7781  1.3296
19892TIP3    H281092   5.290   5.533  11.943  0.0781 -0.1542 -1.5746
19893TIP3   OH281093   5.046   5.524   2.038 -0.5321 -0.3972 -0.0577
19893TIP3    H181094   4.974   5.489   1.986 -2.5612  0.3471  2.0810
19893TIP3    H281095   5.004   5.572   2.109  2.0972  2.0023  0.0622
19894TIP3   OH281096   5.886   4.808   2.783 -0.9420  0.0576 -0.7843
19894TIP3    H181097   5.946   4.741   2.816 -1.9134  0.5544  2.2592
19894TIP3    H281098   5.944   4.878   2.752  0.0502 -0.8673 -1.0869
19895TIP3   OH281099   2.905   4.168   2.655 -0.8128 -0.4867  0.5613
19895TIP3    H181100   2.879   4.077   2.668 -1.6738 -0.0940  1.7282
19895TIP3    H281101   2.997   4.163   2.627 -0.6119 -1.6792  1.3699
19896TIP3   OH281102   5.739   4.299  16.866  0.1453  0.4146  0.0487
19896TIP3    H181103   5.796   4.222  16.867  1.1341  1.1173  0.7246
19896TIP3    H281104   5.703   4.302  16.778  1.3210  0.0338 -0.4668
19897TIP3   OH281105   3.810   2.599  11.083  0.0718  0.5354 -0.2572
19897TIP3    H181106   3.749   2.532  11.054  0.2398  0.4161 -0.3393
19897TIP3    H281107   3.876   2.602  11.013  1.2259 -0.6943  0.7462
19898TIP3   OH281108   1.187   1.797  15.152 -0.4712 -0.2842  0.0663
19898TIP3    H181109   1.122   1.729  15.138 -1.5217  0.7439 -0.1189
19898TIP3    H281110   1.210   1.828  15.065  0.6597 -0.9673  0.0910
19899TIP3   OH281111   2.188   3.356  14.143 -0.2575  0.3935  0.6950
19899TIP3    H181112   2.226   3.323  14.062  0.7173  0.6458  1.0333
19899TIP3    H281113   2.230   3.441  14.157 -0.6131  0.4779  1.3314
19900TIP3   OH281114   1.644   1.985  13.453 -0.0151  0.3833  0.7425
19900TIP3    H181115   1.591   2.049  13.405  0.2618 -1.3288 -2.0426
19900TIP3    H281116   1.638   2.013  13.544 -2.5089  2.4871  0.0500
19901TIP3   OH281117   4.343   1.618   6.448  0.5727 -0.2603  0.5679
19901TIP3    H181118   4.265   1.640   6.499 -0.1740 -0.0564 -0.6122
19901TIP3    H281119   4.373   1.535   6.484  0.7682  0.4449  2.1004
19902TIP3   OH281120   1.555   0.419   1.008  0.3599 -0.3379  0.2051
19902TIP3    H181121   1.488   0.362   1.044  1.4441 -1.9245 -0.1827
19902TIP3    H281122   1.576   0.380   0.923  0.1819  1.4349 -0.6990
19903TIP3   OH281123   1.843   1.589  11.707  0.7500  0.1610  0.2963
19903TIP3    H181124   1.754   1.601  11.672  1.5827 -0.7437 -2.3626
19903TIP3    H281125   1.859   1.668  11.760 -1.5005  0.4649  0.6220
19904TIP3   OH281126   5.098   2.942   4.812  0.2624 -0.0102  0.1466
19904TIP3    H181127   5.116   2.943   4.906  1.0108 -0.1089  0.0101
19904TIP3    H281128   5.152   2.871   4.778  0.9702  0.8429 -0.5427
19905TIP3   OH281129   6.353   4.440   4.875 -0.0913  0.1577 -0.2295
19905TIP3    H181130   6.343   4.524   4.830 -0.4019  0.9948  1.3271
19905TIP3    H281131   6.310   4.377   4.816 -1.3415  1.3519 -0.6684
19906TIP3   OH281132   2.137   5.259   2.120  0.0389  0.2417 -0.0502
19906TIP3    H181133   2.125   5.242   2.027 -1.1579  0.9556 -0.0511
19906TIP3    H281134   2.174   5.347   2.124  2.2490 -0.6182  0.1055
19907TIP3   OH281135   3.213   2.902  15.981  0.2371 -0.9412  0.2921
19907TIP3    H181136   3.282   2.938  15.927 -0.4960 -1.9541 -1.4154
19907TIP3    H281137   3.217   2.807  15.965 -0.6364 -1.1653  1.2646
19908TIP3   OH281138   1.505   0.822  12.547  0.4044 -0.3838  0.2367
19908TIP3    H181139   1.438   0.869  12.597 -1.0295 -2.5083  0.4574
19908TIP3    H281140   1.454   0.765  12.489  2.0466 -1.4703 -0.1845
19909TIP3   OH281141   1.031   1.590   2.130 -0.6107  0.2657 -0.5901
19909TIP3    H181142   1.083   1.619   2.055 -0.4827  2.2639  0.2171
19909TIP3    H281143   0.989   1.670   2.163 -0.8016 -0.5866  1.3681
19910TIP3   OH281144   5.971   6.531   4.664  0.5085 -0.4909  0.1449
19910TIP3    H181145   6.001   6.491   4.583 -0.4494  0.8765 -0.9275
19910TIP3    H281146   6.047   6.580   4.697  0.9154 -1.0998  0.1270
19911TIP3   OH281147   4.642   4.168   5.075  1.3366  0.9536 -0.1481
19911TIP3    H181148   4.592   4.123   5.007 -0.1006  0.2195  1.3330
19911TIP3    H281149   4.728   4.125   5.073  1.0921  0.4726 -1.0139
19912TIP3   OH281150   2.238   2.411   4.976  0.4992 -0.4813  0.2413
19912TIP3    H181151   2.207   2.500   4.962  0.4044 -0.4275  0.7757
19912TIP3    H281152   2.214   2.391   5.066  0.7873 -0.9392  0.2213
19913TIP3   OH281153   4.765   2.011   3.308  0.3666 -0.1309  0.1801
19913TIP3    H181154   4.856   2.031   3.286  0.4557 -2.1896 -1.5898
19913TIP3    H281155   4.731   2.093   3.345  3.1094  0.4818  1.6249
19914TIP3   OH281156   2.243   5.295   2.989 -0.1952 -0.1191 -0.0669
19914TIP3    H181157   2.285   5.244   3.058 -0.2228 -0.0294  0.0175
19914TIP3    H281158   2.151   5.270   2.993 -0.0424 -0.8035 -0.6854
19915TIP3   OH281159   1.674   2.264  15.712 -0.5055  0.2801  0.0870
19915TIP3    H181160   1.723   2.218  15.780 -2.3433 -1.1361  0.5378
19915TIP3    H281161   1.587   2.225  15.715 -1.2731  1.7314 -1.6098
19916TIP3   OH281162   5.557   2.493   3.042  0.0509 -0.3699  0.7718
19916TIP3    H181163   5.620   2.559   3.012 -1.1304  0.1499 -0.6996
19916TIP3    H281164   5.601   2.410   3.027  0.2788 -0.0257 -0.6056
19917TIP3   OH281165   2.130   5.732   1.976  0.4252 -0.6510 -0.9810
19917TIP3    H181166   2.198   5.792   2.006 -0.8495 -0.3537  1.5545
19917TIP3    H281167   2.083   5.782   1.909  0.4783  0.5342 -0.1721
19918TIP3   OH281168   1.850   3.194  14.427  0.6238 -0.3736 -0.3533
19918TIP3    H181169   1.897   3.271  14.396  0.9496 -1.1565 -1.8804
19918TIP3    H281170   1.868   3.127  14.362 -1.2431 -1.1906 -0.0819
19919TIP3   OH281171   6.163   0.796   1.772 -0.1251 -0.4598  0.4417
19919TIP3    H181172   6.083   0.744   1.782  0.6246 -1.4061  1.9366
19919TIP3    H281173   6.140   0.882   1.809 -0.6826 -0.4530  0.1015
19920TIP3   OH281174   1.137   2.701  13.174  0.4590 -0.0668  0.1338
19920TIP3    H181175   1.122   2.769  13.239  1.2880 -0.0468  0.3138
19920TIP3    H281176   1.133   2.747  13.090  4.6176  1.0424  0.3060
19921TIP3   OH281177   1.199   4.626   1.919  0.1265  0.8405  0.3814
19921TIP3    H181178   1.226   4.655   2.006 -2.0156  1.0844  1.0481
19921TIP3    H281179   1.224   4.534   1.916  0.6009  0.9352  1.0916
19922TIP3   OH281180   4.583   1.125   6.407 -0.3269  0.0648  0.0107
19922TIP3    H181181   4.579   1.031   6.389 -1.4203  0.3930 -1.7273
19922TIP3    H281182   4.668   1.153   6.375 -0.2486 -0.2338 -0.0418
19923TIP3   OH281183   4.641   0.270  16.210 -0.2217 -0.0345 -0.9954
19923TIP3    H181184   4.669   0.179  16.195  1.0696  0.0839  0.3622
19923TIP3    H281185   4.681   0.293  16.294  1.5979  2.5963 -2.4327
19924TIP3   OH281186   3.677   3.557  12.140  0.1960  0.2256  0.1215
19924TIP3    H181187   3.684   3.652  12.150  0.0385  0.5747 -2.4206
19924TIP3    H281188   3.766   3.528  12.124  0.1040  0.0935 -0.1539
19925TIP3   OH281189   6.681   4.930  13.438 -0.4548  0.0423  0.4231
19925TIP3    H181190   6.772   4.941  13.414 -1.0228 -0.5003 -2.2809
19925TIP3    H281191   6.634   4.996  13.387 -1.5245  1.0626  2.5930
19926TIP3   OH281192   4.130   1.833   4.962  0.1423 -0.1415 -0.0393
19926TIP3    H181193   4.049   1.852   4.916  0.6798  4.5427  0.5007
19926TIP3    H281194   4.104   1.826   5.054  0.1917  0.1806  0.0004
19927TIP3   OH281195   4.576   1.404  15.871  0.3648 -0.0261  0.0798
19927TIP3    H181196   4.579   1.408  15.776  1.3034 -1.5472  0.0036
19927TIP3    H281197   4.667   1.421  15.898  0.1301  0.2786  0.6876
19928TIP3   OH281198   5.326   5.672  16.838  0.7346  0.4430  0.0585
19928TIP3    H181199   5.376   5.605  16.792 -0.0767 -1.1510  1.4235
19928TIP3    H281200   5.393   5.731  16.873  1.4046  1.0419 -2.1024
19929TIP3   OH281201   4.779   0.628   1.014  0.1521  0.0779  0.6075
19929TIP3    H181202   4.845   0.675   1.066  0.5399  0.2278 -0.0142
19929TIP3    H281203   4.743   0.563   1.074  1.4082 -0.5154  0.7359
19930TIP3   OH281204   6.640   2.736  15.763 -0.2792  0.1846 -0.3272
19930TIP3    H181205   6.732   2.760  15.775 -0.4166  0.1206  0.9451
19930TIP3    H281206   6.643   2.661  15.704  0.4803  0.2160 -0.3407
19931TIP3   OH281207   0.308   1.805  14.608 -0.1147 -0.0236  0.4062
19931TIP3    H181208   0.217   1.798  14.638 -0.3333  0.7307 -0.0387
19931TIP3    H281209   0.360   1.789  14.686 -0.5557 -2.6776  0.2336
19932TIP3   OH281210   3.988   2.154   4.377  0.5271 -0.0623  0.1143
19932TIP3    H181211   3.931   2.133   4.303 -0.7369  3.0774  0.0475
19932TIP3    H281212   3.954   2.100   4.449 -2.0967  1.0437 -0.1522
19933TIP3   OH281213   2.177   2.631  15.131  0.3463  0.0310  0.4975
19933TIP3    H181214   2.099   2.672  15.168  0.0850  0.8510 -0.8960
19933TIP3    H281215   2.144   2.553  15.086  0.1830  0.8621 -0.8586
19934TIP3   OH281216   2.614   5.626   5.838  0.1923  0.1122 -0.0830
19934TIP3    H181217   2.558   5.640   5.914  1.0316  0.8759  0.4133
19934TIP3    H281218   2.561   5.574   5.778 -1.4769  1.7552 -0.1105
19935TIP3   OH281219   3.507   1.081  16.998 -0.0315 -0.1076  0.4471
19935TIP3    H181220   3.505   1.028  17.078  1.9651 -0.9345  0.0020
19935TIP3    H281221   3.599   1.081  16.972 -0.4689  1.1202 -1.2258
19936TIP3   OH281222   5.657   6.728   4.798 -0.4365 -0.0615 -0.7041
19936TIP3    H181223   5.705   6.675   4.734 -0.5175  0.0087 -0.8256
19936TIP3    H281224   5.639   6.810   4.751 -0.3800  0.0421 -0.5447
19937TIP3   OH281225   0.477   2.338  12.275  0.3060 -0.0359  0.4103
19937TIP3    H181226   0.404   2.291  12.236  0.5654 -0.4103  0.3619
19937TIP3    H281227   0.459   2.338  12.369  0.7288 -0.9972  0.5001
19938TIP3   OH281228   3.085   2.994   0.145 -0.2338 -0.2929  0.4499
19938TIP3    H181229   3.019   2.942   0.099  0.2647 -0.8181  0.3304
19938TIP3    H281230   3.044   3.015   0.229  0.4319 -2.8651  1.4999
19939TIP3   OH281231   6.775   2.604   4.483  0.2092  0.1539  0.4260
19939TIP3    H181232   6.794   2.605   4.390  1.2299  0.9329  0.6320
19939TIP3    H281233   6.858   2.626   4.525 -0.0381 -0.9304  1.5597
19940TIP3   OH281234   4.235   0.680   2.589 -0.0785  0.6068 -0.3724
19940TIP3    H181235   4.195   0.618   2.528 -1.2218  1.5839 -0.6414
19940TIP3    H281236   4.181   0.759   2.583 -0.3665  0.6706  2.0398
19941TIP3   OH281237   4.274   0.548  12.095  0.2198 -0.3170 -0.5731
19941TIP3    H181238   4.179   0.564  12.093  0.3709  0.6219 -1.6922
19941TIP3    H281239   4.301   0.561  12.004  1.6357  0.8998 -0.0155
19942TIP3   OH281240   0.062   5.844   2.775 -0.5992 -0.7329  0.1778
19942TIP3    H181241  -0.010   5.817   2.717 -0.3555  0.3607 -0.6658
19942TIP3    H281242   0.039   5.808   2.860 -1.8001 -0.9818 -0.2342
19943TIP3   OH281243   0.605   3.708  13.416  0.0256 -0.0153  0.4322
19943TIP3    H181244   0.647   3.635  13.461 -2.5054 -1.4437  0.6851
19943TIP3    H281245   0.611   3.686  13.323  0.5528  0.2179  0.4086
19944TIP3   OH281246   6.375   0.493   2.938 -0.3726  0.7100  0.2166
19944TIP3    H181247   6.324   0.455   3.010 -0.7886 -3.5038 -2.0508
19944TIP3    H281248   6.464   0.499   2.973 -0.3401 -2.2743  0.8535
19945TIP3   OH281249   1.885   2.988  16.508 -0.4429  0.2422 -0.0325
19945TIP3    H181250   1.888   2.953  16.597  0.0212 -0.4469 -0.3140
19945TIP3    H281251   1.796   3.022  16.499 -0.6527 -0.1380  0.5220
19946TIP3   OH281252   6.294   0.247  15.173  0.3085  0.2569 -0.1331
19946TIP3    H181253   6.317   0.340  15.167  1.4695  0.0130  0.1660
19946TIP3    H281254   6.214   0.246  15.226  1.0169  1.0138  1.0083
19947TIP3   OH281255   6.051   1.136   1.529  0.0848 -0.3978  0.0159
19947TIP3    H181256   6.113   1.202   1.497  2.1531 -1.3018  1.9467
19947TIP3    H281257   6.066   1.060   1.473 -2.4934  0.6646 -2.3948
19948TIP3   OH281258   2.762   2.339   2.890 -0.0791  0.1988 -0.5805
19948TIP3    H181259   2.820   2.320   2.965 -0.1997 -0.1950 -0.5851
19948TIP3    H281260   2.716   2.257   2.874 -1.8138  0.9297  0.4234
19949TIP3   OH281261   3.954   4.484  16.678 -0.2019  0.3235  0.5013
19949TIP3    H181262   3.981   4.392  16.682 -0.2521  0.2822 -0.0897
19949TIP3    H281263   3.972   4.511  16.588 -2.9543  0.0357 -0.2214
19950TIP3   OH281264   2.328   5.468   3.221  0.5651 -0.5975 -0.0955
19950TIP3    H181265   2.385   5.539   3.191 -0.1549  0.9072  1.8776
19950TIP3    H281266   2.260   5.511   3.272 -0.0563 -2.6965  0.9879
19951TIP3   OH281267   0.170   0.136  15.848 -0.1330  0.5656 -0.8868
19951TIP3    H181268   0.212   0.062  15.805  1.2042  1.4070 -1.0798
19951TIP3    H281269   0.079   0.109  15.858  0.7511 -2.2242  1.4023
19952TIP3   OH281270   1.545   2.689   2.732  0.2544 -0.6078  0.1711
19952TIP3    H181271   1.511   2.684   2.821 -0.5585 -1.4958 -0.1797
19952TIP3    H281272   1.467   2.696   2.677  0.7709  2.5535 -0.3725
19953TIP3   OH281273   2.394   4.783   1.915 -0.1720 -0.5765  0.0243
19953TIP3    H181274   2.366   4.735   1.993 -1.9453 -1.2423 -0.9652
19953TIP3    H281275   2.369   4.874   1.932 -0.5181 -0.7112  0.2368
19954TIP3   OH281276   6.409   3.736  10.307  0.0471  0.9446 -0.2684
19954TIP3    H181277   6.478   3.771  10.364  0.8296 -1.8153  0.6829
19954TIP3    H281278   6.330   3.739  10.360  0.5434 -0.5409  0.6359
19955TIP3   OH281279   1.069   4.845   2.628 -0.8855  0.0576  0.2080
19955TIP3    H181280   1.022   4.801   2.698  0.4457 -1.0732  0.4276
19955TIP3    H281281   1.079   4.935   2.658 -1.0485 -0.2154  1.0995
19956TIP3   OH281282   1.935   6.725   2.930  0.5874 -0.6648 -0.2904
19956TIP3    H181283   2.016   6.770   2.906  0.2928 -0.3761 -0.7316
19956TIP3    H281284   1.868   6.765   2.876  0.4544 -2.2036 -1.2950
19957TIP3   OH281285   5.658   2.232   3.070 -0.3340 -0.0760  0.0036
19957TIP3    H181286   5.607   2.154   3.091 -1.8004  0.7990 -0.1861
19957TIP3    H281287   5.735   2.226   3.126  0.3270 -2.3781 -1.0421
19958TIP3   OH281288   2.257   1.219   4.643 -0.0762  0.2554  0.3450
19958TIP3    H181289   2.203   1.150   4.682  1.9219 -2.8567 -1.8739
19958TIP3    H281290   2.340   1.214   4.691 -0.8945  3.6445  2.4281
19959TIP3   OH281291   1.221   2.334  14.575  0.6127 -0.1541  0.4355
19959TIP3    H181292   1.138   2.343  14.622  1.2515 -3.3384  2.4702
19959TIP3    H281293   1.218   2.246  14.537  2.3075  0.3853 -1.1228
19960TIP3   OH281294   6.545   0.946   4.881  0.2474  0.4786 -0.4036
19960TIP3    H181295   6.495   0.928   4.961 -1.0686 -1.5550 -1.6196
19960TIP3    H281296   6.633   0.966   4.913  0.0690 -1.4232  1.5485
19961TIP3   OH281297   5.708   6.372   1.450  0.2576  0.5515  0.7758
19961TIP3    H181298   5.666   6.447   1.407 -0.3064 -0.1081  0.1524
19961TIP3    H281299   5.692   6.298   1.391 -0.9681 -0.4988  2.3229
19962LIG     O181300   1.579   4.738  14.619 -0.3352 -0.7055 -0.0598
19962LIG     O281301   1.729   4.893  14.715  0.0972  0.2229  0.4202
19962LIG     O381302   1.875   4.701  14.707 -0.0201 -0.1095  0.4314
19962LIG     O481303   1.438   5.047  14.756 -0.3222 -0.4399  0.0493
19962LIG     O581304   1.287   4.811  14.679 -0.3380  0.4997 -0.3420
19962LIG     O681305   1.908   5.055  14.581 -0.5450 -0.0087 -0.5557
19962LIG     O781306   1.911   5.007  14.865  0.1443  0.1305  0.3153
19962LIG     O881307   2.151   4.836  14.931  0.3735  0.1869 -0.1207
19962LIG     O981308   1.453   4.955  14.471 -0.3864  0.4179  0.1823
19962LIG    O1081309   1.581   4.674  14.935  0.0649 -0.3272 -0.0768
19962LIG    O1181310   2.025   4.571  15.006 -0.2965 -0.2356  0.2221
19962LIG     C181311   1.601   4.876  14.655  0.4211  0.1194  0.0271
19962LIG     C281312   1.494   4.915  14.762 -0.0522  0.1024 -0.5881
19962LIG     C381313   1.402   4.789  14.766  0.2311 -0.6837 -0.1928
19962LIG     C481314   1.484   4.675  14.711 -0.6411 -1.2042  0.3415
19962LIG     C581315   1.835   4.827  14.652 -0.0690 -1.0030  0.7838
19962LIG     C681316   1.945   4.930  14.638 -0.6184  0.3442  0.0747
19962LIG     C781317   2.004   4.947  14.768 -0.1125 -0.3729  0.1739
19962LIG     C881318   2.065   4.817  14.817  0.6566  1.0765  0.4768
19962LIG     C981319   1.945   4.720  14.834  0.2708 -0.2159  0.5148
19962LIG    C1081320   1.579   4.966  14.530 -0.5301 -0.0540 -0.4573
19962LIG    C1181321   1.561   4.599  14.817 -0.3415 -0.2623 -0.2200
19962LIG    C1281322   1.995   4.579  14.869  0.4551 -0.1671  0.3970
19962LIG     H181323   1.548   4.907  14.858 -1.4900  0.7208  0.3009
19962LIG     H281324   1.360   4.773  14.866  2.2200  1.0440  1.0048
19962LIG     H381325   1.428   4.606  14.647 -1.1096 -0.1240 -0.4603
19962LIG     H481326   1.798   4.800  14.551 -0.7406  0.4733  0.6106
19962LIG     H581327   2.015   4.893  14.560 -1.8192  2.6023 -2.1999
19962LIG     H681328   2.092   5.014  14.760  0.8564 -1.4245  1.5261
19962LIG     H781329   2.134   4.770  14.744 -1.6454 -0.9023 -0.5763
19962LIG     H881330   1.870   4.751  14.910 -0.3144  1.0723 -0.5347
19962LIG     H981331   1.590   5.074  14.557 -0.4389  0.2197 -1.5225
19962LIG    H1081332   1.661   4.944  14.458  0.0256 -0.4650  0.2890
19962LIG    H1181333   1.515   4.503  14.849  0.4091 -0.9751 -1.1943
19962LIG    H1281334   1.661   4.577  14.774 -0.2043 -0.1414  0.0354
19962LIG    H1381335   1.930   4.492  14.846  0.5524 -0.7478  2.1807
19962LIG    H1481336   2.087   4.564  14.808  0.1667  1.5715 -0.5553
19962LIG    H1581337   1.409   5.083  14.672  0.1426  2.6170  1.1066
19962LIG    H1681338   1.327   4.820  14.592  1.8026  0.5145  0.5837
19962LIG    H1781339   1.986   5.091  14.538  0.0077 -0.6475 -0.1021
19962LIG    H1881340   1.826   4.965  14.853 -0.6514  1.3048  1.5663
19962LIG    H1981341   2.221   4.890  14.893 -0.3916  2.1901  1.1963
19962LIG    H2081342   1.468   4.972  14.378  0.1269 -1.7344 -0.1987
19962LIG    H2181343   1.590   4.616  15.011  0.5389  0.5991  0.5874
19962LIG    H2281344   2.079   4.492  15.011  0.4822  0.2620 -0.1600
   6.79735   6.79735  17.19913
